
    -----------------------------------------------------------------------
          Psi4: An Open-Source Ab Initio Electronic Structure Package
                               Psi4 1.4a3.dev88 

                         Git: Rev {master} 262e345 


    D. G. A. Smith, L. A. Burns, A. C. Simmonett, R. M. Parrish,
    M. C. Schieber, R. Galvelis, P. Kraus, H. Kruse, R. Di Remigio,
    A. Alenaizan, A. M. James, S. Lehtola, J. P. Misiewicz, M. Scheurer,
    R. A. Shaw, J. B. Schriber, Y. Xie, Z. L. Glick, D. A. Sirianni,
    J. S. O'Brien, J. M. Waldrop, A. Kumar, E. G. Hohenstein,
    B. P. Pritchard, B. R. Brooks, H. F. Schaefer III, A. Yu. Sokolov,
    K. Patkowski, A. E. DePrince III, U. Bozkaya, R. A. King,
    F. A. Evangelista, J. M. Turney, T. D. Crawford, C. D. Sherrill,
    J. Chem. Phys. 152(18) 184108 (2020). https://doi.org/10.1063/5.0006002

                            Additional Code Authors
    E. T. Seidl, C. L. Janssen, E. F. Valeev, M. L. Leininger,
    J. F. Gonthier, R. M. Richard, H. R. McAlexander, M. Saitow, X. Wang,
    P. Verma, and M. H. Lechner

             Previous Authors, Complete List of Code Contributors,
                       and Citations for Specific Modules
    https://github.com/psi4/psi4/blob/master/codemeta.json
    https://github.com/psi4/psi4/graphs/contributors
    http://psicode.org/psi4manual/master/introduction.html#citing-psifour

    -----------------------------------------------------------------------


    Psi4 started on: Wednesday, 20 January 2021 08:47PM

    Process ID: 131478
    Host:       n412-052.vsc4.prov
    PSIDATADIR: /home/fs71337/gallo4/psi4/psi4/build/stage/share/psi4
    Memory:     500.0 MiB
    Threads:    48
    
  ==> Input File <==

--------------------------------------------------------------------------
# Any line starting with the # character is a comment line
memory 250000 mb
molecule molecule{
0 2
B          0.0000000000        0.0000000000        0.0000000000
}

set {
  reference uhf
  basis aug-cc-pv(q+d)z
  scf_type OUT_OF_CORE
  freeze_core true
}

energy('ccsd(t)')
--------------------------------------------------------------------------

  Memory set to 232.831 GiB by Python driver.

Scratch directory: /binfl/lv71337/airmler/temp/

*** tstart() called on n412-052.vsc4.prov
*** at Wed Jan 20 20:47:14 2021

   => Loading Basis Set <=

    Name: AUG-CC-PV(Q+D)Z
    Role: ORBITAL
    Keyword: BASIS
    atoms 1 entry B          line   271 file /home/fs71337/gallo4/psi4/psi4/build/stage/share/psi4/basis/aug-cc-pv_qpd_z.gbs 


         ---------------------------------------------------------
                                   SCF
               by Justin Turney, Rob Parrish, Andy Simmonett
                          and Daniel G. A. Smith
                              UHF Reference
                       48 Threads, 238418 MiB Core
         ---------------------------------------------------------

  ==> Geometry <==

    Molecular point group: d2h
    Geometry (in Angstrom), charge = 0, multiplicity = 2:

       Center              X                  Y                   Z               Mass       
    ------------   -----------------  -----------------  -----------------  -----------------
         B            0.000000000000     0.000000000000     0.000000000000    11.009305360000

  Running in d2h symmetry.

  Rotational constants: A = ************  B = ************  C = ************ [cm^-1]
  Rotational constants: A = ************  B = ************  C = ************ [MHz]
  Nuclear repulsion =    0.000000000000000

  Charge       = 0
  Multiplicity = 2
  Electrons    = 5
  Nalpha       = 3
  Nbeta        = 2

  ==> Algorithm <==

  SCF Algorithm Type is OUT_OF_CORE.
  DIIS enabled.
  MOM disabled.
  Fractional occupation disabled.
  Guess Type is CORE.
  Energy threshold   = 1.00e-08
  Density threshold  = 1.00e-08
  Integral threshold = 1.00e-12

  ==> Primary Basis <==

  Basis Set: AUG-CC-PV(Q+D)Z
    Blend: AUG-CC-PV(Q+D)Z
    Number of shells: 20
    Number of basis function: 80
    Number of Cartesian functions: 105
    Spherical Harmonics?: true
    Max angular momentum: 4

  ==> Integral Setup <==

  ==> DiskJK: Disk-Based J/K Matrices <==

    J tasked:                  Yes
    K tasked:                  Yes
    wK tasked:                  No
    Memory [MiB]:           178813
    Schwarz Cutoff:          1E-12

  Minimum eigenvalue in the overlap matrix is 4.9376260876E-03.
  Reciprocal condition number of the overlap matrix is 1.4564240526E-03.
    Using symmetric orthogonalization.

  ==> Pre-Iterations <==

  SCF Guess: Core (One-Electron) Hamiltonian.

   -------------------------------------------------------
    Irrep   Nso     Nmo     Nalpha   Nbeta   Ndocc  Nsocc
   -------------------------------------------------------
     Ag        20      20       1       1       1       0
     B1g        8       8       0       0       0       0
     B2g        8       8       0       0       0       0
     B3g        8       8       0       0       0       0
     Au         3       3       0       0       0       0
     B1u       11      11       1       0       0       1
     B2u       11      11       0       0       0       0
     B3u       11      11       1       1       1       0
   -------------------------------------------------------
    Total      80      80       3       2       2       1
   -------------------------------------------------------

  ==> Iterations <==

                        Total Energy        Delta E     RMS |[F,P]|

    Occupation by irrep:
             Ag   B1g   B2g   B3g    Au   B1u   B2u   B3u 
    DOCC [     2,    0,    0,    0,    0,    0,    0,    0 ]
    SOCC [     0,    0,    0,    0,    0,    1,    0,    0 ]

   @UHF iter   1:   -21.58537976507149   -2.15854e+01   8.77773e-02 DIIS
   @UHF iter   2:   -23.18097610128457   -1.59560e+00   1.99297e-02 DIIS
   @UHF iter   3:   -24.48088912327803   -1.29991e+00   7.55000e-03 DIIS
   @UHF iter   4:   -24.52765935140481   -4.67702e-02   2.08119e-03 DIIS
   @UHF iter   5:   -24.53275558035780   -5.09623e-03   3.72375e-04 DIIS
   @UHF iter   6:   -24.53295423443452   -1.98654e-04   1.07247e-04 DIIS
   @UHF iter   7:   -24.53298185143118   -2.76170e-05   2.82300e-05 DIIS
   @UHF iter   8:   -24.53298398504298   -2.13361e-06   6.32014e-06 DIIS
   @UHF iter   9:   -24.53298407343611   -8.83931e-08   6.10873e-07 DIIS
   @UHF iter  10:   -24.53298407418841   -7.52301e-10   9.68575e-08 DIIS
   @UHF iter  11:   -24.53298407421455   -2.61373e-11   1.06084e-08 DIIS
   @UHF iter  12:   -24.53298407421475   -2.02505e-13   2.36451e-09 DIIS
  Energy and wave function converged.


  ==> Post-Iterations <==

   @Spin Contamination Metric:   1.132817133E-02
   @S^2 Expected:                7.500000000E-01
   @S^2 Observed:                7.613281713E-01
   @S   Expected:                5.000000000E-01
   @S   Observed:                5.000000000E-01

    Orbital Energies [Eh]
    ---------------------

    Alpha Occupied:                                                       

       1Ag    -7.701445     2Ag    -0.545284     1B1u   -0.318755  

    Alpha Virtual:                                                        

       1B2u    0.023683     1B3u    0.023683     2B1u    0.050931  
       3Ag     0.055655     2B2u    0.077360     2B3u    0.077360  
       1B1g    0.145688     4Ag     0.145688     1B2g    0.147493  
       1B3g    0.147493     5Ag     0.148378     3B1u    0.271796  
       3B3u    0.311967     3B2u    0.311967     6Ag     0.335497  
       4B2u    0.461898     4B3u    0.461898     1Au     0.467130  
       4B1u    0.467130     5B3u    0.470367     5B2u    0.470367  
       5B1u    0.471414     7Ag     0.491188     2B2g    0.492659  
       2B3g    0.492659     2B1g    0.500623     8Ag     0.500623  
       6B1u    1.022911     6B3u    1.050761     6B2u    1.050761  
       3B1g    1.370039     9Ag     1.370039     3B3g    1.379318  
       3B2g    1.379318    10Ag     1.385960     4B1g    1.385960  
      11Ag     1.388636     4B2g    1.389826     4B3g    1.389826  
      12Ag     1.391580     5B2g    1.404057     5B3g    1.404057  
      13Ag     1.407405    14Ag     1.411094     5B1g    1.411094  
       7B2u    1.439158     7B3u    1.439158     7B1u    1.447457  
       2Au     1.447457     8B3u    1.452419     8B2u    1.452419  
       8B1u    1.454058     9B1u    3.735482     9B3u    3.737043  
       9B2u    3.737043     6B1g    3.919691    15Ag     3.919691  
       6B3g    3.934818     6B2g    3.934818    16Ag     3.945627  
       7B1g    3.945627     7B2g    3.952101     7B3g    3.952101  
      17Ag     3.954258    18Ag     3.956032     8B1g    3.956032  
       8B2g    3.963947     8B3g    3.963947    19Ag     3.966692  
      10B2u    4.086109    10B3u    4.086109    10B1u    4.099994  
       3Au     4.099994    11B3u    4.108432    11B2u    4.108432  
      11B1u    4.111263    20Ag    13.025937  

    Beta Occupied:                                                        

       1Ag    -7.686297     2Ag    -0.446230  

    Beta Virtual:                                                         

       1B3u    0.027496     1B2u    0.027496     1B1u    0.039815  
       3Ag     0.059191     2B2u    0.084443     2B3u    0.084443  
       2B1u    0.117898     1B1g    0.145767     4Ag     0.145767  
       1B2g    0.151776     1B3g    0.151776     5Ag     0.154009  
       3B3u    0.320187     3B2u    0.320187     6Ag     0.351182  
       3B1u    0.353832     4B2u    0.461822     4B3u    0.461822  
       1Au     0.471173     4B1u    0.471173     5B3u    0.477065  
       5B2u    0.477065     5B1u    0.479099     2B1g    0.501733  
       7Ag     0.501733     2B2g    0.523794     2B3g    0.523794  
       8Ag     0.532204     6B3u    1.060145     6B2u    1.060145  
       6B1u    1.103603     3B1g    1.369760     9Ag     1.369760  
       3B3g    1.384478     3B2g    1.384478    10Ag     1.394925  
       4B1g    1.394925     4B2g    1.401542     4B3g    1.401542  
      11Ag     1.403751    12Ag     1.415985     5B1g    1.415985  
      13Ag     1.419581     7B2u    1.439805     7B3u    1.439805  
       5B2g    1.453073     5B3g    1.453073     7B1u    1.463739  
       2Au     1.463739    14Ag     1.466807     8B3u    1.478782  
       8B2u    1.478782     8B1u    1.483962     9B3u    3.744223  
       9B2u    3.744223     9B1u    3.785914     6B1g    3.920384  
      15Ag     3.920384     6B2g    3.945718     6B3g    3.945718  
      16Ag     3.960529     7B1g    3.960529    17Ag     3.964992  
       8B1g    3.964992     7B2g    3.975070     7B3g    3.975070  
      18Ag     3.978855     8B2g    4.000577     8B3g    4.000577  
      19Ag     4.014171    10B2u    4.088794    10B3u    4.088794  
      10B1u    4.121447     3Au     4.121447    11B3u    4.141806  
      11B2u    4.141806    11B1u    4.148798    20Ag    13.037791  

    Final Occupation by Irrep:
             Ag   B1g   B2g   B3g    Au   B1u   B2u   B3u 
    DOCC [     2,    0,    0,    0,    0,    0,    0,    0 ]
    SOCC [     0,    0,    0,    0,    0,    1,    0,    0 ]

  @UHF Final Energy:   -24.53298407421475

   => Energetics <=

    Nuclear Repulsion Energy =              0.0000000000000000
    One-Electron Energy =                 -32.3679564499787773
    Two-Electron Energy =                   7.8349723757640231
    Total Energy =                        -24.5329840742147525

  UHF NO Occupations:
  HONO-2 :    1 Ag 1.9999980
  HONO-1 :    2 Ag 1.9943218
  HONO-0 :    1B1u 1.0000000
  LUNO+0 :    3 Ag 0.0056782
  LUNO+1 :    4 Ag 0.0000020
  LUNO+2 :    5 Ag 0.0000000
  LUNO+3 :    2B1u 0.0000000


Computation Completed


Properties will be evaluated at   0.000000,   0.000000,   0.000000 [a0]

Properties computed using the SCF density matrix

  Nuclear Dipole Moment: [e a0]
     X:     0.0000      Y:     0.0000      Z:     0.0000

  Electronic Dipole Moment: [e a0]
     X:     0.0000      Y:     0.0000      Z:     0.0000

  Dipole Moment: [e a0]
     X:     0.0000      Y:     0.0000      Z:     0.0000     Total:     0.0000

  Dipole Moment: [D]
     X:     0.0000      Y:     0.0000      Z:     0.0000     Total:     0.0000


*** tstop() called on n412-052.vsc4.prov at Wed Jan 20 20:47:17 2021
Module time:
	user time   =      15.98 seconds =       0.27 minutes
	system time =       0.54 seconds =       0.01 minutes
	total time  =          3 seconds =       0.05 minutes
Total time:
	user time   =      15.98 seconds =       0.27 minutes
	system time =       0.54 seconds =       0.01 minutes
	total time  =          3 seconds =       0.05 minutes

*** tstart() called on n412-052.vsc4.prov
*** at Wed Jan 20 20:47:17 2021


	Wfn Parameters:
	--------------------
	Wavefunction         = CCSD_T
	Number of irreps     = 8
	Number of MOs        = 80
	Number of active MOs = 79
	AO-Basis             = NONE
	Semicanonical        = false
	Reference            = UHF
	Print Level          = 1

	IRREP	# MOs	# FZDC	# DOCC	# SOCC	# VIRT	# FZVR
	-----	-----	------	------	------	------	------
	 Ag	   20	    1	    1	    0	    18	    0
	 B1g	   8	    0	    0	    0	    8	    0
	 B2g	   8	    0	    0	    0	    8	    0
	 B3g	   8	    0	    0	    0	    8	    0
	 Au	   3	    0	    0	    0	    3	    0
	 B1u	   11	    0	    0	    1	    10	    0
	 B2u	   11	    0	    0	    0	    11	    0
	 B3u	   11	    0	    0	    0	    11	    0
	Transforming integrals...
	IWL integrals will be deleted.
	(OO|OO)...
	Presorting SO-basis two-electron integrals.
	Sorting File: SO Ints (nn|nn) nbuckets = 1
	Constructing frozen core operators
	Starting AA/AB first half-transformation.
	Sorting AA/AB half-transformed integrals.
	Starting BB first half-transformation.
	Sorting BB half-transformed integrals.
	First half integral transformation complete.
	Starting AA second half-transformation.
	Starting AB second half-transformation.
	Starting BB second half-transformation.
	Two-electron integral transformation complete.
	(OO|OV)...
	Starting AA second half-transformation.
	Starting AB second half-transformation.
	Starting BB second half-transformation.
	Two-electron integral transformation complete.
	(OO|VV)...
	Starting AA second half-transformation.
	Starting AB second half-transformation.
	Starting BB second half-transformation.
	Two-electron integral transformation complete.
	(OV|OO)...
	Starting AA/AB first half-transformation.
	Sorting AA/AB half-transformed integrals.
	Starting BB first half-transformation.
	Sorting BB half-transformed integrals.
	First half integral transformation complete.
	Starting AA second half-transformation.
	Starting AB second half-transformation.
	Starting BB second half-transformation.
	Two-electron integral transformation complete.
	(OV|OV)...
	Starting AA second half-transformation.
	Starting AB second half-transformation.
	Starting BB second half-transformation.
	Two-electron integral transformation complete.
	(OV|VV)...
	Starting AA second half-transformation.
	Starting AB second half-transformation.
	Starting BB second half-transformation.
	Two-electron integral transformation complete.
	(VV|OO)...
	Starting AA/AB first half-transformation.
	Sorting AA/AB half-transformed integrals.
	Starting BB first half-transformation.
	Sorting BB half-transformed integrals.
	First half integral transformation complete.
	Starting AA second half-transformation.
	Starting AB second half-transformation.
	Starting BB second half-transformation.
	Two-electron integral transformation complete.
	(VV|OV)...
	Starting AA second half-transformation.
	Starting AB second half-transformation.
	Starting BB second half-transformation.
	Two-electron integral transformation complete.
	(VV|VV)...
	Starting AA second half-transformation.
	Starting AB second half-transformation.
	Starting BB second half-transformation.
	Two-electron integral transformation complete.
	Frozen core energy     =    -21.98579956716565

	Size of irrep 0 of <AB|CD> integrals:      0.156 (MW) /      1.248 (MB)
	Size of irrep 1 of <AB|CD> integrals:      0.129 (MW) /      1.031 (MB)
	Size of irrep 2 of <AB|CD> integrals:      0.123 (MW) /      0.986 (MB)
	Size of irrep 3 of <AB|CD> integrals:      0.123 (MW) /      0.986 (MB)
	Size of irrep 4 of <AB|CD> integrals:      0.096 (MW) /      0.769 (MB)
	Size of irrep 5 of <AB|CD> integrals:      0.144 (MW) /      1.155 (MB)
	Size of irrep 6 of <AB|CD> integrals:      0.152 (MW) /      1.217 (MB)
	Size of irrep 7 of <AB|CD> integrals:      0.152 (MW) /      1.217 (MB)
	Total:                                     1.076 (MW) /      8.608 (MB)

	Size of irrep 0 of <ab|cd> integrals:      0.164 (MW) /      1.312 (MB)
	Size of irrep 1 of <ab|cd> integrals:      0.131 (MW) /      1.048 (MB)
	Size of irrep 2 of <ab|cd> integrals:      0.131 (MW) /      1.048 (MB)
	Size of irrep 3 of <ab|cd> integrals:      0.131 (MW) /      1.048 (MB)
	Size of irrep 4 of <ab|cd> integrals:      0.101 (MW) /      0.809 (MB)
	Size of irrep 5 of <ab|cd> integrals:      0.158 (MW) /      1.267 (MB)
	Size of irrep 6 of <ab|cd> integrals:      0.158 (MW) /      1.267 (MB)
	Size of irrep 7 of <ab|cd> integrals:      0.158 (MW) /      1.267 (MB)
	Total:                                     1.133 (MW) /      9.068 (MB)

	Size of irrep 0 of <Ab|Cd> integrals:      0.769 (MW) /      6.153 (MB)
	Size of irrep 1 of <Ab|Cd> integrals:      0.520 (MW) /      4.159 (MB)
	Size of irrep 2 of <Ab|Cd> integrals:      0.508 (MW) /      4.067 (MB)
	Size of irrep 3 of <Ab|Cd> integrals:      0.508 (MW) /      4.067 (MB)
	Size of irrep 4 of <Ab|Cd> integrals:      0.394 (MW) /      3.155 (MB)
	Size of irrep 5 of <Ab|Cd> integrals:      0.605 (MW) /      4.842 (MB)
	Size of irrep 6 of <Ab|Cd> integrals:      0.621 (MW) /      4.968 (MB)
	Size of irrep 7 of <Ab|Cd> integrals:      0.621 (MW) /      4.968 (MB)
	Total:                                     4.547 (MW) /     36.378 (MB)

	Size of irrep 0 of <IA|BC> integrals:      0.024 (MW) /      0.194 (MB)
	Size of irrep 1 of <IA|BC> integrals:      0.008 (MW) /      0.063 (MB)
	Size of irrep 2 of <IA|BC> integrals:      0.013 (MW) /      0.107 (MB)
	Size of irrep 3 of <IA|BC> integrals:      0.013 (MW) /      0.107 (MB)
	Size of irrep 4 of <IA|BC> integrals:      0.007 (MW) /      0.055 (MB)
	Size of irrep 5 of <IA|BC> integrals:      0.021 (MW) /      0.170 (MB)
	Size of irrep 6 of <IA|BC> integrals:      0.015 (MW) /      0.119 (MB)
	Size of irrep 7 of <IA|BC> integrals:      0.015 (MW) /      0.119 (MB)
	Total:                                     0.117 (MW) /      0.933 (MB)

	Size of irrep 0 of <ia|bc> integrals:      0.016 (MW) /      0.128 (MB)
	Size of irrep 1 of <ia|bc> integrals:      0.006 (MW) /      0.046 (MB)
	Size of irrep 2 of <ia|bc> integrals:      0.006 (MW) /      0.046 (MB)
	Size of irrep 3 of <ia|bc> integrals:      0.006 (MW) /      0.046 (MB)
	Size of irrep 4 of <ia|bc> integrals:      0.002 (MW) /      0.015 (MB)
	Size of irrep 5 of <ia|bc> integrals:      0.009 (MW) /      0.070 (MB)
	Size of irrep 6 of <ia|bc> integrals:      0.009 (MW) /      0.070 (MB)
	Size of irrep 7 of <ia|bc> integrals:      0.009 (MW) /      0.070 (MB)
	Total:                                     0.062 (MW) /      0.492 (MB)

	Size of irrep 0 of <Ia|Bc> integrals:      0.025 (MW) /      0.203 (MB)
	Size of irrep 1 of <Ia|Bc> integrals:      0.008 (MW) /      0.063 (MB)
	Size of irrep 2 of <Ia|Bc> integrals:      0.014 (MW) /      0.108 (MB)
	Size of irrep 3 of <Ia|Bc> integrals:      0.014 (MW) /      0.108 (MB)
	Size of irrep 4 of <Ia|Bc> integrals:      0.007 (MW) /      0.055 (MB)
	Size of irrep 5 of <Ia|Bc> integrals:      0.023 (MW) /      0.180 (MB)
	Size of irrep 6 of <Ia|Bc> integrals:      0.015 (MW) /      0.120 (MB)
	Size of irrep 7 of <Ia|Bc> integrals:      0.015 (MW) /      0.120 (MB)
	Total:                                     0.120 (MW) /      0.959 (MB)

	Size of irrep 0 of <iA|bC> integrals:      0.016 (MW) /      0.126 (MB)
	Size of irrep 1 of <iA|bC> integrals:      0.006 (MW) /      0.046 (MB)
	Size of irrep 2 of <iA|bC> integrals:      0.006 (MW) /      0.046 (MB)
	Size of irrep 3 of <iA|bC> integrals:      0.006 (MW) /      0.046 (MB)
	Size of irrep 4 of <iA|bC> integrals:      0.002 (MW) /      0.015 (MB)
	Size of irrep 5 of <iA|bC> integrals:      0.008 (MW) /      0.062 (MB)
	Size of irrep 6 of <iA|bC> integrals:      0.009 (MW) /      0.069 (MB)
	Size of irrep 7 of <iA|bC> integrals:      0.009 (MW) /      0.069 (MB)
	Total:                                     0.060 (MW) /      0.480 (MB)

	Size of irrep 0 of tIjAb amplitudes:       0.001 (MW) /      0.007 (MB)
	Size of irrep 1 of tIjAb amplitudes:       0.000 (MW) /      0.000 (MB)
	Size of irrep 2 of tIjAb amplitudes:       0.000 (MW) /      0.000 (MB)
	Size of irrep 3 of tIjAb amplitudes:       0.000 (MW) /      0.000 (MB)
	Size of irrep 4 of tIjAb amplitudes:       0.000 (MW) /      0.000 (MB)
	Size of irrep 5 of tIjAb amplitudes:       0.001 (MW) /      0.006 (MB)
	Size of irrep 6 of tIjAb amplitudes:       0.000 (MW) /      0.000 (MB)
	Size of irrep 7 of tIjAb amplitudes:       0.000 (MW) /      0.000 (MB)
	Total:                                     0.002 (MW) /      0.013 (MB)

	Nuclear Rep. energy          =      0.00000000000000
	SCF energy                   =    -24.53298407421475
	One-electron energy          =     -3.78409938110966
	Two-electron (AA) energy     =      0.34533049978064
	Two-electron (BB) energy     =      0.00000000000000
	Two-electron (AB) energy     =      0.89158437427988
	Two-electron energy          =      1.23691487406052
	Reference energy             =    -24.53298407421480

*** tstop() called on n412-052.vsc4.prov at Wed Jan 20 20:47:22 2021
Module time:
	user time   =       0.58 seconds =       0.01 minutes
	system time =       0.75 seconds =       0.01 minutes
	total time  =          5 seconds =       0.08 minutes
Total time:
	user time   =      16.56 seconds =       0.28 minutes
	system time =       1.29 seconds =       0.02 minutes
	total time  =          8 seconds =       0.13 minutes
            **************************
            *                        *
            *        CCENERGY        *
            *                        *
            **************************

    Nuclear Rep. energy (wfn)     =    0.000000000000000
    SCF energy          (wfn)     =  -24.532984074214752
    Reference energy    (file100) =  -24.532984074214795

    Input parameters:
    -----------------
    Wave function   =     CCSD_T
    Reference wfn   =     UHF
    Brueckner       =     No
    Memory (Mbytes) =     250000.0
    Maxiter         =     50
    R_Convergence   =     1.0e-07
    E_Convergence   =     1.0e-06
    Restart         =     Yes
    DIIS            =     Yes
    AO Basis        =     NONE
    ABCD            =     NEW
    Cache Level     =     2
    Cache Type      =     LRU
    Print Level     =     1
    Num. of threads =     48
    # Amps to Print =     10
    Print MP2 Amps? =     No
    Analyze T2 Amps =     No
    Print Pair Ener =     No
    Local CC        =     No
    SCS-MP2         =     False
    SCSN-MP2        =     False
    SCS-CCSD        =     False

MP2 correlation energy -0.0472448556758052
                Solving CC Amplitude Equations
                ------------------------------
  Iter             Energy              RMS        T1Diag      D1Diag    New D1Diag    D2Diag
  ----     ---------------------    ---------   ----------  ----------  ----------   --------
     0        -0.047244855675805    0.000e+00    0.000000    0.000000    0.000000    0.000000
     1        -0.057707090472176    5.882e-02    0.010054    0.000000    0.000000    0.000000
     2        -0.066023927038361    2.990e-02    0.019532    0.000000    0.000000    0.000000
     3        -0.066359397156688    5.738e-03    0.021128    0.000000    0.000000    0.000000
     4        -0.066530191720074    1.192e-03    0.021356    0.000000    0.000000    0.000000
     5        -0.066494156605121    2.976e-04    0.021299    0.000000    0.000000    0.000000
     6        -0.066496006264643    8.576e-05    0.021283    0.000000    0.000000    0.000000
     7        -0.066497847861522    2.421e-05    0.021281    0.000000    0.000000    0.000000
     8        -0.066497282053336    6.578e-06    0.021280    0.000000    0.000000    0.000000
     9        -0.066497239304006    1.731e-06    0.021280    0.000000    0.000000    0.000000
    10        -0.066497221389175    5.453e-07    0.021280    0.000000    0.000000    0.000000
    11        -0.066497229320786    1.515e-07    0.021280    0.000000    0.000000    0.000000
    12        -0.066497228265142    5.238e-08    0.021280    0.000000    0.000000    0.000000

    Iterations converged.


    Largest TIA Amplitudes:
              0   4        -0.0210417854
              0   2         0.0120366817
              0  10         0.0101743174
              0   3        -0.0072597722
              0   0         0.0043953481
              1  45        -0.0035008189
              1  48         0.0032628563
              0   8        -0.0029292913
              1  51         0.0027408540
              1  46        -0.0021742828

    Largest Tia Amplitudes:
              0   3        -0.0174602284
              0   0         0.0143917898
              0  10         0.0053130790
              0   5         0.0019463065
              0   2        -0.0017370498
              0   8        -0.0004899862
              0  15         0.0002896322
              0  11        -0.0001135981
              0  17         0.0000512577
              0  16        -0.0000361947

    Largest TIJAB Amplitudes:
      1   0  46   3         0.0186880175
      1   0  49   3         0.0127851429
      1   0  67  27         0.0118177464
      1   0  56  35         0.0118177464
      1   0  46   0        -0.0110709727
      1   0  55  35         0.0102184816
      1   0  66  27         0.0102184816
      1   0  46  10        -0.0091772074
      1   0  68  27         0.0082515927
      1   0  57  35         0.0082515927

    Largest TIjAb Amplitudes:
      0   0  56  57        -0.0708430444
      0   0  67  68        -0.0708430444
      0   0  55  57        -0.0630492264
      0   0  66  68        -0.0630492263
      0   0  56  56        -0.0526785828
      0   0  67  67        -0.0526785827
      0   0  57  57        -0.0474470601
      0   0  68  68        -0.0474470601
      0   0  56  58        -0.0472326301
      0   0  67  69        -0.0472326301

    SCF energy       (wfn)                    =  -24.532984074214752
    Reference energy (file100)                =  -24.532984074214795

    Opposite-spin MP2 correlation energy      =   -0.043818340068836
    Same-spin MP2 correlation energy          =   -0.003426515606969
    Singles MP2 correlation energy            =   -0.000000000000000
    MP2 correlation energy                    =   -0.047244855675805
      * MP2 total energy                      =  -24.580228929890602

    Opposite-spin CCSD correlation energy     =   -0.062623856828665
    Same-spin CCSD correlation energy         =   -0.003873371436477
    Singles CCSD correlation energy           =   -0.000000000000000
    CCSD correlation energy                   =   -0.066497228265142
      * CCSD total energy                     =  -24.599481302479937

            **************************
            *                        *
            *        CCTRIPLES       *
            *                        *
            **************************


    Wave function   =    CCSD_T
    Reference wfn   =      UHF

    Nuclear Rep. energy (wfn)                =    0.000000000000000
    SCF energy          (wfn)                =  -24.532984074214752
    Reference energy    (file100)            =  -24.532984074214795
    CCSD energy         (file100)            =   -0.066497228265142
    Total CCSD energy   (file100)            =  -24.599481302479937

    Number of ijk index combinations:
    Spin Case AAA:                                   0
    Spin Case BBB:                                   0
    Spin Case AAB:                                   1
    Spin Case ABB:                                   0
    AAA (T) energy                             =    0.000000000000000
    BBB (T) energy                             =    0.000000000000000
    AAB (T) energy                             =   -0.001466177246439
    ABB (T) energy                             =    0.000000000000000
    (T) energy                                   =   -0.001466177246439
      * CCSD(T) total energy                     =  -24.600947479726376


    Psi4 stopped on: Wednesday, 20 January 2021 08:47PM
    Psi4 wall time for execution: 0:00:12.27

*** Psi4 exiting successfully. Buy a developer a beer!
