
    -----------------------------------------------------------------------
          Psi4: An Open-Source Ab Initio Electronic Structure Package
                               Psi4 1.2a1.dev939 

                         Git: Rev {HEAD} fa1ec19 


    R. M. Parrish, L. A. Burns, D. G. A. Smith, A. C. Simmonett,
    A. E. DePrince III, E. G. Hohenstein, U. Bozkaya, A. Yu. Sokolov,
    R. Di Remigio, R. M. Richard, J. F. Gonthier, A. M. James,
    H. R. McAlexander, A. Kumar, M. Saitow, X. Wang, B. P. Pritchard,
    P. Verma, H. F. Schaefer III, K. Patkowski, R. A. King, E. F. Valeev,
    F. A. Evangelista, J. M. Turney, T. D. Crawford, and C. D. Sherrill,
    J. Chem. Theory Comput. 13(7) pp 3185--3197 (2017).
    (doi: 10.1021/acs.jctc.7b00174)

    -----------------------------------------------------------------------


    Psi4 started on: Wednesday, 01 May 2019 06:15PM

    Process ID:   3097
    PSIDATADIR: /home/grueneis/src/psi4/objdir/stage/usr/local/psi4/share/psi4
    Memory:     500.0 MiB
    Threads:    1
    
  ==> Input File <==

--------------------------------------------------------------------------
# Any line starting with the # character is a comment line

memory 32000 mb

molecule molecule {
0 1
N          0.0000000000        0.0000000000       -0.5570422157
N          0.0000000000        0.0000000000        0.5570422157
}

set {
  reference rhf


  basis aug-cc-pv(5+d)z
  scf_type OUT_OF_CORE
  freeze_core true
}

energy('ccsd')
--------------------------------------------------------------------------

  Memory set to  29.802 GiB by Python driver.

*** tstart() called on cqc01
*** at Wed May  1 18:15:49 2019

   => Loading Basis Set <=

    Name: AUG-CC-PV(5+D)Z
    Role: ORBITAL
    Keyword: BASIS
    atoms 1-2 entry N          line   300 file /home/grueneis/src/psi4/objdir/stage/usr/local/psi4/share/psi4/basis/aug-cc-pv_5pd_z.gbs 


         ---------------------------------------------------------
                                   SCF
            by Justin Turney, Rob Parrish, Andy Simmonett
                             and Daniel Smith
                              RHF Reference
                        1 Threads,  30517 MiB Core
         ---------------------------------------------------------

  ==> Geometry <==

    Molecular point group: d2h
    Full point group: D_inf_h

    Geometry (in Angstrom), charge = 0, multiplicity = 1:

       Center              X                  Y                   Z               Mass       
    ------------   -----------------  -----------------  -----------------  -----------------
           N          0.000000000000     0.000000000000    -0.557042215700    14.003074004780
           N          0.000000000000     0.000000000000     0.557042215700    14.003074004780

  Running in d2h symmetry.

  Rotational constants: A = ************  B =      1.93984  C =      1.93984 [cm^-1]
  Rotational constants: A = ************  B =  58155.07191  C =  58155.07191 [MHz]
  Nuclear repulsion =   23.274432789915029

  Charge       = 0
  Multiplicity = 1
  Electrons    = 14
  Nalpha       = 7
  Nbeta        = 7

  ==> Algorithm <==

  SCF Algorithm Type is OUT_OF_CORE.
  DIIS enabled.
  MOM disabled.
  Fractional occupation disabled.
  Guess Type is SAD.
  Energy threshold   = 1.00e-08
  Density threshold  = 1.00e-08
  Integral threshold = 0.00e+00

  ==> Primary Basis <==

  Basis Set: AUG-CC-PV(5+D)Z
    Blend: AUG-CC-PV(5+D)Z
    Number of shells: 54
    Number of basis function: 254
    Number of Cartesian functions: 364
    Spherical Harmonics?: true
    Max angular momentum: 5

  ==> Pre-Iterations <==

   -------------------------------------------------------
    Irrep   Nso     Nmo     Nalpha   Nbeta   Ndocc  Nsocc
   -------------------------------------------------------
     Ag        46      46       0       0       0       0
     B1g       19      19       0       0       0       0
     B2g       31      31       0       0       0       0
     B3g       31      31       0       0       0       0
     Au        19      19       0       0       0       0
     B1u       46      46       0       0       0       0
     B2u       31      31       0       0       0       0
     B3u       31      31       0       0       0       0
   -------------------------------------------------------
    Total     254     254       7       7       7       0
   -------------------------------------------------------

  ==> Integral Setup <==

  ==> DiskJK: Disk-Based J/K Matrices <==

    J tasked:                  Yes
    K tasked:                  Yes
    wK tasked:                  No
    Memory (MB):             22888
    Schwarz Cutoff:          1E-12

  Minimum eigenvalue in the overlap matrix is 6.4906840753E-06.
  Using Symmetric Orthogonalization.

  SCF Guess: Superposition of Atomic Densities via on-the-fly atomic UHF.

  ==> Iterations <==

                        Total Energy        Delta E     RMS |[F,P]|

   @RHF iter   0:  -109.03384939511375   -1.09034e+02   2.45321e-02 
   @RHF iter   1:  -108.97429043681743    5.95590e-02   1.79523e-03 
   @RHF iter   2:  -108.98778230639806   -1.34919e-02   5.45502e-04 DIIS
   @RHF iter   3:  -108.98878408669141   -1.00178e-03   1.18691e-04 DIIS
   @RHF iter   4:  -108.98887269893473   -8.86122e-05   1.51994e-05 DIIS
   @RHF iter   5:  -108.98887379923006   -1.10030e-06   1.60791e-06 DIIS
   @RHF iter   6:  -108.98887382010912   -2.08791e-08   3.64437e-07 DIIS
   @RHF iter   7:  -108.98887382136847   -1.25935e-09   4.33340e-08 DIIS
   @RHF iter   8:  -108.98887382138453   -1.60583e-11   3.09286e-09 DIIS

  ==> Post-Iterations <==

    Orbital Energies (a.u.)
    -----------------------

    Doubly Occupied:                                                      

       1Ag   -15.688980     1B1u  -15.685757     2Ag    -1.459147  
       2B1u   -0.784531     3Ag    -0.632998     1B2u   -0.607314  
       1B3u   -0.607314  

    Virtual:                                                              

       3B1u    0.058395     2B2u    0.085556     2B3u    0.085556  
       4Ag     0.086423     1B3g    0.096232     1B2g    0.096232  
       5Ag     0.116391     2B3g    0.159253     2B2g    0.159253  
       4B1u    0.196055     1B1g    0.278441     6Ag     0.278441  
       7Ag     0.301293     5B1u    0.353295     3B2u    0.353620  
       3B3u    0.353620     1Au     0.356190     6B1u    0.356190  
       3B3g    0.356536     3B2g    0.356536     4B2u    0.400027  
       4B3u    0.400027     7B1u    0.466006     8Ag     0.476273  
       9Ag     0.635106     4B3g    0.639190     4B2g    0.639190  
       5B2u    0.739129     5B3u    0.739129     8B1u    0.788129  
       2B1g    0.833851    10Ag     0.833851     9B1u    0.848222  
       2Au     0.848222     6B2u    0.848980     6B3u    0.848980  
       5B3g    0.914232     5B2g    0.914232     6B2g    0.923169  
       6B3g    0.923169    10B1u    0.927376    11Ag     0.933938  
       3B1g    0.941761    12Ag     0.941761    11B1u    1.061896  
      13Ag     1.148198     7B3u    1.184633     7B2u    1.184633  
      12B1u    1.339160     3Au     1.339160     8B3u    1.378164  
       8B2u    1.378164     7B3g    1.425550     7B2g    1.425550  
      13B1u    1.557071    14B1u    1.767719    14Ag     1.868741  
       8B3g    1.869192     8B2g    1.869192     4B1g    2.027239  
      15Ag     2.027239    16Ag     2.079515     9B2u    2.131262  
       9B3u    2.131262    17Ag     2.158574     5B1g    2.158574  
      10B3u    2.232985    10B2u    2.232985     9B2g    2.342497  
       9B3g    2.342497    11B3u    2.361351    11B2u    2.361351  
      18Ag     2.369580     6B1g    2.369580    12B2u    2.377428  
      12B3u    2.377428    15B1u    2.382375     4Au     2.394195  
      16B1u    2.394195     5Au     2.399233    17B1u    2.399233  
      18B1u    2.413948     6Au     2.413948    19Ag     2.480652  
      10B3g    2.626771    10B2g    2.626771    19B1u    2.818494  
      20Ag     2.837737    11B3g    2.912116    11B2g    2.912116  
      12B2g    2.968040    12B3g    2.968040    21Ag     3.034358  
       7B1g    3.034358    20B1u    3.450211    13B3u    3.511394  
      13B2u    3.511394    13B2g    3.806750    13B3g    3.806750  
      14B2u    3.861682    14B3u    3.861682    21B1u    3.976616  
       7Au     3.976616    22Ag     4.007385    22B1u    4.184898  
      15B3u    4.512850    15B2u    4.512850    23Ag     4.658688  
      24Ag     4.683996     8B1g    4.683996    14B3g    4.998839  
      14B2g    4.998839    15B3g    5.036976    15B2g    5.036976  
      16B2u    5.150570    16B3u    5.150570    17B3u    5.222867  
      17B2u    5.222867    23B1u    5.229286    25Ag     5.237063  
       9B1g    5.237063    24B1u    5.240398     8Au     5.240398  
      10B1g    5.504179    26Ag     5.504179    27Ag     5.545128  
       9Au     5.570127    25B1u    5.570127    16B2g    5.620446  
      16B3g    5.620446    26B1u    5.625188    17B3g    5.629999  
      17B2g    5.629999    18B2u    5.656707    18B3u    5.656707  
      28Ag     5.720340    11B1g    5.720340    10Au     5.733987  
      27B1u    5.733987    19B2u    5.812062    19B3u    5.812062  
      29Ag     5.864606    20B2u    5.934051    20B3u    5.934051  
      18B2g    5.965982    18B3g    5.965982    11Au     5.989057  
      28B1u    5.989057    21B2u    6.293730    21B3u    6.293730  
      19B2g    6.445740    19B3g    6.445740    30Ag     6.490406  
      12B1g    6.490406    29B1u    6.794438    31Ag     6.880488  
      32Ag     7.394239    13B1g    7.394239    20B2g    7.484287  
      20B3g    7.484287    30B1u    7.510658    12Au     7.510658  
      21B2g    7.921470    21B3g    7.921470    31B1u    8.147873  
      32B1u    8.378650    22B2u    8.871940    22B3u    8.871940  
      33Ag     8.921831    33B1u    9.092586    13Au     9.092586  
      34Ag     9.478740    22B2g    9.969138    22B3g    9.969138  
      23B2u   11.889140    23B3u   11.889140    35Ag    11.995780  
      14B1g   11.995780    24B2u   12.230205    24B3u   12.230205  
      36Ag    12.308228    15B1g   12.308228    34B1u   12.346129  
      25B3u   12.380548    25B2u   12.380548    23B3g   12.486992  
      23B2g   12.486992    37Ag    12.630558    26B3u   12.672859  
      26B2u   12.672859    24B2g   12.827626    24B3g   12.827626  
      14Au    13.076015    35B1u   13.076015    25B3g   13.331409  
      25B2g   13.331409    36B1u   13.375532    15Au    13.375532  
      37B1u   13.755078    26B2g   13.864663    26B3g   13.864663  
      38Ag    14.138720    27B2u   14.257808    27B3u   14.257808  
      39Ag    14.379833    28B2u   14.439187    28B3u   14.439187  
      40Ag    14.530289    16B1g   14.530289    29B3u   14.678224  
      29B2u   14.678224    16Au    14.697336    38B1u   14.697336  
      17B1g   14.753994    41Ag    14.753994    27B2g   14.811894  
      27B3g   14.811894    18B1g   15.271177    42Ag    15.271177  
      39B1u   15.322159    28B2g   15.347699    28B3g   15.347699  
      40B1u   15.890128    17Au    15.890128    41B1u   16.346306  
      29B2g   16.761456    29B3g   16.761456    42B1u   16.800569  
      43B1u   17.040607    18Au    17.040607    30B2u   17.083354  
      30B3u   17.083354    19B1g   17.537855    43Ag    17.537855  
      44Ag    18.147400    30B2g   18.203523    30B3g   18.203523  
      44B1u   18.807014    19Au    18.807014    31B2u   19.514816  
      31B3u   19.514816    31B2g   20.978456    31B3g   20.978456  
      45Ag    21.664140    45B1u   22.525920    46Ag    49.364607  
      46B1u   55.188245  

    Final Occupation by Irrep:
             Ag   B1g   B2g   B3g    Au   B1u   B2u   B3u 
    DOCC [     3,    0,    0,    0,    0,    2,    1,    1 ]

  Energy converged.

  @RHF Final Energy:  -108.98887382138453

   => Energetics <=

    Nuclear Repulsion Energy =             23.2744327899150285
    One-Electron Energy =                -193.5945305710951629
    Two-Electron Energy =                  61.3312239597955937
    Total Energy =                       -108.9888738213845301



Properties will be evaluated at   0.000000,   0.000000,   0.000000 Bohr

Properties computed using the SCF density matrix

  Nuclear Dipole Moment: (a.u.)
     X:     0.0000      Y:     0.0000      Z:     0.0000

  Electronic Dipole Moment: (a.u.)
     X:     0.0000      Y:     0.0000      Z:     0.0000

  Dipole Moment: (a.u.)
     X:     0.0000      Y:     0.0000      Z:     0.0000     Total:     0.0000

  Dipole Moment: (Debye)
     X:     0.0000      Y:     0.0000      Z:     0.0000     Total:     0.0000


*** tstop() called on cqc01 at Wed May  1 18:17:12 2019
Module time:
	user time   =      59.24 seconds =       0.99 minutes
	system time =       4.58 seconds =       0.08 minutes
	total time  =         83 seconds =       1.38 minutes
Total time:
	user time   =      59.24 seconds =       0.99 minutes
	system time =       4.58 seconds =       0.08 minutes
	total time  =         83 seconds =       1.38 minutes

*** tstart() called on cqc01
*** at Wed May  1 18:17:12 2019


	Wfn Parameters:
	--------------------
	Wavefunction         = CCSD
	Number of irreps     = 8
	Number of MOs        = 254
	Number of active MOs = 252
	AO-Basis             = NONE
	Semicanonical        = false
	Reference            = RHF
	Print Level          = 1

	IRREP	# MOs	# FZDC	# DOCC	# SOCC	# VIRT	# FZVR
	-----	-----	------	------	------	------	------
	 Ag	   46	    1	    2	    0	    43	    0
	 B1g	   19	    0	    0	    0	    19	    0
	 B2g	   31	    0	    0	    0	    31	    0
	 B3g	   31	    0	    0	    0	    31	    0
	 Au	   19	    0	    0	    0	    19	    0
	 B1u	   46	    1	    1	    0	    44	    0
	 B2u	   31	    0	    1	    0	    30	    0
	 B3u	   31	    0	    1	    0	    30	    0
	Transforming integrals...
	IWL integrals will be deleted.
	(OO|OO)...
	Presorting SO-basis two-electron integrals.
	Sorting File: SO Ints (nn|nn) nbuckets = 1
	Transforming the one-electron integrals and constructing Fock matrices
	Starting first half-transformation.
	Sorting half-transformed integrals.
	First half integral transformation complete.
	Starting second half-transformation.
	Two-electron integral transformation complete.
	(OO|OV)...
	Starting second half-transformation.
	Two-electron integral transformation complete.
	(OO|VV)...
	Starting second half-transformation.
	Two-electron integral transformation complete.
	(OV|OO)...
	Starting first half-transformation.
	Sorting half-transformed integrals.
	First half integral transformation complete.
	Starting second half-transformation.
	Two-electron integral transformation complete.
	(OV|OV)...
	Starting second half-transformation.
	Two-electron integral transformation complete.
	(OV|VV)...
	Starting second half-transformation.
	Two-electron integral transformation complete.
	(VV|OO)...
	Starting first half-transformation.
	Sorting half-transformed integrals.
	First half integral transformation complete.
	Starting second half-transformation.
	Two-electron integral transformation complete.
	(VV|OV)...
	Starting second half-transformation.
	Two-electron integral transformation complete.
	(VV|VV)...
	Starting second half-transformation.
	Two-electron integral transformation complete.
	Frozen core energy     =   -100.86888569132796

	Size of irrep 0 of <ab|cd> integrals:     67.716 (MW) /    541.732 (MB)
	Size of irrep 1 of <ab|cd> integrals:     49.393 (MW) /    395.142 (MB)
	Size of irrep 2 of <ab|cd> integrals:     58.125 (MW) /    465.003 (MB)
	Size of irrep 3 of <ab|cd> integrals:     58.125 (MW) /    465.003 (MB)
	Size of irrep 4 of <ab|cd> integrals:     49.365 (MW) /    394.917 (MB)
	Size of irrep 5 of <ab|cd> integrals:     67.667 (MW) /    541.337 (MB)
	Size of irrep 6 of <ab|cd> integrals:     58.156 (MW) /    465.247 (MB)
	Size of irrep 7 of <ab|cd> integrals:     58.156 (MW) /    465.247 (MB)
	Total:                                   466.703 (MW) /   3733.628 (MB)

	Size of irrep 0 of <ia|bc> integrals:      1.564 (MW) /     12.508 (MB)
	Size of irrep 1 of <ia|bc> integrals:      0.822 (MW) /      6.578 (MB)
	Size of irrep 2 of <ia|bc> integrals:      1.182 (MW) /      9.454 (MB)
	Size of irrep 3 of <ia|bc> integrals:      1.182 (MW) /      9.454 (MB)
	Size of irrep 4 of <ia|bc> integrals:      0.836 (MW) /      6.689 (MB)
	Size of irrep 5 of <ia|bc> integrals:      1.588 (MW) /     12.701 (MB)
	Size of irrep 6 of <ia|bc> integrals:      1.167 (MW) /      9.334 (MB)
	Size of irrep 7 of <ia|bc> integrals:      1.167 (MW) /      9.334 (MB)
	Total:                                     9.506 (MW) /     76.052 (MB)

	Size of irrep 0 of tijab amplitudes:       0.058 (MW) /      0.461 (MB)
	Size of irrep 1 of tijab amplitudes:       0.014 (MW) /      0.112 (MB)
	Size of irrep 2 of tijab amplitudes:       0.015 (MW) /      0.122 (MB)
	Size of irrep 3 of tijab amplitudes:       0.015 (MW) /      0.122 (MB)
	Size of irrep 4 of tijab amplitudes:       0.000 (MW) /      0.000 (MB)
	Size of irrep 5 of tijab amplitudes:       0.033 (MW) /      0.263 (MB)
	Size of irrep 6 of tijab amplitudes:       0.031 (MW) /      0.244 (MB)
	Size of irrep 7 of tijab amplitudes:       0.031 (MW) /      0.244 (MB)
	Total:                                     0.196 (MW) /      1.569 (MB)

	Nuclear Rep. energy          =     23.27443278991503
	SCF energy                   =   -108.98887382138453
	One-electron energy          =    -54.60623203955738
	Two-electron energy          =     23.21181111958592
	Reference energy             =   -108.98887382138440

*** tstop() called on cqc01 at Wed May  1 18:21:32 2019
Module time:
	user time   =      24.57 seconds =       0.41 minutes
	system time =      13.30 seconds =       0.22 minutes
	total time  =        260 seconds =       4.33 minutes
Total time:
	user time   =      83.81 seconds =       1.40 minutes
	system time =      17.88 seconds =       0.30 minutes
	total time  =        343 seconds =       5.72 minutes

*** tstart() called on cqc01
*** at Wed May  1 18:21:32 2019

            **************************
            *                        *
            *        CCENERGY        *
            *                        *
            **************************

    Nuclear Rep. energy (wfn)     =   23.274432789915029
    SCF energy          (wfn)     = -108.988873821384530
    Reference energy    (file100) = -108.988873821384402

    Input parameters:
    -----------------
    Wave function   =     CCSD
    Reference wfn   =     RHF
    Brueckner       =     No
    Memory (Mbytes) =     32000.0
    Maxiter         =     50
    R_Convergence   =     1.0e-07
    E_Convergence   =     1.0e-06
    Restart         =     Yes
    DIIS            =     Yes
    AO Basis        =     NONE
    ABCD            =     NEW
    Cache Level     =     2
    Cache Type      =     LOW
    Print Level     =     1
    Num. of threads =     1
    # Amps to Print =     10
    Print MP2 Amps? =     No
    Analyze T2 Amps =     No
    Print Pair Ener =     No
    Local CC        =     No
    SCS-MP2         =     False
    SCSN-MP2        =     False
    SCS-CCSD        =     False

MP2 correlation energy -0.4151743053391185
                Solving CC Amplitude Equations
                ------------------------------
  Iter             Energy              RMS        T1Diag      D1Diag    New D1Diag    D2Diag
  ----     ---------------------    ---------   ----------  ----------  ----------   --------
     0        -0.415174305339112    0.000e+00    0.000000    0.000000    0.000000    0.169430
     1        -0.405239058468996    3.053e-01    0.026281    0.053829    0.053829    0.181783
     2        -0.414677607929491    5.166e-02    0.014739    0.029289    0.029289    0.182438
     3        -0.404273026167705    1.355e-02    0.014731    0.029565    0.029565    0.175582
     4        -0.404891574656393    2.825e-03    0.014140    0.028346    0.028346    0.175536
     5        -0.404544334167211    9.104e-04    0.013984    0.028052    0.028052    0.175062
     6        -0.404531456031670    2.355e-04    0.013954    0.028009    0.028009    0.174954
     7        -0.404527674580336    5.847e-05    0.013953    0.028009    0.028009    0.174929
     8        -0.404522936253644    1.920e-05    0.013951    0.028008    0.028008    0.174918
     9        -0.404522636800999    5.136e-06    0.013951    0.028008    0.028008    0.174916
    10        -0.404522494928982    1.429e-06    0.013951    0.028008    0.028008    0.174915
    11        -0.404522479161195    3.685e-07    0.013951    0.028008    0.028008    0.174915
    12        -0.404522470850588    1.046e-07    0.013951    0.028008    0.028008    0.174915
    13        -0.404522471429919    3.126e-08    0.013951    0.028008    0.028008    0.174915
    13        -0.404522471429919    3.126e-08    0.013951    0.028008    0.028008    0.174915

    Iterations converged.


    CCSD corr. energy   =   -0.404522471429919
    PPL corr. energy    =    0.111728600913171
    OS PPL corr. energy =    0.093366903957702
    SS PPL corr. energy =    0.018361696955468
    Largest TIA Amplitudes:
              3 193         0.0163429738
              4 223         0.0163429738
              3 189         0.0160749882
              4 219         0.0160749882
              2 148        -0.0089493642
              3 187         0.0087037754
              4 217         0.0087037754
              1   0         0.0077865356
              3 191         0.0068175643
              4 221         0.0068175643

    Largest TIjAb Amplitudes:
      3   3  94  94        -0.0980022250
      4   4  63  63        -0.0980022250
      3   4  94  63        -0.0598285656
      4   3  63  94        -0.0598285656
      3   3  93  94        -0.0506905653
      3   3  94  93        -0.0506905653
      4   4  62  63        -0.0506905653
      4   4  63  62        -0.0506905653
      3   3  94  95        -0.0442684268
      3   3  95  94        -0.0442684268

    SCF energy       (wfn)                    = -108.988873821384530
    Reference energy (file100)                = -108.988873821384402

    Opposite-spin MP2 correlation energy      =   -0.313310443256016
    Same-spin MP2 correlation energy          =   -0.101863862083096
    MP2 correlation energy                    =   -0.415174305339118
      * MP2 total energy                      = -109.404048126723524

    Opposite-spin CCSD correlation energy     =   -0.320790935249473
    Same-spin CCSD correlation energy         =   -0.083731533117182
    CCSD correlation energy                   =   -0.404522471429919
      * CCSD total energy                     = -109.393396292814316


*** tstop() called on cqc01 at Wed May  1 18:23:45 2019
Module time:
	user time   =       8.16 seconds =       0.14 minutes
	system time =      19.05 seconds =       0.32 minutes
	total time  =        133 seconds =       2.22 minutes
Total time:
	user time   =      91.97 seconds =       1.53 minutes
	system time =      36.93 seconds =       0.62 minutes
	total time  =        476 seconds =       7.93 minutes

*** Psi4 exiting successfully. Buy a developer a beer!
