
    -----------------------------------------------------------------------
          Psi4: An Open-Source Ab Initio Electronic Structure Package
                               Psi4 1.2a1.dev938 

                         Git: Rev {HEAD} fc51d9a dirty


    R. M. Parrish, L. A. Burns, D. G. A. Smith, A. C. Simmonett,
    A. E. DePrince III, E. G. Hohenstein, U. Bozkaya, A. Yu. Sokolov,
    R. Di Remigio, R. M. Richard, J. F. Gonthier, A. M. James,
    H. R. McAlexander, A. Kumar, M. Saitow, X. Wang, B. P. Pritchard,
    P. Verma, H. F. Schaefer III, K. Patkowski, R. A. King, E. F. Valeev,
    F. A. Evangelista, J. M. Turney, T. D. Crawford, and C. D. Sherrill,
    J. Chem. Theory Comput. 13(7) pp 3185--3197 (2017).
    (doi: 10.1021/acs.jctc.7b00174)

    -----------------------------------------------------------------------


    Psi4 started on: Thursday, 20 August 2020 08:01PM

    Process ID: 423479
    PSIDATADIR: /home/irmler/Programs/psi4/beforeGrueneis3/stage/usr/local/psi4/share/psi4
    Memory:     500.0 MiB
    Threads:    4
    
  ==> Input File <==

--------------------------------------------------------------------------
# Any line starting with the # character is a comment line
memory 250000 mb
molecule molecule{
1 2
F          0.0000000000        0.0000000000        0.0504971356
H          0.0000000000        0.0000000000       -0.9518075795
}

set {
  reference uhf
  basis aug-cc-pv(t+d)z
  scf_type OUT_OF_CORE
  freeze_core true
}

energy('ccsd')
--------------------------------------------------------------------------

  Memory set to 232.831 GiB by Python driver.

*** tstart() called on cqc05
*** at Thu Aug 20 20:01:51 2020

   => Loading Basis Set <=

    Name: AUG-CC-PV(T+D)Z
    Role: ORBITAL
    Keyword: BASIS
    atoms 1 entry F          line   393 file /home/irmler/Programs/psi4/beforeGrueneis3/stage/usr/local/psi4/share/psi4/basis/aug-cc-pv_tpd_z.gbs 
    atoms 2 entry H          line    56 file /home/irmler/Programs/psi4/beforeGrueneis3/stage/usr/local/psi4/share/psi4/basis/aug-cc-pv_tpd_z.gbs 


         ---------------------------------------------------------
                                   SCF
            by Justin Turney, Rob Parrish, Andy Simmonett
                             and Daniel Smith
                              UHF Reference
                        4 Threads, 238418 MiB Core
         ---------------------------------------------------------

  ==> Geometry <==

    Molecular point group: c2v
    Full point group: C_inf_v

    Geometry (in Angstrom), charge = 1, multiplicity = 2:

       Center              X                  Y                   Z               Mass       
    ------------   -----------------  -----------------  -----------------  -----------------
           F          0.000000000000     0.000000000000     0.050491665331    18.998403224000
           H          0.000000000000     0.000000000000    -0.951813049769     1.007825032070

  Running in c2v symmetry.

  Rotational constants: A = ************  B =     17.53315  C =     17.53315 [cm^-1]
  Rotational constants: A = ************  B = 525630.58383  C = 525630.58383 [MHz]
  Nuclear repulsion =    4.751643692342439

  Charge       = 1
  Multiplicity = 2
  Electrons    = 9
  Nalpha       = 5
  Nbeta        = 4

  ==> Algorithm <==

  SCF Algorithm Type is OUT_OF_CORE.
  DIIS enabled.
  MOM disabled.
  Fractional occupation disabled.
  Guess Type is GWH.
  Energy threshold   = 1.00e-08
  Density threshold  = 1.00e-08
  Integral threshold = 0.00e+00

  ==> Primary Basis <==

  Basis Set: AUG-CC-PV(T+D)Z
    Blend: AUG-CC-PV(T+D)Z
    Number of shells: 23
    Number of basis function: 69
    Number of Cartesian functions: 80
    Spherical Harmonics?: true
    Max angular momentum: 3

  ==> Pre-Iterations <==

   -------------------------------------------------------
    Irrep   Nso     Nmo     Nalpha   Nbeta   Ndocc  Nsocc
   -------------------------------------------------------
     A1        30      30       0       0       0       0
     A2         7       7       0       0       0       0
     B1        16      16       0       0       0       0
     B2        16      16       0       0       0       0
   -------------------------------------------------------
    Total      69      69       5       4       4       1
   -------------------------------------------------------

  ==> Integral Setup <==

  ==> DiskJK: Disk-Based J/K Matrices <==

    J tasked:                  Yes
    K tasked:                  Yes
    wK tasked:                  No
    Memory (MB):            178813
    Schwarz Cutoff:          1E-12

  Minimum eigenvalue in the overlap matrix is 4.6162080534E-04.
  Using Symmetric Orthogonalization.

  SCF Guess: Generalized Wolfsberg-Helmholtz.

  ==> Iterations <==

                        Total Energy        Delta E     RMS |[F,P]|

   @UHF iter   1:   -94.26402400242611   -9.42640e+01   2.62272e-01 
   @UHF iter   2:   -97.44546487804632   -3.18144e+00   1.04252e-01 DIIS
   @UHF iter   3:   -99.35052273600930   -1.90506e+00   3.66756e-02 DIIS
   @UHF iter   4:   -99.53268483739939   -1.82162e-01   5.45338e-03 DIIS
   @UHF iter   5:   -99.53727798110756   -4.59314e-03   5.03101e-04 DIIS
   @UHF iter   6:   -99.53735219344239   -7.42123e-05   1.23807e-04 DIIS
   @UHF iter   7:   -99.53736066967090   -8.47623e-06   4.57754e-05 DIIS
   @UHF iter   8:   -99.53736260564654   -1.93598e-06   1.58304e-05 DIIS
   @UHF iter   9:   -99.53736281512148   -2.09475e-07   2.61778e-06 DIIS
   @UHF iter  10:   -99.53736282063532   -5.51384e-09   5.02962e-07 DIIS
   @UHF iter  11:   -99.53736282068489   -4.95675e-11   4.35587e-08 DIIS
   @UHF iter  12:   -99.53736282068550   -6.11067e-13   6.02557e-09 DIIS

  ==> Post-Iterations <==

   @Spin Contamination Metric:   5.093834241E-03
   @S^2 Expected:                7.500000000E-01
   @S^2 Observed:                7.550938342E-01
   @S   Expected:                5.000000000E-01
   @S   Observed:                5.000000000E-01

    Orbital Energies (a.u.)
    -----------------------

    Alpha Occupied:                                                       

       1A1   -26.967394     2A1    -2.230089     1B2    -1.365597  
       3A1    -1.330673     1B1    -1.249085  

    Alpha Virtual:                                                        

       4A1    -0.226457     5A1    -0.090657     2B2    -0.062679  
       2B1    -0.052504     6A1    -0.036788     3B2     0.040724  
       3B1     0.045427     7A1     0.048008     8A1     0.132007  
       9A1     0.355413     1A2     0.406512    10A1     0.407055  
       4B2     0.532421     4B1     0.543092    11A1     0.640363  
       5B2     0.652629     5B1     0.671439     6B2     0.680148  
      12A1     0.714469     6B1     0.716315     2A2     0.720901  
      13A1     0.732738    14A1     0.798318     7B2     1.273123  
       7B1     1.287979    15A1     1.459883    16A1     1.876349  
       3A2     2.276909    17A1     2.277101     8B2     2.330629  
       8B1     2.379790     9B2     2.447711     9B1     2.447722  
      18A1     2.467774    19A1     2.635558     4A2     2.644649  
      20A1     2.662034    10B2     3.101856    10B1     3.132722  
      21A1     3.500553     5A2     3.626319    22A1     3.627091  
      11B2     3.827459    11B1     3.834577    12B2     4.181513  
      12B1     4.242224    23A1     4.267015    24A1     4.955138  
      13B2     5.195714    13B1     5.251200    25A1     6.988623  
      14B2     8.208862    14B1     8.209014    26A1     8.318119  
       6A2     8.319384    15B2     8.568605    15B1     8.634409  
      27A1     8.684367     7A2     8.687456    28A1     8.796862  
      16B2     8.881662    16B1     8.959994    29A1     9.176754  
      30A1    13.050781  

    Beta Occupied:                                                        

       1A1   -26.915242     2A1    -2.034969     3A1    -1.277701  
       1B1    -1.194662  

    Beta Virtual:                                                         

       1B2    -0.415281     4A1    -0.217966     5A1    -0.088265  
       2B1    -0.050569     6A1    -0.033871     2B2    -0.027717  
       3B2     0.042640     3B1     0.044897     7A1     0.051369  
       8A1     0.136625     9A1     0.357432     1A2     0.417432  
      10A1     0.417654     4B1     0.541520     4B2     0.543624  
      11A1     0.642724     5B1     0.672362     5B2     0.674439  
       6B1     0.727647    12A1     0.730244     2A2     0.731435  
      13A1     0.739297     6B2     0.799128    14A1     0.810647  
       7B2     1.280789     7B1     1.287296    15A1     1.473026  
      16A1     1.896012     3A2     2.348371    17A1     2.348655  
       8B1     2.388268     8B2     2.410688     9B1     2.469679  
       9B2     2.469681    18A1     2.485022    19A1     2.669878  
       4A2     2.672091    20A1     2.680832    10B2     3.121733  
      10B1     3.133616    21A1     3.508822     5A2     3.629622  
      22A1     3.629814    11B2     3.826235    11B1     3.831443  
      12B1     4.257354    23A1     4.280368    12B2     4.288674  
      24A1     4.965521    13B1     5.265507    13B2     5.291086  
      25A1     7.013560    14B2     8.273161    14B1     8.273168  
      26A1     8.367315     6A2     8.367474    15B2     8.626619  
      15B1     8.646506     7A2     8.799172    27A1     8.799327  
      28A1     8.821922    16B1     8.981461    16B2     8.989275  
      29A1     9.218815    30A1    13.095705  

    Final Occupation by Irrep:
             A1    A2    B1    B2 
    DOCC [     3,    0,    1,    0 ]
    SOCC [     0,    0,    0,    1 ]

  Energy converged.

  @UHF Final Energy:   -99.53736282068550

   => Energetics <=

    Nuclear Repulsion Energy =              4.7516436923424390
    One-Electron Energy =                -144.0126006388049404
    Two-Electron Energy =                  39.7235941257770051
    PCM Polarization Energy =               0.0000000000000000
    Total Energy =                        -99.5373628206855017

    Alert: EFP and PCM quantities not currently incorporated into SCF psivars.
  UHF NO Occupations:
  HONO-2 :    2 A1 1.9993623
  HONO-1 :    3 A1 1.9983320
  HONO-0 :    1 B2 1.0000000
  LUNO+0 :    4 A1 0.0016680
  LUNO+1 :    5 A1 0.0006377
  LUNO+2 :    2 B1 0.0002418
  LUNO+3 :    6 A1 0.0000010



Properties will be evaluated at   0.000000,   0.000000,   0.000000 Bohr

Properties computed using the SCF density matrix

  Nuclear Dipole Moment: (a.u.)
     X:     0.0000      Y:     0.0000      Z:    -0.9399

  Electronic Dipole Moment: (a.u.)
     X:     0.0000      Y:     0.0000      Z:    -0.1175

  Dipole Moment: (a.u.)
     X:     0.0000      Y:     0.0000      Z:    -1.0574     Total:     1.0574

  Dipole Moment: (Debye)
     X:     0.0000      Y:     0.0000      Z:    -2.6877     Total:     2.6877


*** tstop() called on cqc05 at Thu Aug 20 20:01:51 2020
Module time:
	user time   =       1.01 seconds =       0.02 minutes
	system time =       0.03 seconds =       0.00 minutes
	total time  =          0 seconds =       0.00 minutes
Total time:
	user time   =       1.01 seconds =       0.02 minutes
	system time =       0.03 seconds =       0.00 minutes
	total time  =          0 seconds =       0.00 minutes

*** tstart() called on cqc05
*** at Thu Aug 20 20:01:51 2020


	Wfn Parameters:
	--------------------
	Wavefunction         = CCSD
	Number of irreps     = 4
	Number of MOs        = 69
	Number of active MOs = 68
	AO-Basis             = NONE
	Semicanonical        = false
	Reference            = UHF
	Print Level          = 1

	IRREP	# MOs	# FZDC	# DOCC	# SOCC	# VIRT	# FZVR
	-----	-----	------	------	------	------	------
	 A1	   30	    1	    2	    0	    27	    0
	 A2	   7	    0	    0	    0	    7	    0
	 B1	   16	    0	    1	    0	    15	    0
	 B2	   16	    0	    0	    1	    15	    0
	Transforming integrals...
	IWL integrals will be deleted.
	(OO|OO)...
	Presorting SO-basis two-electron integrals.
	Sorting File: SO Ints (nn|nn) nbuckets = 1
	Transforming the one-electron integrals and constructing Fock matrices
	Starting AA/AB first half-transformation.
	Sorting AA/AB half-transformed integrals.
	Starting BB first half-transformation.
	Sorting BB half-transformed integrals.
	First half integral transformation complete.
	Starting AA second half-transformation.
	Starting AB second half-transformation.
	Starting BB second half-transformation.
	Two-electron integral transformation complete.
	(OO|OV)...
	Starting AA second half-transformation.
	Starting AB second half-transformation.
	Starting BB second half-transformation.
	Two-electron integral transformation complete.
	(OO|VV)...
	Starting AA second half-transformation.
	Starting AB second half-transformation.
	Starting BB second half-transformation.
	Two-electron integral transformation complete.
	(OV|OO)...
	Starting AA/AB first half-transformation.
	Sorting AA/AB half-transformed integrals.
	Starting BB first half-transformation.
	Sorting BB half-transformed integrals.
	First half integral transformation complete.
	Starting AA second half-transformation.
	Starting AB second half-transformation.
	Starting BB second half-transformation.
	Two-electron integral transformation complete.
	(OV|OV)...
	Starting AA second half-transformation.
	Starting AB second half-transformation.
	Starting BB second half-transformation.
	Two-electron integral transformation complete.
	(OV|VV)...
	Starting AA second half-transformation.
	Starting AB second half-transformation.
	Starting BB second half-transformation.
	Two-electron integral transformation complete.
	(VV|OO)...
	Starting AA/AB first half-transformation.
	Sorting AA/AB half-transformed integrals.
	Starting BB first half-transformation.
	Sorting BB half-transformed integrals.
	First half integral transformation complete.
	Starting AA second half-transformation.
	Starting AB second half-transformation.
	Starting BB second half-transformation.
	Two-electron integral transformation complete.
	(VV|OV)...
	Starting AA second half-transformation.
	Starting AB second half-transformation.
	Starting BB second half-transformation.
	Two-electron integral transformation complete.
	(VV|VV)...
	Starting AA second half-transformation.
	Starting AB second half-transformation.
	Starting BB second half-transformation.
	Two-electron integral transformation complete.
	Frozen core energy     =    -76.53398278814797

	Size of irrep 0 of <AB|CD> integrals:      0.339 (MW) /      2.710 (MB)
	Size of irrep 1 of <AB|CD> integrals:      0.171 (MW) /      1.371 (MB)
	Size of irrep 2 of <AB|CD> integrals:      0.260 (MW) /      2.081 (MB)
	Size of irrep 3 of <AB|CD> integrals:      0.260 (MW) /      2.081 (MB)
	Total:                                     1.030 (MW) /      8.243 (MB)

	Size of irrep 0 of <ab|cd> integrals:      0.356 (MW) /      2.851 (MB)
	Size of irrep 1 of <ab|cd> integrals:      0.184 (MW) /      1.472 (MB)
	Size of irrep 2 of <ab|cd> integrals:      0.267 (MW) /      2.138 (MB)
	Size of irrep 3 of <ab|cd> integrals:      0.288 (MW) /      2.307 (MB)
	Total:                                     1.096 (MW) /      8.769 (MB)

	Size of irrep 0 of <Ab|Cd> integrals:      1.545 (MW) /     12.360 (MB)
	Size of irrep 1 of <Ab|Cd> integrals:      0.711 (MW) /      5.685 (MB)
	Size of irrep 2 of <Ab|Cd> integrals:      1.055 (MW) /      8.438 (MB)
	Size of irrep 3 of <Ab|Cd> integrals:      1.096 (MW) /      8.770 (MB)
	Total:                                     4.407 (MW) /     35.253 (MB)

	Size of irrep 0 of <IA|BC> integrals:      0.103 (MW) /      0.825 (MB)
	Size of irrep 1 of <IA|BC> integrals:      0.036 (MW) /      0.291 (MB)
	Size of irrep 2 of <IA|BC> integrals:      0.065 (MW) /      0.522 (MB)
	Size of irrep 3 of <IA|BC> integrals:      0.065 (MW) /      0.522 (MB)
	Total:                                     0.270 (MW) /      2.161 (MB)

	Size of irrep 0 of <ia|bc> integrals:      0.087 (MW) /      0.695 (MB)
	Size of irrep 1 of <ia|bc> integrals:      0.026 (MW) /      0.206 (MB)
	Size of irrep 2 of <ia|bc> integrals:      0.059 (MW) /      0.472 (MB)
	Size of irrep 3 of <ia|bc> integrals:      0.042 (MW) /      0.335 (MB)
	Total:                                     0.213 (MW) /      1.707 (MB)

	Size of irrep 0 of <Ia|Bc> integrals:      0.106 (MW) /      0.845 (MB)
	Size of irrep 1 of <Ia|Bc> integrals:      0.038 (MW) /      0.303 (MB)
	Size of irrep 2 of <Ia|Bc> integrals:      0.066 (MW) /      0.526 (MB)
	Size of irrep 3 of <Ia|Bc> integrals:      0.069 (MW) /      0.553 (MB)
	Total:                                     0.278 (MW) /      2.227 (MB)

	Size of irrep 0 of <iA|bC> integrals:      0.086 (MW) /      0.686 (MB)
	Size of irrep 1 of <iA|bC> integrals:      0.024 (MW) /      0.196 (MB)
	Size of irrep 2 of <iA|bC> integrals:      0.059 (MW) /      0.468 (MB)
	Size of irrep 3 of <iA|bC> integrals:      0.039 (MW) /      0.310 (MB)
	Total:                                     0.207 (MW) /      1.660 (MB)

	Size of irrep 0 of tIjAb amplitudes:       0.006 (MW) /      0.050 (MB)
	Size of irrep 1 of tIjAb amplitudes:       0.001 (MW) /      0.007 (MB)
	Size of irrep 2 of tIjAb amplitudes:       0.004 (MW) /      0.033 (MB)
	Size of irrep 3 of tIjAb amplitudes:       0.002 (MW) /      0.017 (MB)
	Total:                                     0.013 (MW) /      0.106 (MB)

	Nuclear Rep. energy          =      4.75164369234244
	SCF energy                   =    -99.53736282068550
	One-electron energy          =    -44.82727163838005
	Two-electron (AA) energy     =      4.53228526593410
	Two-electron (BB) energy     =      2.12081452738801
	Two-electron (AB) energy     =     10.41914812017787
	Two-electron energy          =     17.07224791349997
	Reference energy             =    -99.53736282068562

*** tstop() called on cqc05 at Thu Aug 20 20:01:52 2020
Module time:
	user time   =       0.48 seconds =       0.01 minutes
	system time =       0.26 seconds =       0.00 minutes
	total time  =          1 seconds =       0.02 minutes
Total time:
	user time   =       1.49 seconds =       0.02 minutes
	system time =       0.29 seconds =       0.00 minutes
	total time  =          1 seconds =       0.02 minutes

*** tstart() called on cqc05
*** at Thu Aug 20 20:01:52 2020

            **************************
            *                        *
            *        CCENERGY        *
            *                        *
            **************************

    Nuclear Rep. energy (wfn)     =    4.751643692342439
    SCF energy          (wfn)     =  -99.537362820685502
    Reference energy    (file100) =  -99.537362820685615

    Input parameters:
    -----------------
    Wave function   =     CCSD
    Reference wfn   =     UHF
    Brueckner       =     No
    Memory (Mbytes) =     250000.0
    Maxiter         =     50
    R_Convergence   =     1.0e-07
    E_Convergence   =     1.0e-06
    Restart         =     Yes
    DIIS            =     Yes
    AO Basis        =     NONE
    ABCD            =     NEW
    Cache Level     =     2
    Cache Type      =     LRU
    Print Level     =     1
    Num. of threads =     4
    # Amps to Print =     10
    Print MP2 Amps? =     No
    Analyze T2 Amps =     No
    Print Pair Ener =     No
    Local CC        =     No
    SCS-MP2         =     False
    SCSN-MP2        =     False
    SCS-CCSD        =     False

MP2 correlation energy -0.2071792710301160
                Solving CC Amplitude Equations
                ------------------------------
  Iter             Energy              RMS        T1Diag      D1Diag    New D1Diag    D2Diag
  ----     ---------------------    ---------   ----------  ----------  ----------   --------
     0        -0.207179271030116    0.000e+00    0.000000    0.000000    0.000000    0.000000
     1        -0.215897271111613    2.969e-02    0.007968    0.000000    0.000000    0.000000
     2        -0.219347894323180    9.272e-03    0.009084    0.000000    0.000000    0.000000
     3        -0.220001892770587    4.191e-03    0.010244    0.000000    0.000000    0.000000
     4        -0.219946056358126    1.573e-03    0.010403    0.000000    0.000000    0.000000
     5        -0.219972671846148    6.305e-04    0.010412    0.000000    0.000000    0.000000
     6        -0.219984948160190    1.969e-04    0.010398    0.000000    0.000000    0.000000
     7        -0.219983451931693    6.179e-05    0.010393    0.000000    0.000000    0.000000
     8        -0.219983384248689    2.099e-05    0.010394    0.000000    0.000000    0.000000
     9        -0.219983207488272    6.677e-06    0.010395    0.000000    0.000000    0.000000
    10        -0.219983265606474    2.166e-06    0.010395    0.000000    0.000000    0.000000
    11        -0.219983300590880    6.230e-07    0.010395    0.000000    0.000000    0.000000
    12        -0.219983315766541    1.766e-07    0.010395    0.000000    0.000000    0.000000
    13        -0.219983317726695    4.756e-08    0.010395    0.000000    0.000000    0.000000
    13        -0.219983317726695    4.756e-08    0.010395    0.000000    0.000000    0.000000

    Iterations converged.


    CCSD corr. energy   =   -0.219983317726695
    PPL corr. energy    =    0.037772469332697
    OS PPL corr. energy =    0.031558019492587
    SS PPL corr. energy =    0.006214449840110
    Largest TIA Amplitudes:
              1   0         0.0105577727
              3  49        -0.0077431885
              2  34        -0.0077368153
              1   1         0.0066450638
              1   4        -0.0055439543
              2  38        -0.0045989258
              3  52        -0.0040094143
              0   0        -0.0038579770
              3  53        -0.0035143593
              1   5         0.0034840004

    Largest Tia Amplitudes:
              2  34        -0.0069133741
              1   0         0.0061284593
              1   1         0.0041898588
              0  13        -0.0038470181
              1  19        -0.0037270029
              2  38        -0.0029107425
              1   4        -0.0027780775
              0  11         0.0026643664
              0   6         0.0026594246
              1   5         0.0025941786

    Largest TIJAB Amplitudes:
      3   2  53  38        -0.0129291992
      3   2  29  13         0.0124058041
      2   1  38  10         0.0109236855
      3   1  53  10         0.0093115094
      2   1  38   0         0.0090593360
      2   1  38   4        -0.0085593429
      3   2  52  38        -0.0084200912
      2   1  40  16         0.0083559187
      3   1  52   0         0.0082588767
      3   2  49  38        -0.0079635950

    Largest Tijab Amplitudes:
      2   1  38  10         0.0113372678
      2   0  49  29         0.0105299655
      1   0  56  49        -0.0102260451
      2   1  38   0         0.0097555921
      2   1  38   4        -0.0094781286
      2   0  49  27         0.0081860760
      2   1  38   1         0.0080263229
      2   1  34   0         0.0077802298
      1   0  53  49        -0.0074716321
      1   0  52  49        -0.0073141274

    Largest TIjAb Amplitudes:
      1   1   0   0        -0.0316973497
      2   2  38  38        -0.0291213918
      1   1   0   4         0.0238122203
      3   0  13  49        -0.0234547742
      2   0  29  49        -0.0231753627
      1   1   4   0         0.0224472959
      1   0  55  49        -0.0218365042
      1   1   0   1        -0.0204965533
      1   1   1   0        -0.0193559223
      1   1   4   4        -0.0193548065

    SCF energy       (wfn)                    =  -99.537362820685502
    Reference energy (file100)                =  -99.537362820685615

    Opposite-spin MP2 correlation energy      =   -0.158456454315551
    Same-spin MP2 correlation energy          =   -0.048722816714562
    MP2 correlation energy                    =   -0.207179271030116
      * MP2 total energy                      =  -99.744542091715729

    Opposite-spin CCSD correlation energy     =   -0.173212184043123
    Same-spin CCSD correlation energy         =   -0.046771133829026
    CCSD correlation energy                   =   -0.219983317726695
      * CCSD total energy                     =  -99.757346138412316


*** tstop() called on cqc05 at Thu Aug 20 20:01:54 2020
Module time:
	user time   =       0.63 seconds =       0.01 minutes
	system time =       0.34 seconds =       0.01 minutes
	total time  =          2 seconds =       0.03 minutes
Total time:
	user time   =       2.12 seconds =       0.04 minutes
	system time =       0.63 seconds =       0.01 minutes
	total time  =          3 seconds =       0.05 minutes

*** Psi4 exiting successfully. Buy a developer a beer!
