
    -----------------------------------------------------------------------
          Psi4: An Open-Source Ab Initio Electronic Structure Package
                               Psi4 1.4a3.dev88 

                         Git: Rev {master} 262e345 


    D. G. A. Smith, L. A. Burns, A. C. Simmonett, R. M. Parrish,
    M. C. Schieber, R. Galvelis, P. Kraus, H. Kruse, R. Di Remigio,
    A. Alenaizan, A. M. James, S. Lehtola, J. P. Misiewicz, M. Scheurer,
    R. A. Shaw, J. B. Schriber, Y. Xie, Z. L. Glick, D. A. Sirianni,
    J. S. O'Brien, J. M. Waldrop, A. Kumar, E. G. Hohenstein,
    B. P. Pritchard, B. R. Brooks, H. F. Schaefer III, A. Yu. Sokolov,
    K. Patkowski, A. E. DePrince III, U. Bozkaya, R. A. King,
    F. A. Evangelista, J. M. Turney, T. D. Crawford, C. D. Sherrill,
    J. Chem. Phys. 152(18) 184108 (2020). https://doi.org/10.1063/5.0006002

                            Additional Code Authors
    E. T. Seidl, C. L. Janssen, E. F. Valeev, M. L. Leininger,
    J. F. Gonthier, R. M. Richard, H. R. McAlexander, M. Saitow, X. Wang,
    P. Verma, and M. H. Lechner

             Previous Authors, Complete List of Code Contributors,
                       and Citations for Specific Modules
    https://github.com/psi4/psi4/blob/master/codemeta.json
    https://github.com/psi4/psi4/graphs/contributors
    http://psicode.org/psi4manual/master/introduction.html#citing-psifour

    -----------------------------------------------------------------------


    Psi4 started on: Friday, 22 January 2021 10:54AM

    Process ID: 86612
    Host:       n412-045.vsc4.prov
    PSIDATADIR: /home/fs71337/gallo4/psi4/psi4/build/stage/share/psi4
    Memory:     500.0 MiB
    Threads:    48
    
  ==> Input File <==

--------------------------------------------------------------------------
# Any line starting with the # character is a comment line
memory 250000 mb
molecule molecule{
0 2
Si         0.0000000000        0.0000000000        0.0525562661
H          0.0000000000        0.0000000000       -1.4644413475
}

set {
  reference uhf
  basis aug-cc-pV(5+d)Z
  scf_type OUT_OF_CORE
  freeze_core true
}

energy('ccsd(t)')
--------------------------------------------------------------------------

  Memory set to 232.831 GiB by Python driver.

Scratch directory: /binfl/lv71337/airmler/temp/

*** tstart() called on n412-045.vsc4.prov
*** at Fri Jan 22 10:54:06 2021

   => Loading Basis Set <=

    Name: AUG-CC-PV(5+D)Z
    Role: ORBITAL
    Keyword: BASIS
    atoms 1 entry SI         line  1209 file /home/fs71337/gallo4/psi4/psi4/build/stage/share/psi4/basis/aug-cc-pv_5pd_z.gbs 
    atoms 2 entry H          line    69 file /home/fs71337/gallo4/psi4/psi4/build/stage/share/psi4/basis/aug-cc-pv_5pd_z.gbs 


         ---------------------------------------------------------
                                   SCF
               by Justin Turney, Rob Parrish, Andy Simmonett
                          and Daniel G. A. Smith
                              UHF Reference
                       48 Threads, 238418 MiB Core
         ---------------------------------------------------------

  ==> Geometry <==

    Molecular point group: c2v
    Full point group: C_inf_v

    Geometry (in Angstrom), charge = 0, multiplicity = 2:

       Center              X                  Y                   Z               Mass       
    ------------   -----------------  -----------------  -----------------  -----------------
         SI           0.000000000000     0.000000000000     0.052747326997    27.976926534650
         H            0.000000000000     0.000000000000    -1.464250286603     1.007825032230

  Running in c2v symmetry.

  Rotational constants: A = ************  B =      7.53028  C =      7.53028 [cm^-1]
  Rotational constants: A = ************  B = 225752.12288  C = 225752.12288 [MHz]
  Nuclear repulsion =    4.883647069027927

  Charge       = 0
  Multiplicity = 2
  Electrons    = 15
  Nalpha       = 8
  Nbeta        = 7

  ==> Algorithm <==

  SCF Algorithm Type is OUT_OF_CORE.
  DIIS enabled.
  MOM disabled.
  Fractional occupation disabled.
  Guess Type is SAD.
  Energy threshold   = 1.00e-08
  Density threshold  = 1.00e-08
  Integral threshold = 1.00e-12

  ==> Primary Basis <==

  Basis Set: AUG-CC-PV(5+D)Z
    Blend: AUG-CC-PV(5+D)Z
    Number of shells: 50
    Number of basis function: 216
    Number of Cartesian functions: 297
    Spherical Harmonics?: true
    Max angular momentum: 5

  ==> Integral Setup <==

  ==> DiskJK: Disk-Based J/K Matrices <==

    J tasked:                  Yes
    K tasked:                  Yes
    wK tasked:                  No
    Memory [MiB]:           178813
    Schwarz Cutoff:          1E-12

  Minimum eigenvalue in the overlap matrix is 4.8184089515E-05.
  Reciprocal condition number of the overlap matrix is 7.3929799294E-06.
    Using symmetric orthogonalization.

  ==> Pre-Iterations <==

  SCF Guess: Superposition of Atomic Densities via on-the-fly atomic UHF (no occupation information).


 WARNING: Atomic UHF is not converging! Try casting from a smaller basis or call Rob at CCMST.

 WARNING: Atomic UHF is not converging! Try casting from a smaller basis or call Rob at CCMST.
   -------------------------
    Irrep   Nso     Nmo    
   -------------------------
     A1        81      81 
     A2        31      31 
     B1        52      52 
     B2        52      52 
   -------------------------
    Total     216     216
   -------------------------

  ==> Iterations <==

                        Total Energy        Delta E     RMS |[F,P]|

   @UHF iter SAD:   -76.91385191397801   -7.69139e+01   0.00000e+00 
    Occupation by irrep:
             A1    A2    B1    B2 
    DOCC [     5,    0,    1,    1 ]
    SOCC [     0,    0,    1,    0 ]

   @UHF iter   1:  -282.37281310737569   -2.05459e+02   5.74863e-02 DIIS
    Occupation by irrep:
             A1    A2    B1    B2 
    DOCC [     5,    0,    1,    1 ]
    SOCC [     0,    0,    0,    1 ]

   @UHF iter   2:  -286.65831454868220   -4.28550e+00   2.52226e-02 DIIS
   @UHF iter   3:  -289.30253904049209   -2.64422e+00   4.49086e-03 DIIS
   @UHF iter   4:  -289.43862893928275   -1.36090e-01   6.31685e-04 DIIS
   @UHF iter   5:  -289.44232966278292   -3.70072e-03   1.34025e-04 DIIS
   @UHF iter   6:  -289.44266805926776   -3.38396e-04   5.11650e-05 DIIS
   @UHF iter   7:  -289.44274526299859   -7.72037e-05   2.29188e-05 DIIS
   @UHF iter   8:  -289.44277010805934   -2.48451e-05   1.04579e-05 DIIS
   @UHF iter   9:  -289.44277602088573   -5.91283e-06   4.41790e-06 DIIS
   @UHF iter  10:  -289.44277704141894   -1.02053e-06   1.26363e-06 DIIS
   @UHF iter  11:  -289.44277710858069   -6.71617e-08   3.23402e-07 DIIS
   @UHF iter  12:  -289.44277711156428   -2.98360e-09   7.75531e-08 DIIS
   @UHF iter  13:  -289.44277711170605   -1.41767e-10   2.03013e-08 DIIS
   @UHF iter  14:  -289.44277711171986   -1.38130e-11   5.65828e-09 DIIS
  Energy and wave function converged.


  ==> Post-Iterations <==

   @Spin Contamination Metric:   2.388580952E-02
   @S^2 Expected:                7.500000000E-01
   @S^2 Observed:                7.738858095E-01
   @S   Expected:                5.000000000E-01
   @S   Observed:                5.000000000E-01

    Orbital Energies [Eh]
    ---------------------

    Alpha Occupied:                                                       

       1A1   -68.808567     2A1    -6.153422     1B2    -4.263972  
       1B1    -4.253532     3A1    -4.251794     4A1    -0.657979  
       5A1    -0.389729     2B2    -0.297409  

    Alpha Virtual:                                                        

       2B1    -0.007452     6A1     0.025741     7A1     0.043680  
       3B2     0.050707     3B1     0.058701     8A1     0.090987  
       4B1     0.104092     4B2     0.105584     9A1     0.110517  
       1A2     0.110830    10A1     0.115276    11A1     0.161273  
      12A1     0.200939     5B2     0.223951     5B1     0.224759  
       6B2     0.245570     6B1     0.261290    13A1     0.279038  
       7B2     0.282944     2A2     0.282973     7B1     0.283225  
      14A1     0.286819     8B2     0.290341     8B1     0.292145  
       3A2     0.308543    15A1     0.309636    16A1     0.324619  
      17A1     0.348285     9B2     0.398712     9B1     0.401272  
      18A1     0.422972    19A1     0.504738    10B1     0.591579  
      10B2     0.595502     4A2     0.627157    20A1     0.627239  
      21A1     0.660035     5A2     0.725379    22A1     0.725391  
      11B1     0.727463    11B2     0.727568    12B1     0.741998  
      12B2     0.744566     6A2     0.750655    23A1     0.750906  
      13B1     0.757899    13B2     0.757969    24A1     0.760386  
       7A2     0.760734    25A1     0.796988    14B1     0.808367  
      14B2     0.811061    15B1     0.843992    26A1     0.844299  
      15B2     0.850345     8A2     0.873834    27A1     0.873984  
      28A1     0.891942    16B1     0.927163    16B2     0.927495  
      29A1     0.996228    30A1     1.157327    17B1     1.220675  
      17B2     1.227469    18B1     1.377223    18B2     1.377225  
      31A1     1.386406    32A1     1.447134     9A2     1.491618  
      33A1     1.491700    19B1     1.527691    19B2     1.534712  
      34A1     1.673540    10A2     1.680324    35A1     1.680531  
      20B1     1.689594    20B2     1.689689    21B1     1.725210  
      21B2     1.736242    36A1     1.761534    11A2     1.761738  
      22B1     1.783509    37A1     1.799782    22B2     1.801669  
      23B1     1.823414    23B2     1.823414    12A2     1.826612  
      38A1     1.826634    13A2     1.842027    39A1     1.842062  
      24B1     1.852785    24B2     1.853082    14A2     1.858316  
      40A1     1.858631    25B1     1.978144    25B2     1.992647  
      41A1     1.995780    15A2     2.021673    42A1     2.026347  
      26B1     2.047276    26B2     2.047394    43A1     2.191019  
      27B1     2.259547    27B2     2.272964    44A1     2.450066  
      28B1     2.586175    28B2     2.595245    45A1     2.731927  
      16A2     2.756781    46A1     2.757007    47A1     2.808991  
      29B1     2.892244    29B2     2.905426    17A2     3.099028  
      48A1     3.099028    49A1     3.390986    30B1     3.452183  
      18A2     3.456856    50A1     3.456974    30B2     3.464282  
      31B1     3.511145    31B2     3.522432    32B1     3.543632  
      32B2     3.544033    33B1     3.617217    33B2     3.617227  
      51A1     3.664512    19A2     3.665767    52A1     3.733060  
      20A2     3.742341    53A1     3.751007    34B1     3.806536  
      34B2     3.826337    54A1     3.839204    55A1     4.029005  
      35B1     4.049968    35B2     4.060674    21A2     4.099913  
      56A1     4.100149    36B1     4.102729    36B2     4.102746  
      22A2     4.196626    57A1     4.196626    37B1     4.218936  
      37B2     4.219178    38B1     4.239101    38B2     4.239102  
      58A1     4.252470    23A2     4.252471    39B1     4.263938  
      39B2     4.283341    59A1     4.333471    60A1     4.412028  
      24A2     4.412201    61A1     4.529672    40B1     4.612375  
      40B2     4.612403    62A1     4.654561    41B1     4.723362  
      41B2     4.741247    63A1     5.398932    25A2     5.531494  
      64A1     5.531706    65A1     5.673941    26A2     5.917056  
      66A1     5.917135    42B1     6.000747    42B2     6.011524  
      43B1     6.228565    43B2     6.236481    67A1     6.839778  
      44B1     7.057163    44B2     7.066358    68A1     8.246810  
      69A1     9.768648    27A2     9.768688    45B1     9.989813  
      45B2    10.000220    70A1    10.155620    46B1    12.996049  
      46B2    12.996049    71A1    13.205621    28A2    13.205621  
      72A1    13.215505    47B1    13.223625    47B2    13.227806  
      29A2    13.266764    73A1    13.266830    48B1    13.341495  
      48B2    13.341495    74A1    13.457463    30A2    13.457473  
      49B1    13.473989    49B2    13.478345    75A1    13.522791  
      50B1    14.078395    50B2    14.082518    76A1    14.333344  
      31A2    14.464562    77A1    14.464578    51B1    14.798343  
      51B2    14.801262    78A1    15.372108    79A1    15.671063  
      52B1    17.587452    52B2    17.590388    80A1    18.676743  
      81A1    41.502908  

    Beta Occupied:                                                        

       1A1   -68.803265     2A1    -6.147443     1B1    -4.250879  
       3A1    -4.249694     1B2    -4.237476     4A1    -0.604030  
       5A1    -0.366785  

    Beta Virtual:                                                         

       2B1     0.001799     6A1     0.026959     2B2     0.028730  
       7A1     0.044186     3B1     0.061703     3B2     0.082874  
       8A1     0.093384     4B1     0.104222     4B2     0.110607  
       1A2     0.117098     9A1     0.118142    10A1     0.118461  
      11A1     0.166148    12A1     0.204876     5B1     0.225641  
       5B2     0.233993     6B1     0.265593    13A1     0.282862  
       2A2     0.285701     6B2     0.286202     7B1     0.286609  
      14A1     0.289123     7B2     0.290156     8B1     0.292019  
       8B2     0.306576    15A1     0.330443     3A2     0.343866  
      16A1     0.347631    17A1     0.353711     9B1     0.402947  
       9B2     0.419390    18A1     0.426654    19A1     0.509489  
      10B1     0.592294    10B2     0.602449     4A2     0.630259  
      20A1     0.630582    21A1     0.663584    11B1     0.732256  
      22A1     0.733106     5A2     0.733106    11B2     0.733601  
      12B1     0.741733    12B2     0.764588    23A1     0.766786  
       6A2     0.768978    13B1     0.775494    13B2     0.776158  
      24A1     0.781581     7A2     0.783421    25A1     0.807187  
      14B1     0.810466    14B2     0.831829    15B1     0.846282  
      26A1     0.846942    15B2     0.866848    27A1     0.879511  
       8A2     0.879874    28A1     0.901491    16B1     0.931151  
      16B2     0.959371    29A1     0.999660    30A1     1.162786  
      17B1     1.221050    17B2     1.235521    18B1     1.380023  
      18B2     1.380032    31A1     1.394122    32A1     1.450111  
       9A2     1.493713    33A1     1.493955    19B1     1.528025  
      19B2     1.542253    34A1     1.677490    35A1     1.692789  
      10A2     1.693793    20B1     1.709185    20B2     1.711899  
      21B1     1.730998    21B2     1.756095    36A1     1.775331  
      11A2     1.776355    22B1     1.784720    37A1     1.809438  
      22B2     1.815666    23B1     1.834596    23B2     1.834598  
      12A2     1.835939    38A1     1.836040    13A2     1.854404  
      39A1     1.854898    24B1     1.865644    24B2     1.866766  
      14A2     1.872152    40A1     1.873171    25B1     1.977335  
      41A1     1.996307    25B2     1.999694    15A2     2.027207  
      42A1     2.036006    26B1     2.053890    26B2     2.054186  
      43A1     2.193088    27B1     2.259956    27B2     2.280202  
      44A1     2.453818    28B1     2.588291    28B2     2.610788  
      45A1     2.733933    16A2     2.761044    46A1     2.761546  
      47A1     2.810515    29B1     2.893332    29B2     2.915391  
      17A2     3.101363    48A1     3.101363    49A1     3.394342  
      30B1     3.452490    18A2     3.461913    50A1     3.462333  
      30B2     3.470776    31B1     3.512002    31B2     3.534759  
      32B1     3.558483    32B2     3.559904    33B1     3.620427  
      33B2     3.620458    51A1     3.670409    19A2     3.673098  
      52A1     3.736358    20A2     3.749546    53A1     3.763603  
      34B1     3.808709    34B2     3.838476    54A1     3.845136  
      55A1     4.031703    35B1     4.049376    35B2     4.065402  
      21A2     4.105323    56A1     4.105850    36B1     4.106864  
      36B2     4.106909    22A2     4.212738    57A1     4.212740  
      37B1     4.228346    37B2     4.229479    38B1     4.253316  
      38B2     4.253323    58A1     4.263243    23A2     4.263247  
      39B1     4.265421    39B2     4.293560    59A1     4.332843  
      60A1     4.417493    24A2     4.418121    61A1     4.533854  
      40B1     4.617834    40B2     4.617927    62A1     4.659295  
      41B1     4.724865    41B2     4.751464    63A1     5.401394  
      25A2     5.535605    64A1     5.535971    65A1     5.675120  
      26A2     5.917955    66A1     5.918076    42B1     6.000816  
      42B2     6.014587    43B1     6.228659    43B2     6.238765  
      67A1     6.840492    44B1     7.057205    44B2     7.069043  
      68A1     8.248061    69A1     9.775635    27A2     9.775786  
      45B1     9.990660    45B2    10.007353    70A1    10.158582  
      46B1    12.996034    46B2    12.996034    71A1    13.205754  
      28A2    13.205754    72A1    13.215365    47B1    13.223628  
      47B2    13.230829    29A2    13.266790    73A1    13.266877  
      48B1    13.341653    48B2    13.341653    74A1    13.457591  
      30A2    13.457605    49B1    13.475357    49B2    13.490842  
      75A1    13.522852    50B1    14.078286    50B2    14.083643  
      76A1    14.332942    31A2    14.464355    77A1    14.464375  
      51B1    14.798050    51B2    14.802165    78A1    15.372018  
      79A1    15.672041    52B1    17.586885    52B2    17.590311  
      80A1    18.676411    81A1    41.506718  

    Final Occupation by Irrep:
             A1    A2    B1    B2 
    DOCC [     5,    0,    1,    1 ]
    SOCC [     0,    0,    0,    1 ]

  @UHF Final Energy:  -289.44277711171986

   => Energetics <=

    Nuclear Repulsion Energy =              4.8836470690279272
    One-Electron Energy =                -410.9168722174416644
    Two-Electron Energy =                 116.5904480366939140
    Total Energy =                       -289.4427771117198063

  UHF NO Occupations:
  HONO-2 :    4 A1 1.9997292
  HONO-1 :    5 A1 1.9882639
  HONO-0 :    2 B2 1.0000000
  LUNO+0 :    6 A1 0.0117361
  LUNO+1 :    7 A1 0.0002708
  LUNO+2 :    3 B2 0.0000042
  LUNO+3 :    2 B1 0.0000003


Computation Completed


Properties will be evaluated at   0.000000,   0.000000,   0.000000 [a0]

Properties computed using the SCF density matrix

  Nuclear Dipole Moment: [e a0]
     X:     0.0000      Y:     0.0000      Z:    -1.3715

  Electronic Dipole Moment: [e a0]
     X:     0.0000      Y:     0.0000      Z:     1.2754

  Dipole Moment: [e a0]
     X:     0.0000      Y:     0.0000      Z:    -0.0961     Total:     0.0961

  Dipole Moment: [D]
     X:     0.0000      Y:     0.0000      Z:    -0.2443     Total:     0.2443


*** tstop() called on n412-045.vsc4.prov at Fri Jan 22 10:55:43 2021
Module time:
	user time   =     153.57 seconds =       2.56 minutes
	system time =       9.38 seconds =       0.16 minutes
	total time  =         97 seconds =       1.62 minutes
Total time:
	user time   =     153.57 seconds =       2.56 minutes
	system time =       9.38 seconds =       0.16 minutes
	total time  =         97 seconds =       1.62 minutes

*** tstart() called on n412-045.vsc4.prov
*** at Fri Jan 22 10:55:43 2021


	Wfn Parameters:
	--------------------
	Wavefunction         = CCSD_T
	Number of irreps     = 4
	Number of MOs        = 216
	Number of active MOs = 211
	AO-Basis             = NONE
	Semicanonical        = false
	Reference            = UHF
	Print Level          = 1

	IRREP	# MOs	# FZDC	# DOCC	# SOCC	# VIRT	# FZVR
	-----	-----	------	------	------	------	------
	 A1	   81	    3	    2	    0	    76	    0
	 A2	   31	    0	    0	    0	    31	    0
	 B1	   52	    1	    0	    0	    51	    0
	 B2	   52	    1	    0	    1	    50	    0
	Transforming integrals...
	IWL integrals will be deleted.
	(OO|OO)...
	Presorting SO-basis two-electron integrals.
	Sorting File: SO Ints (nn|nn) nbuckets = 1
	Constructing frozen core operators
	Starting AA/AB first half-transformation.
	Sorting AA/AB half-transformed integrals.
	Starting BB first half-transformation.
	Sorting BB half-transformed integrals.
	First half integral transformation complete.
	Starting AA second half-transformation.
	Starting AB second half-transformation.
	Starting BB second half-transformation.
	Two-electron integral transformation complete.
	(OO|OV)...
	Starting AA second half-transformation.
	Starting AB second half-transformation.
	Starting BB second half-transformation.
	Two-electron integral transformation complete.
	(OO|VV)...
	Starting AA second half-transformation.
	Starting AB second half-transformation.
	Starting BB second half-transformation.
	Two-electron integral transformation complete.
	(OV|OO)...
	Starting AA/AB first half-transformation.
	Sorting AA/AB half-transformed integrals.
	Starting BB first half-transformation.
	Sorting BB half-transformed integrals.
	First half integral transformation complete.
	Starting AA second half-transformation.
	Starting AB second half-transformation.
	Starting BB second half-transformation.
	Two-electron integral transformation complete.
	(OV|OV)...
	Starting AA second half-transformation.
	Starting AB second half-transformation.
	Starting BB second half-transformation.
	Two-electron integral transformation complete.
	(OV|VV)...
	Starting AA second half-transformation.
	Starting AB second half-transformation.
	Starting BB second half-transformation.
	Two-electron integral transformation complete.
	(VV|OO)...
	Starting AA/AB first half-transformation.
	Sorting AA/AB half-transformed integrals.
	Starting BB first half-transformation.
	Sorting BB half-transformed integrals.
	First half integral transformation complete.
	Starting AA second half-transformation.
	Starting AB second half-transformation.
	Starting BB second half-transformation.
	Two-electron integral transformation complete.
	(VV|OV)...
	Starting AA second half-transformation.
	Starting AB second half-transformation.
	Starting BB second half-transformation.
	Two-electron integral transformation complete.
	(VV|VV)...
	Starting AA second half-transformation.
	Starting AB second half-transformation.
	Starting BB second half-transformation.
	Two-electron integral transformation complete.
	Frozen core energy     =   -288.66539507430565

	Size of irrep 0 of <AB|CD> integrals:     33.814 (MW) /    270.514 (MB)
	Size of irrep 1 of <AB|CD> integrals:     24.069 (MW) /    192.551 (MB)
	Size of irrep 2 of <AB|CD> integrals:     29.441 (MW) /    235.532 (MB)
	Size of irrep 3 of <AB|CD> integrals:     28.955 (MW) /    231.641 (MB)
	Total:                                   116.280 (MW) /    930.238 (MB)

	Size of irrep 0 of <ab|cd> integrals:     34.398 (MW) /    275.186 (MB)
	Size of irrep 1 of <ab|cd> integrals:     24.572 (MW) /    196.575 (MB)
	Size of irrep 2 of <ab|cd> integrals:     29.779 (MW) /    238.231 (MB)
	Size of irrep 3 of <ab|cd> integrals:     29.779 (MW) /    238.231 (MB)
	Total:                                   118.528 (MW) /    948.222 (MB)

	Size of irrep 0 of <Ab|Cd> integrals:    141.325 (MW) /   1130.596 (MB)
	Size of irrep 1 of <Ab|Cd> integrals:     97.279 (MW) /    778.230 (MB)
	Size of irrep 2 of <Ab|Cd> integrals:    118.440 (MW) /    947.518 (MB)
	Size of irrep 3 of <Ab|Cd> integrals:    117.462 (MW) /    939.698 (MB)
	Total:                                   474.505 (MW) /   3796.042 (MB)

	Size of irrep 0 of <IA|BC> integrals:      2.391 (MW) /     19.130 (MB)
	Size of irrep 1 of <IA|BC> integrals:      1.109 (MW) /      8.870 (MB)
	Size of irrep 2 of <IA|BC> integrals:      1.443 (MW) /     11.547 (MB)
	Size of irrep 3 of <IA|BC> integrals:      1.894 (MW) /     15.153 (MB)
	Total:                                     6.837 (MW) /     54.700 (MB)

	Size of irrep 0 of <ia|bc> integrals:      1.815 (MW) /     14.518 (MB)
	Size of irrep 1 of <ia|bc> integrals:      0.615 (MW) /      4.917 (MB)
	Size of irrep 2 of <ia|bc> integrals:      1.113 (MW) /      8.906 (MB)
	Size of irrep 3 of <ia|bc> integrals:      1.113 (MW) /      8.906 (MB)
	Total:                                     4.656 (MW) /     37.247 (MB)

	Size of irrep 0 of <Ia|Bc> integrals:      2.413 (MW) /     19.306 (MB)
	Size of irrep 1 of <Ia|Bc> integrals:      1.115 (MW) /      8.916 (MB)
	Size of irrep 2 of <Ia|Bc> integrals:      1.447 (MW) /     11.580 (MB)
	Size of irrep 3 of <Ia|Bc> integrals:      1.929 (MW) /     15.433 (MB)
	Total:                                     6.904 (MW) /     55.235 (MB)

	Size of irrep 0 of <iA|bC> integrals:      1.807 (MW) /     14.456 (MB)
	Size of irrep 1 of <iA|bC> integrals:      0.612 (MW) /      4.892 (MB)
	Size of irrep 2 of <iA|bC> integrals:      1.110 (MW) /      8.881 (MB)
	Size of irrep 3 of <iA|bC> integrals:      1.084 (MW) /      8.670 (MB)
	Total:                                     4.612 (MW) /     36.899 (MB)

	Size of irrep 0 of tIjAb amplitudes:       0.048 (MW) /      0.380 (MB)
	Size of irrep 1 of tIjAb amplitudes:       0.000 (MW) /      0.000 (MB)
	Size of irrep 2 of tIjAb amplitudes:       0.000 (MW) /      0.000 (MB)
	Size of irrep 3 of tIjAb amplitudes:       0.022 (MW) /      0.173 (MB)
	Total:                                     0.069 (MW) /      0.554 (MB)

	Nuclear Rep. energy          =      4.88364706902793
	SCF energy                   =   -289.44277711171986
	One-electron energy          =     -9.00612547308102
	Two-electron (AA) energy     =      0.84792210913817
	Two-electron (BB) energy     =      0.26823651292339
	Two-electron (AB) energy     =      2.22893774457634
	Two-electron energy          =      3.34509636663790
	Reference energy             =   -289.44277711172083

*** tstop() called on n412-045.vsc4.prov at Fri Jan 22 10:58:21 2021
Module time:
	user time   =      52.76 seconds =       0.88 minutes
	system time =      33.50 seconds =       0.56 minutes
	total time  =        158 seconds =       2.63 minutes
Total time:
	user time   =     206.34 seconds =       3.44 minutes
	system time =      42.88 seconds =       0.71 minutes
	total time  =        255 seconds =       4.25 minutes
            **************************
            *                        *
            *        CCENERGY        *
            *                        *
            **************************

    Nuclear Rep. energy (wfn)     =    4.883647069027927
    SCF energy          (wfn)     = -289.442777111719863
    Reference energy    (file100) = -289.442777111720829

    Input parameters:
    -----------------
    Wave function   =     CCSD_T
    Reference wfn   =     UHF
    Brueckner       =     No
    Memory (Mbytes) =     250000.0
    Maxiter         =     50
    R_Convergence   =     1.0e-07
    E_Convergence   =     1.0e-06
    Restart         =     Yes
    DIIS            =     Yes
    AO Basis        =     NONE
    ABCD            =     NEW
    Cache Level     =     2
    Cache Type      =     LRU
    Print Level     =     1
    Num. of threads =     48
    # Amps to Print =     10
    Print MP2 Amps? =     No
    Analyze T2 Amps =     No
    Print Pair Ener =     No
    Local CC        =     No
    SCS-MP2         =     False
    SCSN-MP2        =     False
    SCS-CCSD        =     False

MP2 correlation energy -0.0891047884762767
                Solving CC Amplitude Equations
                ------------------------------
  Iter             Energy              RMS        T1Diag      D1Diag    New D1Diag    D2Diag
  ----     ---------------------    ---------   ----------  ----------  ----------   --------
     0        -0.089104788476277    0.000e+00    0.000000    0.000000    0.000000    0.000000
     1        -0.101631046689309    6.064e-02    0.013360    0.000000    0.000000    0.000000
     2        -0.109551983862173    2.847e-02    0.024103    0.000000    0.000000    0.000000
     3        -0.109861366457360    8.338e-03    0.027819    0.000000    0.000000    0.000000
     4        -0.109981249876133    2.835e-03    0.028810    0.000000    0.000000    0.000000
     5        -0.109999754629433    9.745e-04    0.028985    0.000000    0.000000    0.000000
     6        -0.109988608107324    3.447e-04    0.028992    0.000000    0.000000    0.000000
     7        -0.109990437285162    1.267e-04    0.028986    0.000000    0.000000    0.000000
     8        -0.109992549011567    3.594e-05    0.028989    0.000000    0.000000    0.000000
     9        -0.109991915224802    1.350e-05    0.028990    0.000000    0.000000    0.000000
    10        -0.109991938804511    5.438e-06    0.028990    0.000000    0.000000    0.000000
    11        -0.109991906016699    2.098e-06    0.028990    0.000000    0.000000    0.000000
    12        -0.109991948084196    9.432e-07    0.028990    0.000000    0.000000    0.000000
    13        -0.109991969505482    3.980e-07    0.028991    0.000000    0.000000    0.000000
    14        -0.109991973331176    1.483e-07    0.028991    0.000000    0.000000    0.000000
    15        -0.109991971680304    5.927e-08    0.028991    0.000000    0.000000    0.000000

    Iterations converged.


    Largest TIA Amplitudes:
              1   9        -0.0183968492
              1   3        -0.0181571902
              0   9         0.0146587318
              1   8         0.0135604872
              1   7         0.0127166488
              1   6        -0.0117305910
              1   2        -0.0116473896
              2 160         0.0094140403
              1  17         0.0091275656
              0  10        -0.0086285937

    Largest Tia Amplitudes:
              1   5         0.0146045964
              0   6        -0.0142852927
              0   3        -0.0142678500
              1   3         0.0138135210
              0   5        -0.0104080239
              0   7         0.0100334000
              0   8         0.0095670399
              1   6         0.0095477003
              1  12        -0.0087576940
              1   8        -0.0082931233

    Largest TIJAB Amplitudes:
      2   0 107  78         0.0135079271
      2   1 160   5        -0.0109576398
      2   1 164   5        -0.0105222439
      2   1 163   8        -0.0098076273
      2   1 163   6         0.0098011185
      2   1 164   6        -0.0097061174
      2   1 163   7        -0.0095701837
      2   1 164   7         0.0094174131
      2   1 161   6         0.0091202875
      2   0 161  10         0.0087530605

    Largest Tijab Amplitudes:
      1   0 165 159         0.0073679981
      1   0 114 107        -0.0068253574
      1   0 110 107        -0.0057463724
      1   0 165 158        -0.0057268346
      1   0 161 159         0.0052550930
      1   0 164 159        -0.0051524621
      1   0  12   9        -0.0047172266
      1   0 165 163        -0.0046341022
      1   0  12   3        -0.0045457537
      1   0 168 159        -0.0045002002

    Largest TIjAb Amplitudes:
      1   1 107 107         0.0604281154
      0   0 107 107         0.0369919689
      0   1 107 107        -0.0365761569
      1   1 107 108        -0.0349409845
      2   1  78 107        -0.0315708319
      1   1 108 107         0.0288140077
      2   0  78 107         0.0285953688
      1   0 107 107        -0.0262966081
      1   1 107 111         0.0256100130
      2   1   9 159         0.0241439079

    SCF energy       (wfn)                    = -289.442777111719863
    Reference energy (file100)                = -289.442777111720829

    Opposite-spin MP2 correlation energy      =   -0.078904132846956
    Same-spin MP2 correlation energy          =   -0.010200655629321
    Singles MP2 correlation energy            =   -0.000000000000000
    MP2 correlation energy                    =   -0.089104788476277
      * MP2 total energy                      = -289.531881900197106

    Opposite-spin CCSD correlation energy     =   -0.098693240562542
    Same-spin CCSD correlation energy         =   -0.011298731117757
    Singles CCSD correlation energy           =   -0.000000000000005
    CCSD correlation energy                   =   -0.109991971680304
      * CCSD total energy                     = -289.552769083401131

            **************************
            *                        *
            *        CCTRIPLES       *
            *                        *
            **************************


    Wave function   =    CCSD_T
    Reference wfn   =      UHF

    Nuclear Rep. energy (wfn)                =    4.883647069027927
    SCF energy          (wfn)                = -289.442777111719863
    Reference energy    (file100)            = -289.442777111720829
    CCSD energy         (file100)            =   -0.109991971680304
    Total CCSD energy   (file100)            = -289.552769083401131

    Number of ijk index combinations:
    Spin Case AAA:                                   1
    Spin Case BBB:                                   0
    Spin Case AAB:                                   6
    Spin Case ABB:                                   3
    AAA (T) energy                             =   -0.000051591058506
    BBB (T) energy                             =    0.000000000000000
    AAB (T) energy                             =   -0.002615998505669
    ABB (T) energy                             =   -0.000890010937921
    (T) energy                                   =   -0.003557600502096
      * CCSD(T) total energy                     = -289.556326683903251


    Psi4 stopped on: Friday, 22 January 2021 11:01AM
    Psi4 wall time for execution: 0:06:58.15

*** Psi4 exiting successfully. Buy a developer a beer!
