
    -----------------------------------------------------------------------
          Psi4: An Open-Source Ab Initio Electronic Structure Package
                               Psi4 1.4a3.dev88 

                         Git: Rev {master} 262e345 


    D. G. A. Smith, L. A. Burns, A. C. Simmonett, R. M. Parrish,
    M. C. Schieber, R. Galvelis, P. Kraus, H. Kruse, R. Di Remigio,
    A. Alenaizan, A. M. James, S. Lehtola, J. P. Misiewicz, M. Scheurer,
    R. A. Shaw, J. B. Schriber, Y. Xie, Z. L. Glick, D. A. Sirianni,
    J. S. O'Brien, J. M. Waldrop, A. Kumar, E. G. Hohenstein,
    B. P. Pritchard, B. R. Brooks, H. F. Schaefer III, A. Yu. Sokolov,
    K. Patkowski, A. E. DePrince III, U. Bozkaya, R. A. King,
    F. A. Evangelista, J. M. Turney, T. D. Crawford, C. D. Sherrill,
    J. Chem. Phys. 152(18) 184108 (2020). https://doi.org/10.1063/5.0006002

                            Additional Code Authors
    E. T. Seidl, C. L. Janssen, E. F. Valeev, M. L. Leininger,
    J. F. Gonthier, R. M. Richard, H. R. McAlexander, M. Saitow, X. Wang,
    P. Verma, and M. H. Lechner

             Previous Authors, Complete List of Code Contributors,
                       and Citations for Specific Modules
    https://github.com/psi4/psi4/blob/master/codemeta.json
    https://github.com/psi4/psi4/graphs/contributors
    http://psicode.org/psi4manual/master/introduction.html#citing-psifour

    -----------------------------------------------------------------------


    Psi4 started on: Monday, 25 January 2021 11:35AM

    Process ID: 260320
    Host:       n412-043.vsc4.prov
    PSIDATADIR: /home/fs71337/gallo4/psi4/eri-6/psi4/build/stage/share/psi4
    Memory:     500.0 MiB
    Threads:    48
    
  ==> Input File <==

--------------------------------------------------------------------------
# Any line starting with the # character is a comment line
memory 250000 mb
molecule molecule{
0 2
Si         0.0000000000        0.0000000000        0.0525562661
H          0.0000000000        0.0000000000       -1.4644413475
}

set {
  reference uhf
  basis aug-cc-pV(6+d)Z
  scf_type OUT_OF_CORE
  freeze_core true
}

energy('ccsd(t)')
--------------------------------------------------------------------------

  Memory set to 232.831 GiB by Python driver.

Scratch directory: /binfl/lv71337/airmler/temp/

*** tstart() called on n412-043.vsc4.prov
*** at Mon Jan 25 11:35:23 2021

   => Loading Basis Set <=

    Name: AUG-CC-PV(6+D)Z
    Role: ORBITAL
    Keyword: BASIS
    atoms 1 entry SI         line   886 file /home/fs71337/gallo4/psi4/eri-6/psi4/build/stage/share/psi4/basis/aug-cc-pv_6pd_z.gbs 
    atoms 2 entry H          line    51 file /home/fs71337/gallo4/psi4/eri-6/psi4/build/stage/share/psi4/basis/aug-cc-pv_6pd_z.gbs 


         ---------------------------------------------------------
                                   SCF
               by Justin Turney, Rob Parrish, Andy Simmonett
                          and Daniel G. A. Smith
                              UHF Reference
                       48 Threads, 238418 MiB Core
         ---------------------------------------------------------

  ==> Geometry <==

    Molecular point group: c2v
    Full point group: C_inf_v

    Geometry (in Angstrom), charge = 0, multiplicity = 2:

       Center              X                  Y                   Z               Mass       
    ------------   -----------------  -----------------  -----------------  -----------------
         SI           0.000000000000     0.000000000000     0.052747326997    27.976926534650
         H            0.000000000000     0.000000000000    -1.464250286603     1.007825032230

  Running in c2v symmetry.

  Rotational constants: A = ************  B =      7.53028  C =      7.53028 [cm^-1]
  Rotational constants: A = ************  B = 225752.12288  C = 225752.12288 [MHz]
  Nuclear repulsion =    4.883647069027927

  Charge       = 0
  Multiplicity = 2
  Electrons    = 15
  Nalpha       = 8
  Nbeta        = 7

  ==> Algorithm <==

  SCF Algorithm Type is OUT_OF_CORE.
  DIIS enabled.
  MOM disabled.
  Fractional occupation disabled.
  Guess Type is SAD.
  Energy threshold   = 1.00e-08
  Density threshold  = 1.00e-08
  Integral threshold = 1.00e-12

  ==> Primary Basis <==

  Basis Set: AUG-CC-PV(6+D)Z
    Blend: AUG-CC-PV(6+D)Z
    Number of shells: 65
    Number of basis function: 325
    Number of Cartesian functions: 486
    Spherical Harmonics?: true
    Max angular momentum: 6

  ==> Integral Setup <==

  ==> DiskJK: Disk-Based J/K Matrices <==

    J tasked:                  Yes
    K tasked:                  Yes
    wK tasked:                  No
    Memory [MiB]:           178813
    Schwarz Cutoff:          1E-12

  Minimum eigenvalue in the overlap matrix is 8.8609587795E-06.
  Reciprocal condition number of the overlap matrix is 1.2201750862E-06.
    Using symmetric orthogonalization.

  ==> Pre-Iterations <==

  SCF Guess: Superposition of Atomic Densities via on-the-fly atomic UHF (no occupation information).


 WARNING: Atomic UHF is not converging! Try casting from a smaller basis or call Rob at CCMST.

 WARNING: Atomic UHF is not converging! Try casting from a smaller basis or call Rob at CCMST.
   -------------------------
    Irrep   Nso     Nmo    
   -------------------------
     A1       116     116 
     A2        51      51 
     B1        79      79 
     B2        79      79 
   -------------------------
    Total     325     325
   -------------------------

  ==> Iterations <==

                        Total Energy        Delta E     RMS |[F,P]|

   @UHF iter SAD:   201.59498883330724    2.01595e+02   0.00000e+00 
    Occupation by irrep:
             A1    A2    B1    B2 
    DOCC [     5,    0,    1,    1 ]
    SOCC [     0,    0,    1,    0 ]

   @UHF iter   1:  -278.64308848760317   -4.80238e+02   5.20466e-02 DIIS
    Occupation by irrep:
             A1    A2    B1    B2 
    DOCC [     5,    0,    1,    1 ]
    SOCC [     0,    0,    0,    1 ]

   @UHF iter   2:  -285.39377283092671   -6.75068e+00   2.42765e-02 DIIS
   @UHF iter   3:  -289.29257997734652   -3.89881e+00   3.82907e-03 DIIS
   @UHF iter   4:  -289.43609128478300   -1.43511e-01   5.29664e-04 DIIS
   @UHF iter   5:  -289.44190832296192   -5.81704e-03   1.20981e-04 DIIS
   @UHF iter   6:  -289.44256559288596   -6.57270e-04   5.74839e-05 DIIS
   @UHF iter   7:  -289.44280635422371   -2.40761e-04   2.62459e-05 DIIS
   @UHF iter   8:  -289.44287923650717   -7.28823e-05   1.21296e-05 DIIS
   @UHF iter   9:  -289.44289711951865   -1.78830e-05   5.10098e-06 DIIS
   @UHF iter  10:  -289.44290009889471   -2.97938e-06   1.35100e-06 DIIS
   @UHF iter  11:  -289.44290024418387   -1.45289e-07   3.82949e-07 DIIS
   @UHF iter  12:  -289.44290025282783   -8.64395e-09   9.17869e-08 DIIS
   @UHF iter  13:  -289.44290025332316   -4.95334e-10   2.43504e-08 DIIS
   @UHF iter  14:  -289.44290025336920   -4.60432e-11   6.60062e-09 DIIS
  Energy and wave function converged.


  ==> Post-Iterations <==

   @Spin Contamination Metric:   2.392111356E-02
   @S^2 Expected:                7.500000000E-01
   @S^2 Observed:                7.739211136E-01
   @S   Expected:                5.000000000E-01
   @S   Observed:                5.000000000E-01

    Orbital Energies [Eh]
    ---------------------

    Alpha Occupied:                                                       

       1A1   -68.808508     2A1    -6.153358     1B2    -4.263978  
       1B1    -4.253372     3A1    -4.251768     4A1    -0.657955  
       5A1    -0.389745     2B2    -0.297426  

    Alpha Virtual:                                                        

       2B1    -0.007527     6A1     0.022896     7A1     0.037194  
       3B2     0.041767     3B1     0.047815     8A1     0.086030  
       4B1     0.096938     4B2     0.098482     9A1     0.104370  
       1A2     0.105444    10A1     0.106501    11A1     0.135071  
       5B2     0.179371    12A1     0.180092     5B1     0.188833  
       6B2     0.205109     6B1     0.208832    13A1     0.247445  
       2A2     0.260890    14A1     0.261405     7B2     0.264830  
       7B1     0.264958     8B2     0.270899     8B1     0.273117  
      15A1     0.279119     3A2     0.291486    16A1     0.293524  
      17A1     0.308058    18A1     0.350172     9B2     0.369592  
       9B1     0.371777    19A1     0.442253     4A2     0.498773  
      20A1     0.498920    10B1     0.499940    10B2     0.503638  
       5A2     0.556895    21A1     0.556896    11B2     0.558086  
      11B1     0.558208    12B2     0.571747    12B1     0.576961  
      22A1     0.580233    23A1     0.624244     6A2     0.624946  
      13B1     0.637987    13B2     0.641319    24A1     0.653798  
      25A1     0.677350    14B1     0.686164    14B2     0.687845  
       7A2     0.697905    26A1     0.698290    15B2     0.709848  
      15B1     0.709908    27A1     0.712532     8A2     0.760384  
      28A1     0.760668    16B1     0.779759    16B2     0.785367  
      29A1     0.787251    30A1     0.901977    17B1     1.034148  
      17B2     1.039155    31A1     1.157209     9A2     1.157359  
      32A1     1.164387    18B1     1.189957    18B2     1.189966  
      33A1     1.222564    19B1     1.235580    19B2     1.241808  
      20B1     1.312547    20B2     1.312547    34A1     1.317443  
      10A2     1.317444    35A1     1.375871    21B1     1.385855  
      21B2     1.386062    36A1     1.386976    11A2     1.386977  
      22B1     1.417737    22B2     1.429953    37A1     1.462343  
      12A2     1.466336    38A1     1.474803    23B1     1.482601  
      39A1     1.486270    13A2     1.487349    23B2     1.496258  
      40A1     1.497311    24B1     1.524424    24B2     1.524952  
      14A2     1.546752    41A1     1.546816    25B1     1.562673  
      25B2     1.562866    26B1     1.585500    15A2     1.590902  
      42A1     1.590933    26B2     1.595671    27B1     1.639302  
      27B2     1.648567    43A1     1.670403    44A1     1.794238  
      28B1     1.937210    28B2     1.946976    45A1     2.036501  
      29B1     2.211820    29B2     2.222490    46A1     2.243112  
      16A2     2.244529    47A1     2.272873    17A2     2.350067  
      48A1     2.350067    49A1     2.444064    18A2     2.588851  
      50A1     2.588880    30B1     2.629440    30B2     2.638686  
      51A1     2.664865    31B1     2.706468    31B2     2.722435  
      32B1     2.772575    32B2     2.772589    52A1     2.775147  
      19A2     2.775147    33B1     2.780952    33B2     2.780952  
      34B1     2.858460    34B2     2.858467    53A1     2.872957  
      20A2     2.892604    54A1     2.893261    21A2     2.906244  
      55A1     2.908767    35B1     2.940027    35B2     2.940046  
      36B1     2.992133    36B2     2.992133    56A1     2.998779  
      22A2     2.998780    57A1     3.033131    23A2     3.033131  
      37B1     3.048119    37B2     3.064691    58A1     3.096810  
      24A2     3.099789    38B1     3.127031    38B2     3.127188  
      59A1     3.143795    60A1     3.169555    25A2     3.170357  
      39B1     3.212423    39B2     3.232725    40B1     3.304515  
      40B2     3.304597    61A1     3.314267    62A1     3.348109  
      41B1     3.351410    41B2     3.372218    63A1     3.372552  
      26A2     3.372796    64A1     3.530117    42B1     3.559413  
      42B2     3.576661    65A1     3.695622    27A2     3.695836  
      66A1     3.801054    43B1     3.940481    43B2     3.953135  
      44B1     4.236371    44B2     4.236377    67A1     4.279830  
      68A1     4.465969    28A2     4.465974    45B1     4.483919  
      45B2     4.490606    46B1     4.490606    46B2     4.494911  
      69A1     4.593534    70A1     4.973974    47B1     4.990084  
      47B2     5.001399    29A2     5.021685    71A1     5.021685  
      30A2     5.159216    72A1     5.159504    73A1     5.233312  
      31A2     5.277358    74A1     5.277820    48B1     5.316071  
      48B2     5.332921    49B1     5.422889    49B2     5.422898  
      50B1     5.622232    50B2     5.633960    75A1     5.758660  
      32A2     5.758660    51B1     5.788330    51B2     5.788337  
      76A1     5.906562    77A1     6.012187    33A2     6.012187  
      52B1     6.022520    52B2     6.024822    53B1     6.024837  
      53B2     6.036699    78A1     6.061958    34A2     6.070098  
      79A1     6.086432    35A2     6.092824    80A1     6.093075  
      54B1     6.202412    54B2     6.202602    55B1     6.229999  
      55B2     6.248359    81A1     6.306418    56B1     6.327289  
      56B2     6.327289    36A2     6.338737    82A1     6.338753  
      37A2     6.437355    83A1     6.438138    57B1     6.517000  
      57B2     6.517221    58B1     6.545487    58B2     6.567280  
      84A1     6.607140    38A2     6.611974    85A1     6.643386  
      59B1     6.723616    59B2     6.742379    60B1     6.935959  
      60B2     6.935962    86A1     7.013956    39A2     7.016920  
      87A1     7.030765    88A1     7.152762    40A2     7.166578  
      89A1     7.167355    61B1     7.217294    61B2     7.230880  
      41A2     7.537098    90A1     7.537098    91A1     8.013744  
      62B1     8.137878    62B2     8.137878    63B1     8.213734  
      63B2     8.228363    92A1     8.395412    42A2     8.998962  
      93A1     8.998974    94A1     9.244701    64B1     9.388297  
      64B2     9.397454    65B1     9.881896    65B2     9.881896  
      43A2     9.927989    95A1     9.928036    96A1    10.011896  
      44A2    10.788021    97A1    10.788023    66B1    10.826505  
      66B2    10.832839    98A1    11.130394    67B1    11.293322  
      67B2    11.302022    99A1    12.018427    68B1    13.851360  
      68B2    13.855471   100A1    14.839897    69B1    17.565446  
      69B2    17.565446   101A1    17.669656    45A2    17.669656  
      70B1    17.775674    70B2    17.775674   102A1    17.822139  
      46A2    17.822178   103A1    17.965924    71B1    18.055142  
      71B2    18.059435    47A2    18.913597   104A1    18.913625  
      72B1    19.275582    72B2    19.280991   105A1    19.625196  
      73B1    20.265310    73B2    20.269107    48A2    20.373250  
     106A1    20.373250    74B1    20.600623    74B2    20.600623  
     107A1    20.987195    49A2    20.987198   108A1    21.206285  
      75B1    21.571620    75B2    21.575175   109A1    21.752427  
      50A2    23.051357   110A1    23.051361   111A1    23.676450  
      76B1    24.000919    76B2    24.000919    77B1    24.013790  
      77B2    24.016848   112A1    24.466000    51A2    24.640734  
     113A1    24.640746    78B1    24.694255    78B2    24.696594  
     114A1    25.926885    79B1    35.114528    79B2    35.116096  
     115A1    35.939973   116A1   182.661134  

    Beta Occupied:                                                        

       1A1   -68.803219     2A1    -6.147334     1B1    -4.250732  
       3A1    -4.249680     1B2    -4.237396     4A1    -0.604002  
       5A1    -0.366793  

    Beta Virtual:                                                         

       2B1     0.001569     6A1     0.023962     2B2     0.026365  
       7A1     0.037541     3B1     0.050430     3B2     0.070273  
       8A1     0.088336     4B1     0.096999     4B2     0.102655  
       9A1     0.107674     1A2     0.110838    10A1     0.112034  
      11A1     0.138880    12A1     0.183136     5B1     0.191409  
       5B2     0.203501     6B1     0.210346     6B2     0.225512  
      13A1     0.252002     2A2     0.263006    14A1     0.263359  
       7B1     0.267997     7B2     0.268692     8B1     0.272991  
       8B2     0.286236    15A1     0.287214    16A1     0.310071  
       3A2     0.324564    17A1     0.329628    18A1     0.352188  
       9B1     0.373396     9B2     0.388801    19A1     0.446736  
       4A2     0.500422    10B1     0.500533    20A1     0.500836  
      10B2     0.508301     5A2     0.561166    21A1     0.561169  
      11B1     0.561222    11B2     0.561403    12B1     0.580347  
      22A1     0.585056    12B2     0.602911    23A1     0.626251  
       6A2     0.627933    13B1     0.638149    24A1     0.656174  
      13B2     0.656680    25A1     0.678399    14B1     0.686213  
      14B2     0.707993    26A1     0.713954    15B1     0.726492  
      15B2     0.727127     7A2     0.732332    27A1     0.738134  
      28A1     0.768445     8A2     0.769600    16B1     0.782041  
      29A1     0.796218    16B2     0.801325    30A1     0.906888  
      17B1     1.035101    17B2     1.047941    31A1     1.159390  
       9A2     1.159621    32A1     1.171684    18B1     1.192660  
      18B2     1.192706    33A1     1.228165    19B1     1.236644  
      19B2     1.252629    20B1     1.319474    20B2     1.319474  
      34A1     1.322814    10A2     1.322815    35A1     1.378405  
      21B1     1.392275    21B2     1.393225    36A1     1.399834  
      11A2     1.399841    22B1     1.419642    22B2     1.439881  
      37A1     1.462186    12A2     1.469628    38A1     1.475945  
      23B1     1.482832    39A1     1.491790    13A2     1.493523  
      23B2     1.501346    40A1     1.506531    24B1     1.530265  
      24B2     1.531453    41A1     1.560296    14A2     1.560573  
      25B1     1.577958    25B2     1.583619    26B1     1.593952  
      15A2     1.607217    42A1     1.608027    26B2     1.614740  
      27B1     1.642002    27B2     1.677317    43A1     1.677964  
      44A1     1.794934    28B1     1.938789    28B2     1.958355  
      45A1     2.039616    29B1     2.212508    29B2     2.228191  
      46A1     2.245818    16A2     2.248272    47A1     2.278129  
      17A2     2.352760    48A1     2.352761    49A1     2.449604  
      18A2     2.590459    50A1     2.590539    30B1     2.629913  
      30B2     2.642067    51A1     2.667127    31B1     2.707093  
      31B2     2.733977    32B1     2.775240    32B2     2.775298  
      52A1     2.783803    19A2     2.783803    33B1     2.787899  
      33B2     2.787899    34B1     2.864786    34B2     2.864813  
      53A1     2.873386    20A2     2.904019    54A1     2.907163  
      21A2     2.919462    55A1     2.923089    35B1     2.950516  
      35B2     2.950612    36B1     3.004954    36B2     3.004955  
      56A1     3.007122    22A2     3.007122    57A1     3.039340  
      23A2     3.039344    37B1     3.047706    37B2     3.072055  
      58A1     3.098461    24A2     3.103906    38B1     3.132356  
      38B2     3.132813    59A1     3.148880    60A1     3.176411  
      25A2     3.178169    39B1     3.214235    39B2     3.244691  
      40B1     3.320435    61A1     3.320596    40B2     3.320800  
      62A1     3.352033    41B1     3.352789    41B2     3.380867  
      63A1     3.382128    26A2     3.383132    64A1     3.536612  
      42B1     3.559774    42B2     3.583560    65A1     3.701766  
      27A2     3.702269    66A1     3.804180    43B1     3.940608  
      43B2     3.958618    44B1     4.239310    44B2     4.239322  
      67A1     4.281400    68A1     4.467475    28A2     4.467476  
      45B1     4.484934    45B2     4.492240    46B1     4.492240  
      46B2     4.506049    69A1     4.595349    70A1     4.976197  
      47B1     4.990532    47B2     5.005704    29A2     5.024049  
      71A1     5.024049    30A2     5.162707    72A1     5.163190  
      73A1     5.234519    31A2     5.279608    74A1     5.280274  
      48B1     5.317856    48B2     5.345416    49B1     5.425194  
      49B2     5.425217    50B1     5.622464    50B2     5.637501  
      75A1     5.769560    32A2     5.769560    51B1     5.795982  
      51B2     5.796005    76A1     5.908456    52B1     6.021479  
      77A1     6.022782    33A2     6.022783    52B2     6.033313  
      53B1     6.033332    53B2     6.040060    78A1     6.061651  
      34A2     6.073619    79A1     6.092888    35A2     6.099620  
      80A1     6.099944    54B1     6.206621    54B2     6.207117  
      55B1     6.231652    55B2     6.255903    81A1     6.308093  
      56B1     6.338626    56B2     6.338626    36A2     6.347077  
      82A1     6.347120    37A2     6.442259    83A1     6.443563  
      57B1     6.522596    57B2     6.523114    58B1     6.546976  
      58B2     6.574348    84A1     6.609793    38A2     6.617335  
      85A1     6.649377    59B1     6.724310    59B2     6.748901  
      60B1     6.941914    60B2     6.941923    86A1     7.016811  
      39A2     7.022266    87A1     7.035427    88A1     7.154348  
      40A2     7.170862    89A1     7.172227    61B1     7.217140  
      61B2     7.234927    41A2     7.537943    90A1     7.537943  
      91A1     8.015835    62B1     8.139687    62B2     8.139689  
      63B1     8.214067    63B2     8.232889    92A1     8.396902  
      42A2     9.000620    93A1     9.000634    94A1     9.246216  
      64B1     9.388235    64B2     9.399189    65B1     9.882284  
      65B2     9.882284    43A2     9.928452    95A1     9.928517  
      96A1    10.013452    44A2    10.788394    97A1    10.788398  
      66B1    10.826444    66B2    10.833780    98A1    11.130763  
      67B1    11.293324    67B2    11.303890    99A1    12.019931  
      68B1    13.850859    68B2    13.855468   100A1    14.839756  
      69B1    17.565564    69B2    17.565564   101A1    17.669806  
      45A2    17.669806    70B1    17.775793    70B2    17.775793  
     102A1    17.822251    46A2    17.822300   103A1    17.966181  
      71B1    18.054983    71B2    18.059926    47A2    18.921477  
     104A1    18.921478    72B1    19.276604    72B2    19.288345  
     105A1    19.627816    73B1    20.266950    73B2    20.282118  
      48A2    20.373204   106A1    20.373204    74B1    20.600611  
      74B2    20.600611   107A1    20.987179    49A2    20.987182  
     108A1    21.206104    75B1    21.571528    75B2    21.576365  
     109A1    21.752348    50A2    23.051077   110A1    23.051082  
     111A1    23.676837    76B1    24.000757    76B2    24.000757  
      77B1    24.013469    77B2    24.017030   112A1    24.465761  
      51A2    24.640553   113A1    24.640568    78B1    24.693949  
      78B2    24.696561   114A1    25.927181    79B1    35.114092  
      79B2    35.115777   115A1    35.939604   116A1   182.663235  

    Final Occupation by Irrep:
             A1    A2    B1    B2 
    DOCC [     5,    0,    1,    1 ]
    SOCC [     0,    0,    0,    1 ]

  @UHF Final Energy:  -289.44290025336920

   => Energetics <=

    Nuclear Repulsion Energy =              4.8836470690279272
    One-Electron Energy =                -410.9178309484877900
    Two-Electron Energy =                 116.5912836260906431
    Total Energy =                       -289.4429002533692028

  UHF NO Occupations:
  HONO-2 :    4 A1 1.9997292
  HONO-1 :    5 A1 1.9882461
  HONO-0 :    2 B2 1.0000000
  LUNO+0 :    6 A1 0.0117539
  LUNO+1 :    7 A1 0.0002708
  LUNO+2 :    3 B2 0.0000043
  LUNO+3 :    2 B1 0.0000003


Computation Completed


Properties will be evaluated at   0.000000,   0.000000,   0.000000 [a0]

Properties computed using the SCF density matrix

  Nuclear Dipole Moment: [e a0]
     X:     0.0000      Y:     0.0000      Z:    -1.3715

  Electronic Dipole Moment: [e a0]
     X:     0.0000      Y:     0.0000      Z:     1.2754

  Dipole Moment: [e a0]
     X:     0.0000      Y:     0.0000      Z:    -0.0961     Total:     0.0961

  Dipole Moment: [D]
     X:     0.0000      Y:     0.0000      Z:    -0.2443     Total:     0.2443


*** tstop() called on n412-043.vsc4.prov at Mon Jan 25 11:43:47 2021
Module time:
	user time   =     516.72 seconds =       8.61 minutes
	system time =      27.34 seconds =       0.46 minutes
	total time  =        504 seconds =       8.40 minutes
Total time:
	user time   =     516.72 seconds =       8.61 minutes
	system time =      27.34 seconds =       0.46 minutes
	total time  =        504 seconds =       8.40 minutes

*** tstart() called on n412-043.vsc4.prov
*** at Mon Jan 25 11:43:47 2021


	Wfn Parameters:
	--------------------
	Wavefunction         = CCSD_T
	Number of irreps     = 4
	Number of MOs        = 325
	Number of active MOs = 320
	AO-Basis             = NONE
	Semicanonical        = false
	Reference            = UHF
	Print Level          = 1

	IRREP	# MOs	# FZDC	# DOCC	# SOCC	# VIRT	# FZVR
	-----	-----	------	------	------	------	------
	 A1	   116	    3	    2	    0	    111	    0
	 A2	   51	    0	    0	    0	    51	    0
	 B1	   79	    1	    0	    0	    78	    0
	 B2	   79	    1	    0	    1	    77	    0
	Transforming integrals...
	IWL integrals will be deleted.
	(OO|OO)...
	Presorting SO-basis two-electron integrals.
	Sorting File: SO Ints (nn|nn) nbuckets = 1
	Constructing frozen core operators
	Starting AA/AB first half-transformation.
	Sorting AA/AB half-transformed integrals.
	Starting BB first half-transformation.
	Sorting BB half-transformed integrals.
	First half integral transformation complete.
	Starting AA second half-transformation.
	Starting AB second half-transformation.
	Starting BB second half-transformation.
	Two-electron integral transformation complete.
	(OO|OV)...
	Starting AA second half-transformation.
	Starting AB second half-transformation.
	Starting BB second half-transformation.
	Two-electron integral transformation complete.
	(OO|VV)...
	Starting AA second half-transformation.
	Starting AB second half-transformation.
	Starting BB second half-transformation.
	Two-electron integral transformation complete.
	(OV|OO)...
	Starting AA/AB first half-transformation.
	Sorting AA/AB half-transformed integrals.
	Starting BB first half-transformation.
	Sorting BB half-transformed integrals.
	First half integral transformation complete.
	Starting AA second half-transformation.
	Starting AB second half-transformation.
	Starting BB second half-transformation.
	Two-electron integral transformation complete.
	(OV|OV)...
	Starting AA second half-transformation.
	Starting AB second half-transformation.
	Starting BB second half-transformation.
	Two-electron integral transformation complete.
	(OV|VV)...
	Starting AA second half-transformation.
	Starting AB second half-transformation.
	Starting BB second half-transformation.
	Two-electron integral transformation complete.
	(VV|OO)...
	Starting AA/AB first half-transformation.
	Sorting AA/AB half-transformed integrals.
	Starting BB first half-transformation.
	Sorting BB half-transformed integrals.
	First half integral transformation complete.
	Starting AA second half-transformation.
	Starting AB second half-transformation.
	Starting BB second half-transformation.
	Two-electron integral transformation complete.
	(VV|OV)...
	Starting AA second half-transformation.
	Starting AB second half-transformation.
	Starting BB second half-transformation.
	Two-electron integral transformation complete.
	(VV|VV)...
	Starting AA second half-transformation.
	Starting AB second half-transformation.
	Starting BB second half-transformation.
	Two-electron integral transformation complete.
	Frozen core energy     =   -288.66541026924364

	Size of irrep 0 of <AB|CD> integrals:    177.129 (MW) /   1417.036 (MB)
	Size of irrep 1 of <AB|CD> integrals:    136.119 (MW) /   1088.951 (MB)
	Size of irrep 2 of <AB|CD> integrals:    158.382 (MW) /   1267.058 (MB)
	Size of irrep 3 of <AB|CD> integrals:    156.876 (MW) /   1255.005 (MB)
	Total:                                   628.506 (MW) /   5028.050 (MB)

	Size of irrep 0 of <ab|cd> integrals:    179.185 (MW) /   1433.480 (MB)
	Size of irrep 1 of <ab|cd> integrals:    137.945 (MW) /   1103.560 (MB)
	Size of irrep 2 of <ab|cd> integrals:    159.668 (MW) /   1277.348 (MB)
	Size of irrep 3 of <ab|cd> integrals:    159.668 (MW) /   1277.348 (MB)
	Total:                                   636.467 (MW) /   5091.736 (MB)

	Size of irrep 0 of <Ab|Cd> integrals:    729.648 (MW) /   5837.185 (MB)
	Size of irrep 1 of <Ab|Cd> integrals:    548.122 (MW) /   4384.974 (MB)
	Size of irrep 2 of <Ab|Cd> integrals:    636.099 (MW) /   5088.791 (MB)
	Size of irrep 3 of <Ab|Cd> integrals:    633.076 (MW) /   5064.607 (MB)
	Total:                                  2546.945 (MW) /  20375.557 (MB)

	Size of irrep 0 of <IA|BC> integrals:      8.054 (MW) /     64.429 (MB)
	Size of irrep 1 of <IA|BC> integrals:      4.200 (MW) /     33.601 (MB)
	Size of irrep 2 of <IA|BC> integrals:      5.210 (MW) /     41.682 (MB)
	Size of irrep 3 of <IA|BC> integrals:      6.638 (MW) /     53.106 (MB)
	Total:                                    24.102 (MW) /    192.817 (MB)

	Size of irrep 0 of <ia|bc> integrals:      6.014 (MW) /     48.112 (MB)
	Size of irrep 1 of <ia|bc> integrals:      2.396 (MW) /     19.168 (MB)
	Size of irrep 2 of <ia|bc> integrals:      3.942 (MW) /     31.539 (MB)
	Size of irrep 3 of <ia|bc> integrals:      3.942 (MW) /     31.539 (MB)
	Total:                                    16.295 (MW) /    130.359 (MB)

	Size of irrep 0 of <Ia|Bc> integrals:      8.104 (MW) /     64.829 (MB)
	Size of irrep 1 of <Ia|Bc> integrals:      4.214 (MW) /     33.713 (MB)
	Size of irrep 2 of <Ia|Bc> integrals:      5.221 (MW) /     41.766 (MB)
	Size of irrep 3 of <Ia|Bc> integrals:      6.718 (MW) /     53.744 (MB)
	Total:                                    24.256 (MW) /    194.052 (MB)

	Size of irrep 0 of <iA|bC> integrals:      5.997 (MW) /     47.973 (MB)
	Size of irrep 1 of <iA|bC> integrals:      2.388 (MW) /     19.104 (MB)
	Size of irrep 2 of <iA|bC> integrals:      3.934 (MW) /     31.476 (MB)
	Size of irrep 3 of <iA|bC> integrals:      3.875 (MW) /     30.998 (MB)
	Total:                                    16.194 (MW) /    129.552 (MB)

	Size of irrep 0 of tIjAb amplitudes:       0.108 (MW) /      0.864 (MB)
	Size of irrep 1 of tIjAb amplitudes:       0.000 (MW) /      0.000 (MB)
	Size of irrep 2 of tIjAb amplitudes:       0.000 (MW) /      0.000 (MB)
	Size of irrep 3 of tIjAb amplitudes:       0.050 (MW) /      0.403 (MB)
	Total:                                     0.158 (MW) /      1.267 (MB)

	Nuclear Rep. energy          =      4.88364706902793
	SCF energy                   =   -289.44290025336920
	One-electron energy          =     -9.00635362183833
	Two-electron (AA) energy     =      0.84796058653148
	Two-electron (BB) energy     =      0.26823680519592
	Two-electron (AB) energy     =      2.22901917695453
	Two-electron energy          =      3.34521656868193
	Reference energy             =   -289.44290025337210

*** tstop() called on n412-043.vsc4.prov at Mon Jan 25 11:56:31 2021
Module time:
	user time   =     305.18 seconds =       5.09 minutes
	system time =     168.01 seconds =       2.80 minutes
	total time  =        764 seconds =      12.73 minutes
Total time:
	user time   =     821.90 seconds =      13.70 minutes
	system time =     195.35 seconds =       3.26 minutes
	total time  =       1268 seconds =      21.13 minutes
            **************************
            *                        *
            *        CCENERGY        *
            *                        *
            **************************

    Nuclear Rep. energy (wfn)     =    4.883647069027927
    SCF energy          (wfn)     = -289.442900253369203
    Reference energy    (file100) = -289.442900253372102

    Input parameters:
    -----------------
    Wave function   =     CCSD_T
    Reference wfn   =     UHF
    Brueckner       =     No
    Memory (Mbytes) =     250000.0
    Maxiter         =     50
    R_Convergence   =     1.0e-07
    E_Convergence   =     1.0e-06
    Restart         =     Yes
    DIIS            =     Yes
    AO Basis        =     NONE
    ABCD            =     NEW
    Cache Level     =     2
    Cache Type      =     LRU
    Print Level     =     1
    Num. of threads =     48
    # Amps to Print =     10
    Print MP2 Amps? =     No
    Analyze T2 Amps =     No
    Print Pair Ener =     No
    Local CC        =     No
    SCS-MP2         =     False
    SCSN-MP2        =     False
    SCS-CCSD        =     False

MP2 correlation energy -0.0900768766945232
                Solving CC Amplitude Equations
                ------------------------------
  Iter             Energy              RMS        T1Diag      D1Diag    New D1Diag    D2Diag
  ----     ---------------------    ---------   ----------  ----------  ----------   --------
     0        -0.090076876694523    0.000e+00    0.000000    0.000000    0.000000    0.000000
     1        -0.101916201938067    6.051e-02    0.013499    0.000000    0.000000    0.000000
     2        -0.110014961928955    2.851e-02    0.024101    0.000000    0.000000    0.000000
     3        -0.110222992905273    8.416e-03    0.027752    0.000000    0.000000    0.000000
     4        -0.110369240152692    3.040e-03    0.028867    0.000000    0.000000    0.000000
     5        -0.110398002048076    9.928e-04    0.029048    0.000000    0.000000    0.000000
     6        -0.110383603822562    3.684e-04    0.029059    0.000000    0.000000    0.000000
     7        -0.110384505220283    1.342e-04    0.029052    0.000000    0.000000    0.000000
     8        -0.110387222224603    3.842e-05    0.029055    0.000000    0.000000    0.000000
     9        -0.110386554491379    1.450e-05    0.029056    0.000000    0.000000    0.000000
    10        -0.110386605671446    5.917e-06    0.029056    0.000000    0.000000    0.000000
    11        -0.110386576071949    2.190e-06    0.029057    0.000000    0.000000    0.000000
    12        -0.110386610342392    1.008e-06    0.029057    0.000000    0.000000    0.000000
    13        -0.110386633137367    4.288e-07    0.029057    0.000000    0.000000    0.000000
    14        -0.110386638292255    1.635e-07    0.029057    0.000000    0.000000    0.000000
    15        -0.110386636773375    6.568e-08    0.029057    0.000000    0.000000    0.000000

    Iterations converged.


    Largest TIA Amplitudes:
              1  10         0.0190125422
              1   7        -0.0180745885
              0  10        -0.0166811483
              1   3         0.0163621278
              1   6         0.0107417397
              1  20        -0.0104879268
              1   2        -0.0103403987
              0  20         0.0091632300
              0   4         0.0089919994
              1   9        -0.0086886295

    Largest Tia Amplitudes:
              1   5         0.0146498515
              0   7        -0.0133922131
              0   6         0.0126004362
              0   3         0.0125822749
              0   9        -0.0123042130
              1   3        -0.0117965205
              1   7         0.0109376462
              0   5        -0.0102935822
              1   9         0.0096277606
              1   6        -0.0084923296

    Largest TIJAB Amplitudes:
      2   1 245   7        -0.0144426685
      2   0 162 113         0.0133856748
      2   1 243   7         0.0130691086
      2   1 246   7        -0.0127093866
      2   1 243   6        -0.0097496120
      2   1 245   3         0.0096087413
      2   1 245   6         0.0095205821
      2   1 241   7         0.0094888839
      2   1 246   5        -0.0093801691
      2   1 246   3         0.0089810467

    Largest Tijab Amplitudes:
      1   0 247 241        -0.0071770935
      1   0 169 162         0.0067864937
      1   0  12   9        -0.0054814003
      1   0 246 241        -0.0052963550
      1   0 247 244        -0.0052487518
      1   0 247 240         0.0051056112
      1   0 168 162         0.0047024295
      1   0   9   5        -0.0043538277
      1   0 176 162         0.0041655773
      1   0  20   9         0.0041251558

    Largest TIjAb Amplitudes:
      1   1 162 162        -0.0592815017
      0   0 162 162        -0.0362710461
      0   1 162 162         0.0358742917
      1   1 162 163         0.0332122987
      2   1 113 162         0.0304785126
      2   0 113 162        -0.0278498513
      1   1   7   7        -0.0274107134
      1   1 163 162         0.0265824454
      1   0 162 162         0.0257882211
      1   1 162 166         0.0230737475

    SCF energy       (wfn)                    = -289.442900253369203
    Reference energy (file100)                = -289.442900253372102

    Opposite-spin MP2 correlation energy      =   -0.079845899733888
    Same-spin MP2 correlation energy          =   -0.010230976960635
    Singles MP2 correlation energy            =   -0.000000000000000
    MP2 correlation energy                    =   -0.090076876694523
      * MP2 total energy                      = -289.532977130066627

    Opposite-spin CCSD correlation energy     =   -0.099066845607435
    Same-spin CCSD correlation energy         =   -0.011319791165961
    Singles CCSD correlation energy           =    0.000000000000020
    CCSD correlation energy                   =   -0.110386636773375
      * CCSD total energy                     = -289.553286890145500

            **************************
            *                        *
            *        CCTRIPLES       *
            *                        *
            **************************


    Wave function   =    CCSD_T
    Reference wfn   =      UHF

    Nuclear Rep. energy (wfn)                =    4.883647069027927
    SCF energy          (wfn)                = -289.442900253369203
    Reference energy    (file100)            = -289.442900253372102
    CCSD energy         (file100)            =   -0.110386636773375
    Total CCSD energy   (file100)            = -289.553286890145500

    Number of ijk index combinations:
    Spin Case AAA:                                   1
    Spin Case BBB:                                   0
    Spin Case AAB:                                   6
    Spin Case ABB:                                   3
    AAA (T) energy                             =   -0.000051906263186
    BBB (T) energy                             =    0.000000000000000
    AAB (T) energy                             =   -0.002641898812581
    ABB (T) energy                             =   -0.000897273143805
    (T) energy                                   =   -0.003591078219571
      * CCSD(T) total energy                     = -289.556877968365029


    Psi4 stopped on: Monday, 25 January 2021 12:09PM
    Psi4 wall time for execution: 0:34:07.58

*** Psi4 exiting successfully. Buy a developer a beer!
