
    -----------------------------------------------------------------------
          Psi4: An Open-Source Ab Initio Electronic Structure Package
                               Psi4 1.4a3.dev88 

                         Git: Rev {master} 262e345 


    D. G. A. Smith, L. A. Burns, A. C. Simmonett, R. M. Parrish,
    M. C. Schieber, R. Galvelis, P. Kraus, H. Kruse, R. Di Remigio,
    A. Alenaizan, A. M. James, S. Lehtola, J. P. Misiewicz, M. Scheurer,
    R. A. Shaw, J. B. Schriber, Y. Xie, Z. L. Glick, D. A. Sirianni,
    J. S. O'Brien, J. M. Waldrop, A. Kumar, E. G. Hohenstein,
    B. P. Pritchard, B. R. Brooks, H. F. Schaefer III, A. Yu. Sokolov,
    K. Patkowski, A. E. DePrince III, U. Bozkaya, R. A. King,
    F. A. Evangelista, J. M. Turney, T. D. Crawford, C. D. Sherrill,
    J. Chem. Phys. 152(18) 184108 (2020). https://doi.org/10.1063/5.0006002

                            Additional Code Authors
    E. T. Seidl, C. L. Janssen, E. F. Valeev, M. L. Leininger,
    J. F. Gonthier, R. M. Richard, H. R. McAlexander, M. Saitow, X. Wang,
    P. Verma, and M. H. Lechner

             Previous Authors, Complete List of Code Contributors,
                       and Citations for Specific Modules
    https://github.com/psi4/psi4/blob/master/codemeta.json
    https://github.com/psi4/psi4/graphs/contributors
    http://psicode.org/psi4manual/master/introduction.html#citing-psifour

    -----------------------------------------------------------------------


    Psi4 started on: Tuesday, 26 January 2021 06:35PM

    Process ID: 412365
    Host:       n412-040.vsc4.prov
    PSIDATADIR: /home/fs71337/gallo4/psi4/eri-6/psi4/build/stage/share/psi4
    Memory:     500.0 MiB
    Threads:    48
    
  ==> Input File <==

--------------------------------------------------------------------------
# Any line starting with the # character is a comment line
memory 250000 mb
molecule molecule{
0 2
Si         0.0000000000        0.0000000000        0.0525562661
H          0.0000000000        0.0000000000       -1.4644413475
}

set {
  reference uhf
  basis aug-cc-pV(t+d)Z
  scf_type OUT_OF_CORE
  freeze_core true
}

energy('ccsd(t)')
--------------------------------------------------------------------------

  Memory set to 232.831 GiB by Python driver.

Scratch directory: /binfl/lv71337/airmler/temp/

*** tstart() called on n412-040.vsc4.prov
*** at Tue Jan 26 18:35:53 2021

   => Loading Basis Set <=

    Name: AUG-CC-PV(T+D)Z
    Role: ORBITAL
    Keyword: BASIS
    atoms 1 entry SI         line   776 file /home/fs71337/gallo4/psi4/eri-6/psi4/build/stage/share/psi4/basis/aug-cc-pv_tpd_z.gbs 
    atoms 2 entry H          line    68 file /home/fs71337/gallo4/psi4/eri-6/psi4/build/stage/share/psi4/basis/aug-cc-pv_tpd_z.gbs 


         ---------------------------------------------------------
                                   SCF
               by Justin Turney, Rob Parrish, Andy Simmonett
                          and Daniel G. A. Smith
                              UHF Reference
                       48 Threads, 238418 MiB Core
         ---------------------------------------------------------

  ==> Geometry <==

    Molecular point group: c2v
    Full point group: C_inf_v

    Geometry (in Angstrom), charge = 0, multiplicity = 2:

       Center              X                  Y                   Z               Mass       
    ------------   -----------------  -----------------  -----------------  -----------------
         SI           0.000000000000     0.000000000000     0.052747326997    27.976926534650
         H            0.000000000000     0.000000000000    -1.464250286603     1.007825032230

  Running in c2v symmetry.

  Rotational constants: A = ************  B =      7.53028  C =      7.53028 [cm^-1]
  Rotational constants: A = ************  B = 225752.12288  C = 225752.12288 [MHz]
  Nuclear repulsion =    4.883647069027927

  Charge       = 0
  Multiplicity = 2
  Electrons    = 15
  Nalpha       = 8
  Nbeta        = 7

  ==> Algorithm <==

  SCF Algorithm Type is OUT_OF_CORE.
  DIIS enabled.
  MOM disabled.
  Fractional occupation disabled.
  Guess Type is SAD.
  Energy threshold   = 1.00e-08
  Density threshold  = 1.00e-08
  Integral threshold = 1.00e-12

  ==> Primary Basis <==

  Basis Set: AUG-CC-PV(T+D)Z
    Blend: AUG-CC-PV(T+D)Z
    Number of shells: 26
    Number of basis function: 78
    Number of Cartesian functions: 90
    Spherical Harmonics?: true
    Max angular momentum: 3

  ==> Integral Setup <==

  ==> DiskJK: Disk-Based J/K Matrices <==

    J tasked:                  Yes
    K tasked:                  Yes
    wK tasked:                  No
    Memory [MiB]:           178813
    Schwarz Cutoff:          1E-12

  Minimum eigenvalue in the overlap matrix is 6.0592255757E-04.
  Reciprocal condition number of the overlap matrix is 1.2228211063E-04.
    Using symmetric orthogonalization.

  ==> Pre-Iterations <==

  SCF Guess: Superposition of Atomic Densities via on-the-fly atomic UHF (no occupation information).


 WARNING: Atomic UHF is not converging! Try casting from a smaller basis or call Rob at CCMST.

 WARNING: Atomic UHF is not converging! Try casting from a smaller basis or call Rob at CCMST.
   -------------------------
    Irrep   Nso     Nmo    
   -------------------------
     A1        34      34 
     A2         8       8 
     B1        18      18 
     B2        18      18 
   -------------------------
    Total      78      78
   -------------------------

  ==> Iterations <==

                        Total Energy        Delta E     RMS |[F,P]|

   @UHF iter SAD:  -281.54245695919906   -2.81542e+02   0.00000e+00 
   @UHF iter   1:  -289.37947752230980   -7.83702e+00   8.05191e-03 DIIS
   @UHF iter   2:  -289.43633994277337   -5.68624e-02   1.84500e-03 DIIS
   @UHF iter   3:  -289.43934760050342   -3.00766e-03   4.59264e-04 DIIS
   @UHF iter   4:  -289.43997281768446   -6.25217e-04   1.50451e-04 DIIS
   @UHF iter   5:  -289.44007887136928   -1.06054e-04   5.07474e-05 DIIS
   @UHF iter   6:  -289.44009397359065   -1.51022e-05   2.71137e-05 DIIS
   @UHF iter   7:  -289.44009971851312   -5.74492e-06   1.26637e-05 DIIS
   @UHF iter   8:  -289.44010099846014   -1.27995e-06   4.76408e-06 DIIS
   @UHF iter   9:  -289.44010114072086   -1.42261e-07   1.05654e-06 DIIS
   @UHF iter  10:  -289.44010114651309   -5.79223e-09   2.02520e-07 DIIS
   @UHF iter  11:  -289.44010114670635   -1.93268e-10   5.06836e-08 DIIS
   @UHF iter  12:  -289.44010114672068   -1.43245e-11   1.33056e-08 DIIS
   @UHF iter  13:  -289.44010114672182   -1.13687e-12   2.54013e-09 DIIS
  Energy and wave function converged.


  ==> Post-Iterations <==

   @Spin Contamination Metric:   2.363493425E-02
   @S^2 Expected:                7.500000000E-01
   @S^2 Observed:                7.736349342E-01
   @S   Expected:                5.000000000E-01
   @S   Observed:                5.000000000E-01

    Orbital Energies [Eh]
    ---------------------

    Alpha Occupied:                                                       

       1A1   -68.809600     2A1    -6.154575     1B2    -4.264610  
       1B1    -4.254579     3A1    -4.252751     4A1    -0.658403  
       5A1    -0.389806     2B2    -0.297108  

    Alpha Virtual:                                                        

       2B1    -0.007456     6A1     0.035254     7A1     0.061063  
       3B2     0.070835     3B1     0.083409     8A1     0.119042  
       9A1     0.147524     4B2     0.147751     4B1     0.149217  
       1A2     0.149858    10A1     0.154621    11A1     0.241812  
      12A1     0.283392     5B2     0.321608     5B1     0.322077  
       6B2     0.436863     2A2     0.438294    13A1     0.438859  
       6B1     0.457516     7B2     0.459110    14A1     0.465563  
       7B1     0.467441     8B2     0.486951     8B1     0.487486  
       3A2     0.491574    15A1     0.492295    16A1     0.543085  
      17A1     0.603403     9B1     0.614650     9B2     0.619686  
      18A1     0.652583    19A1     0.856159     4A2     1.014845  
      20A1     1.014990    10B1     1.044922    10B2     1.048867  
      21A1     1.204807    11B1     1.227684    22A1     1.232966  
       5A2     1.233176    11B2     1.235941    23A1     1.302529  
      12B1     1.389215    12B2     1.395565    13B1     1.423009  
      13B2     1.423018    24A1     1.449429     6A2     1.449743  
      25A1     1.575459    14B1     1.727301    14B2     1.736363  
      26A1     1.974196    15B2     2.624332    15B1     2.625649  
      27A1     2.804667    28A1     3.045653    29A1     3.681704  
       7A2     3.980613    30A1     3.980632    16B1     4.081879  
      16B2     4.087070    31A1     4.330688    17B1     4.376934  
      17B2     4.381730    32A1     4.776352     8A2     4.776411  
      18B1     4.922955    33A1     4.926599    18B2     4.935238  
      34A1     5.996528  

    Beta Occupied:                                                        

       1A1   -68.804664     2A1    -6.148562     1B1    -4.251984  
       3A1    -4.250700     1B2    -4.238634     4A1    -0.604481  
       5A1    -0.366922  

    Beta Virtual:                                                         

       2B1     0.002129     2B2     0.032397     6A1     0.037009  
       7A1     0.062281     3B1     0.087277     3B2     0.111974  
       8A1     0.123348     4B1     0.149736     9A1     0.158404  
       4B2     0.161495     1A2     0.164415    10A1     0.166364  
      11A1     0.250563    12A1     0.287161     5B1     0.323035  
       5B2     0.334291     6B1     0.461406    13A1     0.464263  
       7B1     0.469680     2A2     0.485174    14A1     0.489817  
       6B2     0.491466     7B2     0.497633     3A2     0.500720  
       8B1     0.501605    15A1     0.503146     8B2     0.505887  
      16A1     0.554388    17A1     0.612218     9B1     0.616407  
       9B2     0.635221    18A1     0.659325    19A1     0.862555  
       4A2     1.019807    20A1     1.020520    10B1     1.044866  
      10B2     1.054361    21A1     1.207373    11B1     1.228560  
      22A1     1.254582    11B2     1.255633     5A2     1.258235  
      23A1     1.311906    12B1     1.389797    12B2     1.413732  
      13B1     1.454059    13B2     1.454594    24A1     1.466678  
       6A2     1.468627    25A1     1.586604    14B1     1.728868  
      14B2     1.755934    26A1     1.977407    15B1     2.629018  
      15B2     2.660248    27A1     2.808111    28A1     3.047466  
      29A1     3.687231     7A2     3.981594    30A1     3.981638  
      16B1     4.081465    16B2     4.089520    31A1     4.330561  
      17B1     4.376014    17B2     4.382730    32A1     4.782509  
       8A2     4.782575    18B1     4.923845    33A1     4.928198  
      18B2     4.942209    34A1     6.000047  

    Final Occupation by Irrep:
             A1    A2    B1    B2 
    DOCC [     5,    0,    1,    1 ]
    SOCC [     0,    0,    0,    1 ]

  @UHF Final Energy:  -289.44010114672182

   => Energetics <=

    Nuclear Repulsion Energy =              4.8836470690279272
    One-Electron Energy =                -410.9001179374060371
    Two-Electron Energy =                 116.5763697216563060
    Total Energy =                       -289.4401011467218154

  UHF NO Occupations:
  HONO-2 :    4 A1 1.9997346
  HONO-1 :    5 A1 1.9883849
  HONO-0 :    2 B2 1.0000000
  LUNO+0 :    6 A1 0.0116151
  LUNO+1 :    7 A1 0.0002654
  LUNO+2 :    3 B2 0.0000039
  LUNO+3 :    2 B1 0.0000003


Computation Completed


Properties will be evaluated at   0.000000,   0.000000,   0.000000 [a0]

Properties computed using the SCF density matrix

  Nuclear Dipole Moment: [e a0]
     X:     0.0000      Y:     0.0000      Z:    -1.3715

  Electronic Dipole Moment: [e a0]
     X:     0.0000      Y:     0.0000      Z:     1.2736

  Dipole Moment: [e a0]
     X:     0.0000      Y:     0.0000      Z:    -0.0979     Total:     0.0979

  Dipole Moment: [D]
     X:     0.0000      Y:     0.0000      Z:    -0.2490     Total:     0.2490


*** tstop() called on n412-040.vsc4.prov at Tue Jan 26 18:35:58 2021
Module time:
	user time   =      33.88 seconds =       0.56 minutes
	system time =       2.29 seconds =       0.04 minutes
	total time  =          5 seconds =       0.08 minutes
Total time:
	user time   =      33.88 seconds =       0.56 minutes
	system time =       2.29 seconds =       0.04 minutes
	total time  =          5 seconds =       0.08 minutes

*** tstart() called on n412-040.vsc4.prov
*** at Tue Jan 26 18:35:58 2021


	Wfn Parameters:
	--------------------
	Wavefunction         = CCSD_T
	Number of irreps     = 4
	Number of MOs        = 78
	Number of active MOs = 73
	AO-Basis             = NONE
	Semicanonical        = false
	Reference            = UHF
	Print Level          = 1

	IRREP	# MOs	# FZDC	# DOCC	# SOCC	# VIRT	# FZVR
	-----	-----	------	------	------	------	------
	 A1	   34	    3	    2	    0	    29	    0
	 A2	   8	    0	    0	    0	    8	    0
	 B1	   18	    1	    0	    0	    17	    0
	 B2	   18	    1	    0	    1	    16	    0
	Transforming integrals...
	IWL integrals will be deleted.
	(OO|OO)...
	Presorting SO-basis two-electron integrals.
	Sorting File: SO Ints (nn|nn) nbuckets = 1
	Constructing frozen core operators
	Starting AA/AB first half-transformation.
	Sorting AA/AB half-transformed integrals.
	Starting BB first half-transformation.
	Sorting BB half-transformed integrals.
	First half integral transformation complete.
	Starting AA second half-transformation.
	Starting AB second half-transformation.
	Starting BB second half-transformation.
	Two-electron integral transformation complete.
	(OO|OV)...
	Starting AA second half-transformation.
	Starting AB second half-transformation.
	Starting BB second half-transformation.
	Two-electron integral transformation complete.
	(OO|VV)...
	Starting AA second half-transformation.
	Starting AB second half-transformation.
	Starting BB second half-transformation.
	Two-electron integral transformation complete.
	(OV|OO)...
	Starting AA/AB first half-transformation.
	Sorting AA/AB half-transformed integrals.
	Starting BB first half-transformation.
	Sorting BB half-transformed integrals.
	First half integral transformation complete.
	Starting AA second half-transformation.
	Starting AB second half-transformation.
	Starting BB second half-transformation.
	Two-electron integral transformation complete.
	(OV|OV)...
	Starting AA second half-transformation.
	Starting AB second half-transformation.
	Starting BB second half-transformation.
	Two-electron integral transformation complete.
	(OV|VV)...
	Starting AA second half-transformation.
	Starting AB second half-transformation.
	Starting BB second half-transformation.
	Two-electron integral transformation complete.
	(VV|OO)...
	Starting AA/AB first half-transformation.
	Sorting AA/AB half-transformed integrals.
	Starting BB first half-transformation.
	Sorting BB half-transformed integrals.
	First half integral transformation complete.
	Starting AA second half-transformation.
	Starting AB second half-transformation.
	Starting BB second half-transformation.
	Two-electron integral transformation complete.
	(VV|OV)...
	Starting AA second half-transformation.
	Starting AB second half-transformation.
	Starting BB second half-transformation.
	Two-electron integral transformation complete.
	(VV|VV)...
	Starting AA second half-transformation.
	Starting AB second half-transformation.
	Starting BB second half-transformation.
	Two-electron integral transformation complete.
	Frozen core energy     =   -288.66396583186855

	Size of irrep 0 of <AB|CD> integrals:      0.476 (MW) /      3.809 (MB)
	Size of irrep 1 of <AB|CD> integrals:      0.254 (MW) /      2.032 (MB)
	Size of irrep 2 of <AB|CD> integrals:      0.386 (MW) /      3.085 (MB)
	Size of irrep 3 of <AB|CD> integrals:      0.360 (MW) /      2.880 (MB)
	Total:                                     1.476 (MW) /     11.806 (MB)

	Size of irrep 0 of <ab|cd> integrals:      0.498 (MW) /      3.987 (MB)
	Size of irrep 1 of <ab|cd> integrals:      0.271 (MW) /      2.172 (MB)
	Size of irrep 2 of <ab|cd> integrals:      0.396 (MW) /      3.165 (MB)
	Size of irrep 3 of <ab|cd> integrals:      0.396 (MW) /      3.165 (MB)
	Total:                                     1.561 (MW) /     12.489 (MB)

	Size of irrep 0 of <Ab|Cd> integrals:      2.149 (MW) /     17.193 (MB)
	Size of irrep 1 of <Ab|Cd> integrals:      1.051 (MW) /      8.405 (MB)
	Size of irrep 2 of <Ab|Cd> integrals:      1.562 (MW) /     12.500 (MB)
	Size of irrep 3 of <Ab|Cd> integrals:      1.510 (MW) /     12.084 (MB)
	Total:                                     6.273 (MW) /     50.182 (MB)

	Size of irrep 0 of <IA|BC> integrals:      0.107 (MW) /      0.858 (MB)
	Size of irrep 1 of <IA|BC> integrals:      0.033 (MW) /      0.266 (MB)
	Size of irrep 2 of <IA|BC> integrals:      0.052 (MW) /      0.417 (MB)
	Size of irrep 3 of <IA|BC> integrals:      0.073 (MW) /      0.586 (MB)
	Total:                                     0.266 (MW) /      2.127 (MB)

	Size of irrep 0 of <ia|bc> integrals:      0.086 (MW) /      0.688 (MB)
	Size of irrep 1 of <ia|bc> integrals:      0.017 (MW) /      0.133 (MB)
	Size of irrep 2 of <ia|bc> integrals:      0.043 (MW) /      0.342 (MB)
	Size of irrep 3 of <ia|bc> integrals:      0.043 (MW) /      0.342 (MB)
	Total:                                     0.188 (MW) /      1.506 (MB)

	Size of irrep 0 of <Ia|Bc> integrals:      0.110 (MW) /      0.880 (MB)
	Size of irrep 1 of <Ia|Bc> integrals:      0.034 (MW) /      0.271 (MB)
	Size of irrep 2 of <Ia|Bc> integrals:      0.052 (MW) /      0.420 (MB)
	Size of irrep 3 of <Ia|Bc> integrals:      0.077 (MW) /      0.619 (MB)
	Total:                                     0.274 (MW) /      2.190 (MB)

	Size of irrep 0 of <iA|bC> integrals:      0.085 (MW) /      0.680 (MB)
	Size of irrep 1 of <iA|bC> integrals:      0.016 (MW) /      0.131 (MB)
	Size of irrep 2 of <iA|bC> integrals:      0.043 (MW) /      0.340 (MB)
	Size of irrep 3 of <iA|bC> integrals:      0.039 (MW) /      0.315 (MB)
	Total:                                     0.183 (MW) /      1.466 (MB)

	Size of irrep 0 of tIjAb amplitudes:       0.006 (MW) /      0.047 (MB)
	Size of irrep 1 of tIjAb amplitudes:       0.000 (MW) /      0.000 (MB)
	Size of irrep 2 of tIjAb amplitudes:       0.000 (MW) /      0.000 (MB)
	Size of irrep 3 of tIjAb amplitudes:       0.002 (MW) /      0.020 (MB)
	Total:                                     0.008 (MW) /      0.067 (MB)

	Nuclear Rep. energy          =      4.88364706902793
	SCF energy                   =   -289.44010114672182
	One-electron energy          =     -9.00284468129047
	Two-electron (AA) energy     =      0.84725272585771
	Two-electron (BB) energy     =      0.26825245612354
	Two-electron (AB) energy     =      2.22755711542950
	Two-electron energy          =      3.34306229741075
	Reference energy             =   -289.44010114672034

*** tstop() called on n412-040.vsc4.prov at Tue Jan 26 18:36:03 2021
Module time:
	user time   =       0.97 seconds =       0.02 minutes
	system time =       0.64 seconds =       0.01 minutes
	total time  =          5 seconds =       0.08 minutes
Total time:
	user time   =      34.85 seconds =       0.58 minutes
	system time =       2.93 seconds =       0.05 minutes
	total time  =         10 seconds =       0.17 minutes
            **************************
            *                        *
            *        CCENERGY        *
            *                        *
            **************************

    Nuclear Rep. energy (wfn)     =    4.883647069027927
    SCF energy          (wfn)     = -289.440101146721815
    Reference energy    (file100) = -289.440101146720338

    Input parameters:
    -----------------
    Wave function   =     CCSD_T
    Reference wfn   =     UHF
    Brueckner       =     No
    Memory (Mbytes) =     250000.0
    Maxiter         =     50
    R_Convergence   =     1.0e-07
    E_Convergence   =     1.0e-06
    Restart         =     Yes
    DIIS            =     Yes
    AO Basis        =     NONE
    ABCD            =     NEW
    Cache Level     =     2
    Cache Type      =     LRU
    Print Level     =     1
    Num. of threads =     48
    # Amps to Print =     10
    Print MP2 Amps? =     No
    Analyze T2 Amps =     No
    Print Pair Ener =     No
    Local CC        =     No
    SCS-MP2         =     False
    SCSN-MP2        =     False
    SCS-CCSD        =     False

MP2 correlation energy -0.0818880944236431
                Solving CC Amplitude Equations
                ------------------------------
  Iter             Energy              RMS        T1Diag      D1Diag    New D1Diag    D2Diag
  ----     ---------------------    ---------   ----------  ----------  ----------   --------
     0        -0.081888094423643    0.000e+00    0.000000    0.000000    0.000000    0.000000
     1        -0.097397444729099    6.239e-02    0.012383    0.000000    0.000000    0.000000
     2        -0.105208055953167    2.877e-02    0.023463    0.000000    0.000000    0.000000
     3        -0.105744887290762    8.482e-03    0.027554    0.000000    0.000000    0.000000
     4        -0.105823790886705    2.366e-03    0.028306    0.000000    0.000000    0.000000
     5        -0.105820383188624    9.078e-04    0.028465    0.000000    0.000000    0.000000
     6        -0.105814499586361    3.024e-04    0.028452    0.000000    0.000000    0.000000
     7        -0.105818888815447    9.581e-05    0.028455    0.000000    0.000000    0.000000
     8        -0.105819637737133    3.206e-05    0.028458    0.000000    0.000000    0.000000
     9        -0.105818981213103    1.062e-05    0.028458    0.000000    0.000000    0.000000
    10        -0.105818933990814    4.151e-06    0.028459    0.000000    0.000000    0.000000
    11        -0.105818940480253    1.796e-06    0.028459    0.000000    0.000000    0.000000
    12        -0.105818999713809    7.556e-07    0.028459    0.000000    0.000000    0.000000
    13        -0.105818996596918    2.670e-07    0.028459    0.000000    0.000000    0.000000
    14        -0.105818992766340    9.364e-08    0.028459    0.000000    0.000000    0.000000

    Iterations converged.


    Largest TIA Amplitudes:
              1   3         0.0228407096
              1   7        -0.0209508804
              1   2        -0.0171724869
              0   7        -0.0155150978
              0   4        -0.0113106319
              2  55        -0.0103959413
              1   8         0.0094166636
              2  56        -0.0081623326
              0   3         0.0073624176
              1   5         0.0072561450

    Largest Tia Amplitudes:
              0   3         0.0178269932
              1   3        -0.0176854193
              1   5        -0.0159796208
              0   5         0.0148309545
              0   2        -0.0091694623
              0   6         0.0089481910
              1   1        -0.0085004087
              1   2         0.0071003130
              0   7         0.0070872751
              1  12        -0.0060365488

    Largest TIJAB Amplitudes:
      2   1  55   3        -0.0152936384
      2   1  55   5        -0.0143997588
      2   1  58   5         0.0140485675
      2   1  56   5        -0.0133119536
      2   1  55   2         0.0132160982
      2   0  37  30        -0.0130604117
      2   1  56   3        -0.0129485549
      2   1  58   3         0.0128792310
      2   1  56   2         0.0113545440
      2   1  58   2        -0.0110470186

    Largest Tijab Amplitudes:
      1   0  40  37        -0.0073214573
      1   0  57  55        -0.0068064409
      1   0  39  37        -0.0062497993
      1   0  56  55        -0.0060485643
      1   0  57  54        -0.0060484726
      1   0   6   5        -0.0057486916
      1   0  58  55        -0.0056265949
      1   0  56  54        -0.0054629988
      1   0  12   3         0.0054217018
      1   0  12  11        -0.0051183848

    Largest TIjAb Amplitudes:
      1   1  37  37        -0.0631632716
      0   0  37  37         0.0387244657
      1   1  37  38        -0.0382794985
      0   1  37  37        -0.0381634160
      1   1  38  37        -0.0329246377
      1   1  37  41         0.0318953730
      2   1  30  37         0.0312461318
      2   0  30  37        -0.0306672807
      1   0  37  37         0.0275025904
      2   0   7  55        -0.0270513378

    SCF energy       (wfn)                    = -289.440101146721815
    Reference energy (file100)                = -289.440101146720338

    Opposite-spin MP2 correlation energy      =   -0.072077265416934
    Same-spin MP2 correlation energy          =   -0.009810829006709
    Singles MP2 correlation energy            =   -0.000000000000000
    MP2 correlation energy                    =   -0.081888094423643
      * MP2 total energy                      = -289.521989241143956

    Opposite-spin CCSD correlation energy     =   -0.094833527718296
    Same-spin CCSD correlation energy         =   -0.010985465048044
    Singles CCSD correlation energy           =    0.000000000000000
    CCSD correlation energy                   =   -0.105818992766340
      * CCSD total energy                     = -289.545920139486668

            **************************
            *                        *
            *        CCTRIPLES       *
            *                        *
            **************************


    Wave function   =    CCSD_T
    Reference wfn   =      UHF

    Nuclear Rep. energy (wfn)                =    4.883647069027927
    SCF energy          (wfn)                = -289.440101146721815
    Reference energy    (file100)            = -289.440101146720338
    CCSD energy         (file100)            =   -0.105818992766340
    Total CCSD energy   (file100)            = -289.545920139486668

    Number of ijk index combinations:
    Spin Case AAA:                                   1
    Spin Case BBB:                                   0
    Spin Case AAB:                                   6
    Spin Case ABB:                                   3
    AAA (T) energy                             =   -0.000045969250741
    BBB (T) energy                             =    0.000000000000000
    AAB (T) energy                             =   -0.002328482941113
    ABB (T) energy                             =   -0.000808956889315
    (T) energy                                   =   -0.003183409081169
      * CCSD(T) total energy                     = -289.549103548567871


    Psi4 stopped on: Tuesday, 26 January 2021 06:36PM
    Psi4 wall time for execution: 0:00:15.78

*** Psi4 exiting successfully. Buy a developer a beer!
