
    -----------------------------------------------------------------------
          Psi4: An Open-Source Ab Initio Electronic Structure Package
                               Psi4 1.4a3.dev88 

                         Git: Rev {master} 262e345 


    D. G. A. Smith, L. A. Burns, A. C. Simmonett, R. M. Parrish,
    M. C. Schieber, R. Galvelis, P. Kraus, H. Kruse, R. Di Remigio,
    A. Alenaizan, A. M. James, S. Lehtola, J. P. Misiewicz, M. Scheurer,
    R. A. Shaw, J. B. Schriber, Y. Xie, Z. L. Glick, D. A. Sirianni,
    J. S. O'Brien, J. M. Waldrop, A. Kumar, E. G. Hohenstein,
    B. P. Pritchard, B. R. Brooks, H. F. Schaefer III, A. Yu. Sokolov,
    K. Patkowski, A. E. DePrince III, U. Bozkaya, R. A. King,
    F. A. Evangelista, J. M. Turney, T. D. Crawford, C. D. Sherrill,
    J. Chem. Phys. 152(18) 184108 (2020). https://doi.org/10.1063/5.0006002

                            Additional Code Authors
    E. T. Seidl, C. L. Janssen, E. F. Valeev, M. L. Leininger,
    J. F. Gonthier, R. M. Richard, H. R. McAlexander, M. Saitow, X. Wang,
    P. Verma, and M. H. Lechner

             Previous Authors, Complete List of Code Contributors,
                       and Citations for Specific Modules
    https://github.com/psi4/psi4/blob/master/codemeta.json
    https://github.com/psi4/psi4/graphs/contributors
    http://psicode.org/psi4manual/master/introduction.html#citing-psifour

    -----------------------------------------------------------------------


    Psi4 started on: Tuesday, 26 January 2021 06:39PM

    Process ID: 412683
    Host:       n412-039.vsc4.prov
    PSIDATADIR: /home/fs71337/gallo4/psi4/eri-6/psi4/build/stage/share/psi4
    Memory:     500.0 MiB
    Threads:    48
    
  ==> Input File <==

--------------------------------------------------------------------------
# Any line starting with the # character is a comment line
memory 250000 mb
molecule molecule{
0 1
C         -0.0131849130        0.0000000000       -0.7300158634
O          0.0640939097        0.0000000000        0.6915053898
H         -0.5186806976       -0.8893140541       -1.1100627930
H         -0.5186806976        0.8893140541       -1.1100627930
H          1.0094357309        0.0000000000       -1.0953577182
H         -0.8323439031        0.0000000000        1.0381148124
}

set {
  reference rhf
  basis aug-cc-pV(d+d)Z
  scf_type OUT_OF_CORE
  freeze_core true
}

energy('ccsd(t)')
--------------------------------------------------------------------------

  Memory set to 232.831 GiB by Python driver.

Scratch directory: /binfl/lv71337/airmler/temp/

*** tstart() called on n412-039.vsc4.prov
*** at Tue Jan 26 18:39:39 2021

   => Loading Basis Set <=

    Name: AUG-CC-PV(D+D)Z
    Role: ORBITAL
    Keyword: BASIS
    atoms 1   entry C          line   210 file /home/fs71337/gallo4/psi4/eri-6/psi4/build/stage/share/psi4/basis/aug-cc-pv_dpd_z.gbs 
    atoms 2   entry O          line   282 file /home/fs71337/gallo4/psi4/eri-6/psi4/build/stage/share/psi4/basis/aug-cc-pv_dpd_z.gbs 
    atoms 3-6 entry H          line    68 file /home/fs71337/gallo4/psi4/eri-6/psi4/build/stage/share/psi4/basis/aug-cc-pv_dpd_z.gbs 


         ---------------------------------------------------------
                                   SCF
               by Justin Turney, Rob Parrish, Andy Simmonett
                          and Daniel G. A. Smith
                              RHF Reference
                       48 Threads, 238418 MiB Core
         ---------------------------------------------------------

  ==> Geometry <==

    Molecular point group: cs
    Full point group: Cs

    Geometry (in Angstrom), charge = 0, multiplicity = 1:

       Center              X                  Y                   Z               Mass       
    ------------   -----------------  -----------------  -----------------  -----------------
         C            0.013183553264    -0.730177928584     0.000000000000    12.000000000000
         O           -0.064095269436     0.691343324616     0.000000000000    15.994914619570
         H            0.518679337864    -1.110224858184    -0.889314054100     1.007825032230
         H            0.518679337864    -1.110224858184     0.889314054100     1.007825032230
         H           -1.009437090636    -1.095519783384     0.000000000000     1.007825032230
         H            0.832342543364     1.037952747216     0.000000000000     1.007825032230

  Running in cs symmetry.

  Rotational constants: A =      4.29018  B =      0.82568  C =      0.79676 [cm^-1]
  Rotational constants: A = 128616.40570  B =  24753.17753  C =  23886.16691 [MHz]
  Nuclear repulsion =   40.295712738859962

  Charge       = 0
  Multiplicity = 1
  Electrons    = 18
  Nalpha       = 9
  Nbeta        = 9

  ==> Algorithm <==

  SCF Algorithm Type is OUT_OF_CORE.
  DIIS enabled.
  MOM disabled.
  Fractional occupation disabled.
  Guess Type is SAD.
  Energy threshold   = 1.00e-08
  Density threshold  = 1.00e-08
  Integral threshold = 1.00e-12

  ==> Primary Basis <==

  Basis Set: AUG-CC-PV(D+D)Z
    Blend: AUG-CC-PV(D+D)Z
    Number of shells: 38
    Number of basis function: 82
    Number of Cartesian functions: 86
    Spherical Harmonics?: true
    Max angular momentum: 2

  ==> Integral Setup <==

  ==> DiskJK: Disk-Based J/K Matrices <==

    J tasked:                  Yes
    K tasked:                  Yes
    wK tasked:                  No
    Memory [MiB]:           178813
    Schwarz Cutoff:          1E-12

  Minimum eigenvalue in the overlap matrix is 5.4506087476E-04.
  Reciprocal condition number of the overlap matrix is 6.5084686739E-05.
    Using symmetric orthogonalization.

  ==> Pre-Iterations <==

  SCF Guess: Superposition of Atomic Densities via on-the-fly atomic UHF (no occupation information).


 WARNING: Atomic UHF is not converging! Try casting from a smaller basis or call Rob at CCMST.

 WARNING: Atomic UHF is not converging! Try casting from a smaller basis or call Rob at CCMST.
   -------------------------
    Irrep   Nso     Nmo    
   -------------------------
     A'        55      55 
     A"        27      27 
   -------------------------
    Total      82      82
   -------------------------

  ==> Iterations <==

                        Total Energy        Delta E     RMS |[F,P]|

   @RHF iter SAD:  -111.76800967759715   -1.11768e+02   0.00000e+00 
   @RHF iter   1:  -114.86812592351770   -3.10012e+00   7.88379e-03 DIIS
   @RHF iter   2:  -115.02622216748162   -1.58096e-01   3.12332e-03 DIIS
   @RHF iter   3:  -115.05300199172703   -2.67798e-02   1.57100e-03 DIIS
   @RHF iter   4:  -115.06079372357527   -7.79173e-03   3.90893e-04 DIIS
   @RHF iter   5:  -115.06141303825282   -6.19315e-04   1.20496e-04 DIIS
   @RHF iter   6:  -115.06148219408180   -6.91558e-05   2.33089e-05 DIIS
   @RHF iter   7:  -115.06148457518739   -2.38111e-06   4.61621e-06 DIIS
   @RHF iter   8:  -115.06148467916717   -1.03980e-07   8.58294e-07 DIIS
   @RHF iter   9:  -115.06148468285181   -3.68465e-09   1.75553e-07 DIIS
   @RHF iter  10:  -115.06148468301504   -1.63226e-10   4.09309e-08 DIIS
   @RHF iter  11:  -115.06148468302453   -9.49285e-12   8.96213e-09 DIIS
  Energy and wave function converged.


  ==> Post-Iterations <==

    Orbital Energies [Eh]
    ---------------------

    Doubly Occupied:                                                      

       1Ap   -20.568432     2Ap   -11.278929     3Ap    -1.359883  
       4Ap    -0.927823     5Ap    -0.691311     1App   -0.620090  
       6Ap    -0.592832     7Ap    -0.504685     2App   -0.450956  

    Virtual:                                                              

       8Ap     0.034515     9Ap     0.051714     3App    0.058048  
      10Ap     0.065610    11Ap     0.115037    12Ap     0.140335  
       4App    0.153355    13Ap     0.171778    14Ap     0.208160  
      15Ap     0.222406     5App    0.243786     6App    0.281088  
      16Ap     0.281891    17Ap     0.325925    18Ap     0.338102  
      19Ap     0.384955     7App    0.394418    20Ap     0.420956  
      21Ap     0.436333     8App    0.440282    22Ap     0.463651  
       9App    0.471578    10App    0.518625    23Ap     0.552947  
      24Ap     0.576644    25Ap     0.610427    11App    0.627084  
      26Ap     0.634776    27Ap     0.654134    12App    0.663213  
      28Ap     0.682375    29Ap     0.727936    13App    0.743908  
      30Ap     0.755542    31Ap     0.916090    14App    0.970047  
      32Ap     1.000221    33Ap     1.046855    34Ap     1.111978  
      15App    1.194344    35Ap     1.231342    16App    1.232412  
      36Ap     1.370109    17App    1.428250    37Ap     1.524775  
      38Ap     1.616380    18App    1.716944    39Ap     1.766643  
      19App    1.777824    40Ap     1.792278    20App    1.880267  
      41Ap     1.900791    42Ap     2.089254    21App    2.108928  
      43Ap     2.113845    22App    2.181566    44Ap     2.246346  
      23App    2.268870    45Ap     2.313352    46Ap     2.399222  
      47Ap     2.533365    24App    2.631383    48Ap     2.709255  
      49Ap     2.787674    50Ap     2.898796    25App    2.912529  
      51Ap     3.055468    52Ap     3.150100    26App    3.738363  
      53Ap     3.756276    27App    3.791498    54Ap     3.892096  
      55Ap     4.280740  

    Final Occupation by Irrep:
             Ap   App 
    DOCC [     7,    2 ]

  @RHF Final Energy:  -115.06148468302453

   => Energetics <=

    Nuclear Repulsion Energy =             40.2957127388599616
    One-Electron Energy =                -236.7245110570601696
    Two-Electron Energy =                  81.3673136351756909
    Total Energy =                       -115.0614846830245313

Computation Completed


Properties will be evaluated at   0.000000,   0.000000,   0.000000 [a0]

Properties computed using the SCF density matrix

  Nuclear Dipole Moment: [e a0]
     X:     0.8062      Y:    -2.1322      Z:     0.0000

  Electronic Dipole Moment: [e a0]
     X:    -0.2143      Y:     1.7304      Z:     0.0000

  Dipole Moment: [e a0]
     X:     0.5918      Y:    -0.4019      Z:     0.0000     Total:     0.7154

  Dipole Moment: [D]
     X:     1.5043      Y:    -1.0215      Z:     0.0000     Total:     1.8183


*** tstop() called on n412-039.vsc4.prov at Tue Jan 26 18:39:43 2021
Module time:
	user time   =      25.19 seconds =       0.42 minutes
	system time =       1.26 seconds =       0.02 minutes
	total time  =          4 seconds =       0.07 minutes
Total time:
	user time   =      25.19 seconds =       0.42 minutes
	system time =       1.26 seconds =       0.02 minutes
	total time  =          4 seconds =       0.07 minutes

*** tstart() called on n412-039.vsc4.prov
*** at Tue Jan 26 18:39:43 2021


	Wfn Parameters:
	--------------------
	Wavefunction         = CCSD_T
	Number of irreps     = 2
	Number of MOs        = 82
	Number of active MOs = 80
	AO-Basis             = NONE
	Semicanonical        = false
	Reference            = RHF
	Print Level          = 1

	IRREP	# MOs	# FZDC	# DOCC	# SOCC	# VIRT	# FZVR
	-----	-----	------	------	------	------	------
	 Ap	   55	    2	    5	    0	    48	    0
	 App	   27	    0	    2	    0	    25	    0
	Transforming integrals...
	IWL integrals will be deleted.
	(OO|OO)...
	Presorting SO-basis two-electron integrals.
	Sorting File: SO Ints (nn|nn) nbuckets = 1
	Constructing frozen core operators
	Starting first half-transformation.
	Sorting half-transformed integrals.
	First half integral transformation complete.
	Starting second half-transformation.
	Two-electron integral transformation complete.
	(OO|OV)...
	Starting second half-transformation.
	Two-electron integral transformation complete.
	(OO|VV)...
	Starting second half-transformation.
	Two-electron integral transformation complete.
	(OV|OO)...
	Starting first half-transformation.
	Sorting half-transformed integrals.
	First half integral transformation complete.
	Starting second half-transformation.
	Two-electron integral transformation complete.
	(OV|OV)...
	Starting second half-transformation.
	Two-electron integral transformation complete.
	(OV|VV)...
	Starting second half-transformation.
	Two-electron integral transformation complete.
	(VV|OO)...
	Starting first half-transformation.
	Sorting half-transformed integrals.
	First half integral transformation complete.
	Starting second half-transformation.
	Two-electron integral transformation complete.
	(VV|OV)...
	Starting second half-transformation.
	Two-electron integral transformation complete.
	(VV|VV)...
	Starting second half-transformation.
	Two-electron integral transformation complete.
	Frozen core energy     =   -106.47894349524083

	Size of irrep 0 of <ab|cd> integrals:      8.579 (MW) /     68.632 (MB)
	Size of irrep 1 of <ab|cd> integrals:      5.760 (MW) /     46.080 (MB)
	Total:                                    14.339 (MW) /    114.712 (MB)

	Size of irrep 0 of <ia|bc> integrals:      0.849 (MW) /      6.795 (MB)
	Size of irrep 1 of <ia|bc> integrals:      0.530 (MW) /      4.243 (MB)
	Total:                                     1.380 (MW) /     11.038 (MB)

	Size of irrep 0 of tijab amplitudes:       0.085 (MW) /      0.680 (MB)
	Size of irrep 1 of tijab amplitudes:       0.048 (MW) /      0.384 (MB)
	Total:                                     0.133 (MW) /      1.064 (MB)

	Nuclear Rep. energy          =     40.29571273885996
	SCF energy                   =   -115.06148468302453
	One-electron energy          =    -87.46134756584439
	Two-electron energy          =     38.58309363920041
	Reference energy             =   -115.06148468302484

*** tstop() called on n412-039.vsc4.prov at Tue Jan 26 18:39:49 2021
Module time:
	user time   =       1.21 seconds =       0.02 minutes
	system time =       0.89 seconds =       0.01 minutes
	total time  =          6 seconds =       0.10 minutes
Total time:
	user time   =      26.40 seconds =       0.44 minutes
	system time =       2.15 seconds =       0.04 minutes
	total time  =         10 seconds =       0.17 minutes
            **************************
            *                        *
            *        CCENERGY        *
            *                        *
            **************************

    Nuclear Rep. energy (wfn)     =   40.295712738859962
    SCF energy          (wfn)     = -115.061484683024531
    Reference energy    (file100) = -115.061484683024844

    Input parameters:
    -----------------
    Wave function   =     CCSD_T
    Reference wfn   =     RHF
    Brueckner       =     No
    Memory (Mbytes) =     250000.0
    Maxiter         =     50
    R_Convergence   =     1.0e-07
    E_Convergence   =     1.0e-06
    Restart         =     Yes
    DIIS            =     Yes
    AO Basis        =     NONE
    ABCD            =     NEW
    Cache Level     =     2
    Cache Type      =     LOW
    Print Level     =     1
    Num. of threads =     48
    # Amps to Print =     10
    Print MP2 Amps? =     No
    Analyze T2 Amps =     No
    Print Pair Ener =     No
    Local CC        =     No
    SCS-MP2         =     False
    SCSN-MP2        =     False
    SCS-CCSD        =     False

MP2 correlation energy -0.3600756097492955
                Solving CC Amplitude Equations
                ------------------------------
  Iter             Energy              RMS        T1Diag      D1Diag    New D1Diag    D2Diag
  ----     ---------------------    ---------   ----------  ----------  ----------   --------
     0        -0.360075609749296    0.000e+00    0.000000    0.000000    0.000000    0.125792
     1        -0.372247041947047    5.360e-02    0.009168    0.022659    0.022659    0.128867
     2        -0.381287391894077    1.751e-02    0.009288    0.022510    0.022510    0.134656
     3        -0.383381211996728    7.160e-03    0.010701    0.026721    0.026721    0.136548
     4        -0.383318114222829    1.528e-03    0.010884    0.027379    0.027379    0.136837
     5        -0.383341853465344    5.524e-04    0.010950    0.027673    0.027673    0.136937
     6        -0.383352138083000    1.813e-04    0.010973    0.027780    0.027780    0.136950
     7        -0.383349364797472    6.309e-05    0.010978    0.027807    0.027807    0.136943
     8        -0.383348549984688    2.192e-05    0.010979    0.027814    0.027814    0.136942
     9        -0.383349053411715    8.341e-06    0.010980    0.027817    0.027817    0.136942
    10        -0.383348699225124    3.192e-06    0.010980    0.027817    0.027817    0.136941
    11        -0.383348676255961    9.986e-07    0.010980    0.027816    0.027816    0.136941
    12        -0.383348642860486    3.636e-07    0.010980    0.027816    0.027816    0.136941
    13        -0.383348634460045    1.286e-07    0.010980    0.027816    0.027816    0.136941
    14        -0.383348634357174    4.313e-08    0.010980    0.027816    0.027816    0.136941

    Iterations converged.


    Largest TIA Amplitudes:
              6  50        -0.0178986976
              5  50         0.0093701469
              6  53         0.0077609272
              4   6        -0.0076007325
              3  14         0.0072757209
              5  56         0.0070488519
              5  53        -0.0067970019
              2  39         0.0061251570
              5  49        -0.0060256637
              6  58         0.0058386556

    Largest TIjAb Amplitudes:
      5   5  51  51        -0.0154256848
      6   6  64  64        -0.0145877374
      5   5  59  59        -0.0133907636
      3   3  14  14        -0.0126363848
      3   3  25  25        -0.0125435879
      4   4   8   8        -0.0121921569
      2   2  10  10        -0.0119094900
      3   3   8   8        -0.0110832642
      6   6  61  61        -0.0106383143
      6   6  50  50        -0.0106151696

    SCF energy       (wfn)                    = -115.061484683024531
    Reference energy (file100)                = -115.061484683024844

    Opposite-spin MP2 correlation energy      =   -0.274090969576625
    Same-spin MP2 correlation energy          =   -0.085984640172671
    Singles MP2 correlation energy            =   -0.000000000000000
    MP2 correlation energy                    =   -0.360075609749296
      * MP2 total energy                      = -115.421560292774146

    Opposite-spin CCSD correlation energy     =   -0.305461614131819
    Same-spin CCSD correlation energy         =   -0.077887020225354
    Singles CCSD correlation energy           =    0.000000000000000
    CCSD correlation energy                   =   -0.383348634357174
      * CCSD total energy                     = -115.444833317382020

            **************************
            *                        *
            *        CCTRIPLES       *
            *                        *
            **************************


    Wave function   =    CCSD_T
    Reference wfn   =      RHF

    Nuclear Rep. energy (wfn)                =   40.295712738859962
    SCF energy          (wfn)                = -115.061484683024531
    Reference energy    (file100)            = -115.061484683024844
    CCSD energy         (file100)            =   -0.383348634357174
    Total CCSD energy   (file100)            = -115.444833317382020

    Number of ijk index combinations:               84
    Memory available in words        :     31250000000
    ~Words needed per explicit thread:          442368
    Number of threads for explicit ijk threading:   48

    (T) energy                                =   -0.010442027131070
      * CCSD(T) total energy                  = -115.455275344513083


    Psi4 stopped on: Tuesday, 26 January 2021 06:39PM
    Psi4 wall time for execution: 0:00:17.94

*** Psi4 exiting successfully. Buy a developer a beer!
