
    -----------------------------------------------------------------------
          Psi4: An Open-Source Ab Initio Electronic Structure Package
                               Psi4 1.4a3.dev88 

                         Git: Rev {master} 262e345 


    D. G. A. Smith, L. A. Burns, A. C. Simmonett, R. M. Parrish,
    M. C. Schieber, R. Galvelis, P. Kraus, H. Kruse, R. Di Remigio,
    A. Alenaizan, A. M. James, S. Lehtola, J. P. Misiewicz, M. Scheurer,
    R. A. Shaw, J. B. Schriber, Y. Xie, Z. L. Glick, D. A. Sirianni,
    J. S. O'Brien, J. M. Waldrop, A. Kumar, E. G. Hohenstein,
    B. P. Pritchard, B. R. Brooks, H. F. Schaefer III, A. Yu. Sokolov,
    K. Patkowski, A. E. DePrince III, U. Bozkaya, R. A. King,
    F. A. Evangelista, J. M. Turney, T. D. Crawford, C. D. Sherrill,
    J. Chem. Phys. 152(18) 184108 (2020). https://doi.org/10.1063/5.0006002

                            Additional Code Authors
    E. T. Seidl, C. L. Janssen, E. F. Valeev, M. L. Leininger,
    J. F. Gonthier, R. M. Richard, H. R. McAlexander, M. Saitow, X. Wang,
    P. Verma, and M. H. Lechner

             Previous Authors, Complete List of Code Contributors,
                       and Citations for Specific Modules
    https://github.com/psi4/psi4/blob/master/codemeta.json
    https://github.com/psi4/psi4/graphs/contributors
    http://psicode.org/psi4manual/master/introduction.html#citing-psifour

    -----------------------------------------------------------------------


    Psi4 started on: Saturday, 30 January 2021 02:56PM

    Process ID: 194137
    Host:       n411-035.vsc4.prov
    PSIDATADIR: /home/fs71337/gallo4/psi4/eri-6/psi4/build/stage/share/psi4
    Memory:     500.0 MiB
    Threads:    1
    
  ==> Input File <==

--------------------------------------------------------------------------
# Any line starting with the # character is a comment line
memory 650000 mb
molecule molecule{
0 1
C         -0.0131849130        0.0000000000       -0.7300158634
O          0.0640939097        0.0000000000        0.6915053898
H         -0.5186806976       -0.8893140541       -1.1100627930
H         -0.5186806976        0.8893140541       -1.1100627930
H          1.0094357309        0.0000000000       -1.0953577182
H         -0.8323439031        0.0000000000        1.0381148124
}

set {
  reference rhf
  basis aug-cc-pV(6+d)Z
  scf_type OUT_OF_CORE
  freeze_core true
}

energy('ccsd(t)')
--------------------------------------------------------------------------

  Memory set to 605.360 GiB by Python driver.

Scratch directory: /binfl/lv71337/airmler/temp/

*** tstart() called on n411-035.vsc4.prov
*** at Sat Jan 30 14:56:04 2021

   => Loading Basis Set <=

    Name: AUG-CC-PV(6+D)Z
    Role: ORBITAL
    Keyword: BASIS
    atoms 1   entry C          line   267 file /home/fs71337/gallo4/psi4/eri-6/psi4/build/stage/share/psi4/basis/aug-cc-pv_6pd_z.gbs 
    atoms 2   entry O          line   459 file /home/fs71337/gallo4/psi4/eri-6/psi4/build/stage/share/psi4/basis/aug-cc-pv_6pd_z.gbs 
    atoms 3-6 entry H          line    51 file /home/fs71337/gallo4/psi4/eri-6/psi4/build/stage/share/psi4/basis/aug-cc-pv_6pd_z.gbs 


         ---------------------------------------------------------
                                   SCF
               by Justin Turney, Rob Parrish, Andy Simmonett
                          and Daniel G. A. Smith
                              RHF Reference
                        1 Threads, 619888 MiB Core
         ---------------------------------------------------------

  ==> Geometry <==

    Molecular point group: cs
    Full point group: Cs

    Geometry (in Angstrom), charge = 0, multiplicity = 1:

       Center              X                  Y                   Z               Mass       
    ------------   -----------------  -----------------  -----------------  -----------------
         C            0.013183553264    -0.730177928584     0.000000000000    12.000000000000
         O           -0.064095269436     0.691343324616     0.000000000000    15.994914619570
         H            0.518679337864    -1.110224858184    -0.889314054100     1.007825032230
         H            0.518679337864    -1.110224858184     0.889314054100     1.007825032230
         H           -1.009437090636    -1.095519783384     0.000000000000     1.007825032230
         H            0.832342543364     1.037952747216     0.000000000000     1.007825032230

  Running in cs symmetry.

  Rotational constants: A =      4.29018  B =      0.82568  C =      0.79676 [cm^-1]
  Rotational constants: A = 128616.40570  B =  24753.17753  C =  23886.16691 [MHz]
  Nuclear repulsion =   40.295712738859962

  Charge       = 0
  Multiplicity = 1
  Electrons    = 18
  Nalpha       = 9
  Nbeta        = 9

  ==> Algorithm <==

  SCF Algorithm Type is OUT_OF_CORE.
  DIIS enabled.
  MOM disabled.
  Fractional occupation disabled.
  Guess Type is SAD.
  Energy threshold   = 1.00e-08
  Density threshold  = 1.00e-08
  Integral threshold = 1.00e-12

  ==> Primary Basis <==

  Basis Set: AUG-CC-PV(6+D)Z
    Blend: AUG-CC-PV(6+D)Z
    Number of shells: 178
    Number of basis function: 886
    Number of Cartesian functions: 1316
    Spherical Harmonics?: true
    Max angular momentum: 6

  ==> Integral Setup <==

  ==> DiskJK: Disk-Based J/K Matrices <==

    J tasked:                  Yes
    K tasked:                  Yes
    wK tasked:                  No
    Memory [MiB]:           464916
    Schwarz Cutoff:          1E-12

  Minimum eigenvalue in the overlap matrix is 2.6857991270E-07.
  Reciprocal condition number of the overlap matrix is 1.8336958390E-08.
    Using symmetric orthogonalization.

  ==> Pre-Iterations <==

  SCF Guess: Superposition of Atomic Densities via on-the-fly atomic UHF (no occupation information).

   -------------------------
    Irrep   Nso     Nmo    
   -------------------------
     A'       505     505 
     A"       381     381 
   -------------------------
    Total     886     886
   -------------------------

  ==> Iterations <==

                        Total Energy        Delta E     RMS |[F,P]|

   @RHF iter SAD:  -114.38455667833196   -1.14385e+02   0.00000e+00 
   @RHF iter   1:  -115.01554591295539   -6.30989e-01   6.72224e-04 DIIS
   @RHF iter   2:  -115.07952714495822   -6.39812e-02   3.97558e-04 DIIS
   @RHF iter   3:  -115.10052781316180   -2.10007e-02   5.94747e-05 DIIS
   @RHF iter   4:  -115.10150607048482   -9.78257e-04   1.86403e-05 DIIS
   @RHF iter   5:  -115.10160308970821   -9.70192e-05   4.33314e-06 DIIS
   @RHF iter   6:  -115.10160941161301   -6.32190e-06   1.00300e-06 DIIS
   @RHF iter   7:  -115.10160995385651   -5.42243e-07   2.35934e-07 DIIS
   @RHF iter   8:  -115.10160998638192   -3.25254e-08   5.16857e-08 DIIS
   @RHF iter   9:  -115.10160998784704   -1.46512e-09   9.45109e-09 DIIS
  Energy and wave function converged.


  ==> Post-Iterations <==

    Orbital Energies [Eh]
    ---------------------

    Doubly Occupied:                                                      

       1Ap   -20.555642     2Ap   -11.269775     3Ap    -1.355442  
       4Ap    -0.926088     5Ap    -0.690503     1App   -0.620797  
       6Ap    -0.592635     7Ap    -0.505084     2App   -0.452470  

    Virtual:                                                              

       8Ap     0.018757     9Ap     0.029610     3App    0.032953  
      10Ap     0.037341    11Ap     0.066259    12Ap     0.068949  
       4App    0.075594    13Ap     0.087366    14Ap     0.088397  
       5App    0.096807    15Ap     0.103962     6App    0.126463  
      16Ap     0.132704    17Ap     0.163641     7App    0.179596  
      18Ap     0.179670    19Ap     0.183845    20Ap     0.193881  
       8App    0.195261    21Ap     0.198553     9App    0.206547  
      10App    0.210375    22Ap     0.211094    23Ap     0.231950  
      24Ap     0.242614    25Ap     0.246448    11App    0.259465  
      26Ap     0.261076    27Ap     0.271169    12App    0.275817  
      13App    0.281781    28Ap     0.282743    29Ap     0.303526  
      14App    0.325544    30Ap     0.332522    31Ap     0.335898  
      32Ap     0.375959    33Ap     0.384367    34Ap     0.404300  
      15App    0.407938    35Ap     0.421116    16App    0.423676  
      17App    0.430988    36Ap     0.448460    18App    0.448759  
      37Ap     0.452518    19App    0.454546    38Ap     0.488913  
      20App    0.491525    39Ap     0.502619    40Ap     0.517916  
      41Ap     0.519660    21App    0.525609    42Ap     0.526544  
      43Ap     0.545320    22App    0.548205    23App    0.555107  
      44Ap     0.555725    24App    0.564080    45Ap     0.565801  
      46Ap     0.577658    25App    0.579164    47Ap     0.590718  
      48Ap     0.603552    26App    0.615860    49Ap     0.617959  
      27App    0.633081    50Ap     0.644210    51Ap     0.647456  
      52Ap     0.676369    53Ap     0.690020    28App    0.692689  
      54Ap     0.705475    29App    0.707025    55Ap     0.720898  
      56Ap     0.724002    30App    0.731286    31App    0.741325  
      57Ap     0.750279    32App    0.777292    58Ap     0.785446  
      59Ap     0.832652    33App    0.864431    60Ap     0.870688  
      34App    0.873031    61Ap     0.890032    62Ap     0.918200  
      35App    0.945743    63Ap     0.954222    36App    0.966422  
      64Ap     0.966571    65Ap     0.994515    37App    0.995575  
      66Ap     1.006336    38App    1.012182    67Ap     1.026252  
      68Ap     1.040385    69Ap     1.045839    39App    1.051042  
      70Ap     1.067214    71Ap     1.090569    40App    1.097111  
      41App    1.099943    72Ap     1.108405    73Ap     1.125826  
      74Ap     1.146288    42App    1.150271    43App    1.167581  
      75Ap     1.174980    44App    1.177140    76Ap     1.205855  
      45App    1.215347    77Ap     1.220374    78Ap     1.227393  
      46App    1.230467    47App    1.238357    79Ap     1.246767  
      48App    1.262240    80Ap     1.269903    49App    1.276119  
      81Ap     1.294384    82Ap     1.305452    50App    1.315670  
      83Ap     1.318867    84Ap     1.353371    51App    1.364146  
      85Ap     1.366767    86Ap     1.377886    52App    1.379943  
      87Ap     1.395697    53App    1.415620    88Ap     1.428244  
      54App    1.433572    89Ap     1.454144    55App    1.459126  
      90Ap     1.495660    56App    1.500505    91Ap     1.536281  
      92Ap     1.540614    57App    1.541564    93Ap     1.565281  
      58App    1.605532    94Ap     1.610517    95Ap     1.642862  
      59App    1.660504    96Ap     1.674161    60App    1.680085  
      97Ap     1.689982    61App    1.700339    98Ap     1.724177  
      62App    1.742338    99Ap     1.750441    63App    1.762332  
     100Ap     1.775142    64App    1.785312   101Ap     1.787386  
     102Ap     1.809746   103Ap     1.830793   104Ap     1.854301  
      65App    1.857420   105Ap     1.879792    66App    1.885653  
     106Ap     1.894020   107Ap     1.920630   108Ap     1.960517  
     109Ap     2.000525    67App    2.016242    68App    2.037098  
     110Ap     2.038870    69App    2.067372   111Ap     2.069833  
     112Ap     2.096100    70App    2.104473   113Ap     2.141705  
      71App    2.172238   114Ap     2.185514   115Ap     2.215108  
      72App    2.277652    73App    2.285747   116Ap     2.287554  
     117Ap     2.297943    74App    2.307814    75App    2.334424  
     118Ap     2.355505   119Ap     2.384250    76App    2.395790  
      77App    2.400214   120Ap     2.402244    78App    2.417235  
     121Ap     2.435621    79App    2.443586   122Ap     2.466162  
     123Ap     2.508402    80App    2.510335   124Ap     2.517095  
     125Ap     2.535789    81App    2.537560    82App    2.539830  
     126Ap     2.548864   127Ap     2.556714    83App    2.570340  
      84App    2.573275   128Ap     2.585037   129Ap     2.630168  
      85App    2.635444   130Ap     2.641412   131Ap     2.645887  
      86App    2.661521   132Ap     2.663125    87App    2.684690  
      88App    2.704494   133Ap     2.731388   134Ap     2.741997  
      89App    2.743411   135Ap     2.757903    90App    2.776679  
      91App    2.785292   136Ap     2.791851   137Ap     2.810121  
     138Ap     2.828546    92App    2.829927   139Ap     2.837874  
      93App    2.848640   140Ap     2.851296    94App    2.877117  
     141Ap     2.885103    95App    2.920546    96App    2.924942  
     142Ap     2.932351   143Ap     2.935082    97App    2.950929  
     144Ap     2.964224    98App    2.989997   145Ap     2.994015  
      99App    3.010046   146Ap     3.016951   100App    3.026077  
     147Ap     3.033465   148Ap     3.057598   149Ap     3.081615  
     101App    3.098621   150Ap     3.102515   151Ap     3.122082  
     102App    3.153879   152Ap     3.172977   103App    3.194462  
     153Ap     3.198028   104App    3.204445   154Ap     3.233215  
     105App    3.248285   155Ap     3.254500   156Ap     3.307799  
     157Ap     3.310166   106App    3.315473   158Ap     3.366874  
     107App    3.385931   159Ap     3.414401   108App    3.428833  
     160Ap     3.446405   161Ap     3.482824   109App    3.494764  
     162Ap     3.510279   163Ap     3.525395   110App    3.556024  
     164Ap     3.581533   165Ap     3.612617   111App    3.614093  
     166Ap     3.674077   112App    3.689178   167Ap     3.705627  
     168Ap     3.715974   113App    3.744061   114App    3.768590  
     169Ap     3.829284   115App    3.839622   170Ap     3.855232  
     171Ap     3.878929   116App    3.925392   172Ap     3.944707  
     117App    3.961341   173Ap     3.981876   118App    4.008364  
     119App    4.080510   174Ap     4.086769   175Ap     4.103214  
     120App    4.115995   176Ap     4.176553   121App    4.209511  
     177Ap     4.241567   178Ap     4.281205   122App    4.304578  
     179Ap     4.308543   123App    4.386289   180Ap     4.408425  
     124App    4.424415   181Ap     4.446808   182Ap     4.493521  
     183Ap     4.527768   125App    4.549733   184Ap     4.585866  
     185Ap     4.597225   126App    4.599460   127App    4.633075  
     186Ap     4.658895   187Ap     4.673704   128App    4.685596  
     129App    4.731874   188Ap     4.732538   189Ap     4.759544  
     190Ap     4.778039   130App    4.785794   131App    4.798968  
     191Ap     4.820139   132App    4.827056   133App    4.880675  
     192Ap     4.890927   193Ap     4.893555   134App    4.930054  
     194Ap     4.950577   195Ap     4.966953   135App    4.986028  
     196Ap     5.024503   197Ap     5.066431   136App    5.080245  
     198Ap     5.104230   199Ap     5.121095   137App    5.121302  
     138App    5.141357   200Ap     5.158356   201Ap     5.181631  
     139App    5.192557   140App    5.213535   202Ap     5.218391  
     141App    5.235544   203Ap     5.261024   142App    5.262245  
     204Ap     5.268000   143App    5.290298   205Ap     5.300590  
     144App    5.306786   206Ap     5.314219   145App    5.322896  
     207Ap     5.342702   146App    5.351903   208Ap     5.355467  
     147App    5.370135   209Ap     5.377847   210Ap     5.411471  
     148App    5.415353   211Ap     5.426685   149App    5.434054  
     150App    5.451556   212Ap     5.464106   213Ap     5.484600  
     151App    5.503444   214Ap     5.515984   152App    5.518503  
     215Ap     5.547097   153App    5.569776   216Ap     5.594788  
     154App    5.597654   217Ap     5.617464   155App    5.628462  
     218Ap     5.643782   219Ap     5.660295   156App    5.670186  
     220Ap     5.701421   157App    5.704431   221Ap     5.708018  
     158App    5.735875   222Ap     5.759184   159App    5.792849  
     160App    5.801650   223Ap     5.805091   224Ap     5.830553  
     161App    5.880564   225Ap     5.895035   226Ap     5.913687  
     162App    5.920766   227Ap     5.942596   228Ap     5.983603  
     163App    5.986534   229Ap     6.008746   164App    6.030831  
     165App    6.060954   230Ap     6.079029   231Ap     6.084859  
     166App    6.121740   232Ap     6.139346   167App    6.156211  
     233Ap     6.160380   234Ap     6.187475   168App    6.217347  
     235Ap     6.228765   236Ap     6.246322   169App    6.255711  
     170App    6.286145   237Ap     6.294602   171App    6.323565  
     238Ap     6.327601   172App    6.367009   239Ap     6.399905  
     240Ap     6.443822   241Ap     6.492846   173App    6.504561  
     242Ap     6.537264   174App    6.544194   243Ap     6.584620  
     244Ap     6.597976   175App    6.602925   245Ap     6.605717  
     176App    6.675476   177App    6.732823   246Ap     6.742243  
     247Ap     6.778131   178App    6.800260   248Ap     6.818213  
     179App    6.876583   249Ap     6.879933   250Ap     6.906368  
     180App    6.964233   181App    6.971824   251Ap     6.995718  
     182App    7.010662   252Ap     7.036937   253Ap     7.086533  
     183App    7.113055   254Ap     7.114968   255Ap     7.185379  
     184App    7.190638   256Ap     7.218884   185App    7.244685  
     257Ap     7.270508   186App    7.319803   258Ap     7.339975  
     187App    7.399405   259Ap     7.414068   260Ap     7.466814  
     188App    7.483616   261Ap     7.551973   189App    7.555056  
     262Ap     7.676362   190App    7.688686   263Ap     7.725125  
     191App    7.745661   264Ap     7.814080   192App    7.865922  
     265Ap     7.902890   266Ap     7.954579   193App    7.967885  
     267Ap     8.059968   194App    8.128822   268Ap     8.158917  
     269Ap     8.240969   195App    8.249126   270Ap     8.298490  
     196App    8.319562   197App    8.333382   271Ap     8.369589  
     272Ap     8.452162   198App    8.478134   273Ap     8.487985  
     274Ap     8.492007   199App    8.505101   200App    8.601211  
     275Ap     8.624161   276Ap     8.674652   201App    8.724906  
     277Ap     8.795545   202App    8.843600   278Ap     8.844277  
     203App    8.891908   279Ap     8.967134   280Ap     9.002433  
     204App    9.005244   205App    9.054336   281Ap     9.152338  
     206App    9.156142   282Ap     9.228653   207App    9.234142  
     283Ap     9.263008   284Ap     9.315789   285Ap     9.372881  
     208App    9.378670   286Ap     9.416321   209App    9.443690  
     287Ap     9.517855   288Ap     9.535563   210App    9.547243  
     289Ap     9.591047   290Ap     9.695568   211App    9.703435  
     291Ap     9.791790   212App    9.806495   292Ap     9.824866  
     213App    9.871064   293Ap     9.954919   294Ap     9.994226  
     295Ap    10.002952   214App   10.038770   215App   10.057841  
     216App   10.079352   296Ap    10.086406   297Ap    10.128370  
     217App   10.164387   298Ap    10.226229   299Ap    10.236090  
     218App   10.255226   300Ap    10.275627   301Ap    10.322414  
     219App   10.330311   302Ap    10.369165   220App   10.378107  
     303Ap    10.430320   221App   10.469045   304Ap    10.506427  
     305Ap    10.541612   222App   10.576877   223App   10.601298  
     306Ap    10.611336   224App   10.662347   225App   10.681049  
     307Ap    10.698312   226App   10.704498   308Ap    10.747055  
     227App   10.790518   309Ap    10.794270   228App   10.811015  
     310Ap    10.827658   311Ap    10.848501   312Ap    10.875797  
     229App   10.888703   313Ap    10.937323   230App   10.940475  
     314Ap    10.958351   231App   10.965543   315Ap    11.018306  
     316Ap    11.050402   232App   11.103274   317Ap    11.130015  
     233App   11.153000   234App   11.238804   318Ap    11.249078  
     235App   11.254851   319Ap    11.265686   320Ap    11.374430  
     236App   11.395520   321Ap    11.406640   237App   11.444120  
     322Ap    11.484072   323Ap    11.507636   238App   11.508441  
     239App   11.557350   324Ap    11.612850   325Ap    11.674803  
     240App   11.684946   241App   11.728400   326Ap    11.735782  
     327Ap    11.770864   328Ap    11.836967   242App   11.866327  
     243App   11.952933   329Ap    11.963549   330Ap    12.005223  
     331Ap    12.047304   332Ap    12.084074   244App   12.096044  
     333Ap    12.125769   245App   12.130457   246App   12.156296  
     247App   12.278245   334Ap    12.283735   248App   12.372214  
     335Ap    12.372866   336Ap    12.402205   337Ap    12.509243  
     249App   12.529264   338Ap    12.532224   339Ap    12.559330  
     250App   12.562112   251App   12.573794   252App   12.625991  
     340Ap    12.687163   253App   12.715678   341Ap    12.791564  
     342Ap    12.900877   343Ap    12.955501   254App   12.969054  
     255App   13.047124   344Ap    13.123920   256App   13.146625  
     345Ap    13.211638   346Ap    13.256668   257App   13.392943  
     347Ap    13.452678   258App   13.463740   348Ap    13.685988  
     259App   13.714419   260App   13.860995   349Ap    13.922288  
     261App   13.982893   350Ap    14.022084   351Ap    14.041459  
     262App   14.190245   352Ap    14.213993   353Ap    14.349210  
     354Ap    14.389301   263App   14.457540   355Ap    14.568534  
     264App   14.582805   356Ap    14.660511   265App   14.751154  
     357Ap    14.836741   266App   14.857734   358Ap    14.889155  
     267App   14.939458   359Ap    15.018803   360Ap    15.110653  
     268App   15.122720   269App   15.190563   361Ap    15.231416  
     362Ap    15.342277   270App   15.404555   271App   15.438963  
     272App   15.524110   363Ap    15.540006   364Ap    15.596445  
     365Ap    15.638044   273App   15.648230   274App   15.699171  
     366Ap    15.775802   275App   15.837028   367Ap    15.854513  
     368Ap    15.982072   276App   16.008198   369Ap    16.072498  
     370Ap    16.164700   277App   16.170816   278App   16.216944  
     371Ap    16.254661   372Ap    16.339284   279App   16.355170  
     373Ap    16.393326   280App   16.510133   374Ap    16.510270  
     375Ap    16.611859   376Ap    16.729925   281App   16.749344  
     282App   16.863729   377Ap    16.936841   378Ap    17.044618  
     379Ap    17.254780   380Ap    17.322872   283App   17.546965  
     381Ap    17.597471   284App   17.681732   382Ap    17.704888  
     285App   17.710350   286App   17.743127   383Ap    17.758300  
     384Ap    17.808570   287App   17.817390   288App   17.835076  
     385Ap    17.844179   386Ap    17.923234   387Ap    17.928164  
     289App   18.077328   388Ap    18.125734   290App   18.171514  
     291App   18.287636   389Ap    18.316476   292App   18.391958  
     390Ap    18.438543   293App   18.552093   391Ap    18.651768  
     294App   18.677499   392Ap    18.715631   393Ap    18.757506  
     295App   18.770618   394Ap    18.860635   395Ap    19.242621  
     296App   19.246460   396Ap    19.283522   297App   19.298648  
     397Ap    19.327427   298App   19.363718   398Ap    19.495821  
     299App   19.537194   300App   19.654638   399Ap    19.664126  
     400Ap    19.778925   301App   19.833663   401Ap    19.841774  
     402Ap    19.952808   302App   20.172838   403Ap    20.241316  
     404Ap    20.289456   405Ap    20.453001   303App   20.566894  
     406Ap    20.595052   407Ap    20.658514   304App   20.676151  
     305App   20.692692   408Ap    20.754446   306App   20.791455  
     307App   20.848556   409Ap    20.910621   308App   20.939992  
     410Ap    20.941205   309App   21.093412   411Ap    21.096924  
     412Ap    21.112752   310App   21.118365   413Ap    21.130674  
     414Ap    21.187809   311App   21.200144   312App   21.306345  
     313App   21.472549   415Ap    21.484758   314App   21.566570  
     416Ap    21.588110   417Ap    21.633879   418Ap    21.780730  
     315App   21.785884   316App   21.826173   419Ap    21.841434  
     317App   21.898263   420Ap    21.908656   318App   21.982184  
     421Ap    22.020215   319App   22.096727   422Ap    22.122945  
     320App   22.125979   423Ap    22.198077   321App   22.206629  
     424Ap    22.220655   425Ap    22.296567   322App   22.333936  
     323App   22.347645   426Ap    22.363098   427Ap    22.452278  
     428Ap    22.511183   324App   22.512863   325App   22.530867  
     429Ap    22.604521   430Ap    22.625418   431Ap    22.644522  
     326App   22.818013   432Ap    22.898342   327App   22.932291  
     328App   22.951041   433Ap    22.971919   434Ap    23.025527  
     329App   23.063639   435Ap    23.139276   330App   23.242461  
     436Ap    23.258782   437Ap    23.423225   331App   23.430669  
     438Ap    23.518564   439Ap    23.605456   332App   23.617888  
     333App   23.682100   440Ap    23.683395   441Ap    23.712552  
     334App   23.900036   335App   23.975750   336App   24.051433  
     442Ap    24.057403   337App   24.092754   443Ap    24.098516  
     444Ap    24.226408   338App   24.504428   445Ap    24.522171  
     446Ap    24.567451   339App   24.586462   447Ap    24.626336  
     340App   24.631552   448Ap    24.638404   449Ap    24.702016  
     341App   24.712492   450Ap    24.718665   342App   24.721387  
     343App   24.773679   451Ap    24.801381   344App   24.833533  
     452Ap    24.853322   453Ap    24.931633   345App   24.958894  
     454Ap    25.031779   455Ap    25.176297   346App   25.248716  
     456Ap    25.362835   347App   25.608949   457Ap    25.684260  
     348App   25.723309   349App   25.965525   458Ap    25.967843  
     459Ap    26.047456   350App   26.189706   460Ap    26.282733  
     461Ap    26.316495   351App   26.340479   352App   26.484543  
     462Ap    26.649301   463Ap    26.898535   353App   26.952976  
     464Ap    27.039946   354App   27.190475   465Ap    27.258170  
     466Ap    27.281594   355App   27.316609   467Ap    27.398582  
     356App   27.434119   468Ap    27.448241   357App   27.464989  
     469Ap    27.518386   358App   27.569880   359App   27.672321  
     470Ap    27.675801   471Ap    27.757125   360App   27.762488  
     472Ap    27.823108   473Ap    27.876587   361App   27.887920  
     362App   27.932691   363App   27.984049   474Ap    28.001601  
     475Ap    28.018493   364App   28.019975   476Ap    28.173908  
     477Ap    28.306738   478Ap    28.391084   479Ap    28.445273  
     480Ap    28.551552   365App   28.594264   366App   28.715398  
     481Ap    28.744815   367App   28.893634   482Ap    29.180740  
     483Ap    29.824514   484Ap    29.851880   368App   30.566249  
     485Ap    31.323002   369App   31.378957   486Ap    32.242348  
     370App   32.461009   487Ap    32.464638   371App   32.834018  
     488Ap    33.036391   372App   33.442897   489Ap    33.659136  
     490Ap    33.875654   373App   33.979953   491Ap    34.299615  
     374App   34.474415   492Ap    35.121440   493Ap    35.633338  
     375App   36.347842   376App   36.391758   494Ap    36.675283  
     495Ap    36.992066   496Ap    37.044135   377App   37.079171  
     378App   37.120713   379App   37.160137   497Ap    37.180532  
     498Ap    37.445089   380App   39.500027   499Ap    39.783770  
     500Ap    39.874913   501Ap    40.033016   502Ap    40.202610  
     381App   40.203509   503Ap    41.880752   504Ap    67.406883  
     505Ap   107.967349  

    Final Occupation by Irrep:
             Ap   App 
    DOCC [     7,    2 ]

  @RHF Final Energy:  -115.10160998784704

   => Energetics <=

    Nuclear Repulsion Energy =             40.2957127388599616
    One-Electron Energy =                -236.8577748405393493
    Two-Electron Energy =                  81.4604521138323321
    Total Energy =                       -115.1016099878470413

Computation Completed


Properties will be evaluated at   0.000000,   0.000000,   0.000000 [a0]

Properties computed using the SCF density matrix

  Nuclear Dipole Moment: [e a0]
     X:     0.8062      Y:    -2.1322      Z:     0.0000

  Electronic Dipole Moment: [e a0]
     X:    -0.2156      Y:     1.7331      Z:     0.0000

  Dipole Moment: [e a0]
     X:     0.5906      Y:    -0.3992      Z:     0.0000     Total:     0.7128

  Dipole Moment: [D]
     X:     1.5011      Y:    -1.0146      Z:     0.0000     Total:     1.8118


*** tstop() called on n411-035.vsc4.prov at Sun Jan 31 08:23:16 2021
Module time:
	user time   =   23065.25 seconds =     384.42 minutes
	system time =   23764.90 seconds =     396.08 minutes
	total time  =      62832 seconds =    1047.20 minutes
Total time:
	user time   =   23065.25 seconds =     384.42 minutes
	system time =   23764.90 seconds =     396.08 minutes
	total time  =      62832 seconds =    1047.20 minutes

*** tstart() called on n411-035.vsc4.prov
*** at Sun Jan 31 08:23:16 2021


	Wfn Parameters:
	--------------------
	Wavefunction         = CCSD_T
	Number of irreps     = 2
	Number of MOs        = 886
	Number of active MOs = 884
	AO-Basis             = NONE
	Semicanonical        = false
	Reference            = RHF
	Print Level          = 1

	IRREP	# MOs	# FZDC	# DOCC	# SOCC	# VIRT	# FZVR
	-----	-----	------	------	------	------	------
	 Ap	   505	    2	    5	    0	    498	    0
	 App	   381	    0	    2	    0	    379	    0
	Transforming integrals...
	IWL integrals will be deleted.
	(OO|OO)...
	Presorting SO-basis two-electron integrals.
	Sorting File: SO Ints (nn|nn) nbuckets = 1
	Constructing frozen core operators
	Starting first half-transformation.
	Sorting half-transformed integrals.
	First half integral transformation complete.
	Starting second half-transformation.
	Two-electron integral transformation complete.
	(OO|OV)...
	Starting second half-transformation.
	Two-electron integral transformation complete.
	(OO|VV)...
	Starting second half-transformation.
	Two-electron integral transformation complete.
	(OV|OO)...
	Starting first half-transformation.
	Sorting half-transformed integrals.
	First half integral transformation complete.
	Starting second half-transformation.
	Two-electron integral transformation complete.
	(OV|OV)...
	Starting second half-transformation.
	Two-electron integral transformation complete.
	(OV|VV)...
	Starting second half-transformation.
	Two-electron integral transformation complete.
	(VV|OO)...
	Starting first half-transformation.
	Sorting half-transformed integrals.
	First half integral transformation complete.
	Starting second half-transformation.
	Two-electron integral transformation complete.
	(VV|OV)...
	Starting second half-transformation.
	Two-electron integral transformation complete.
	(VV|VV)...
	Starting second half-transformation.
	Two-electron integral transformation complete.
	Frozen core energy     =   -106.48192489326188

	Size of irrep 0 of <ab|cd> integrals: 153385.806 (MW) / 1227086.448 (MB)
	Size of irrep 1 of <ab|cd> integrals: 142494.170 (MW) / 1139953.362 (MB)
	Total:                                295879.976 (MW) / 2367039.810 (MB)

	Size of irrep 0 of <ia|bc> integrals:   1272.063 (MW) /  10176.504 (MB)
	Size of irrep 1 of <ia|bc> integrals:   1091.306 (MW) /   8730.450 (MB)
	Total:                                  2363.369 (MW) /  18906.954 (MB)

	Size of irrep 0 of tijab amplitudes:      11.358 (MW) /     90.862 (MB)
	Size of irrep 1 of tijab amplitudes:       7.550 (MW) /     60.397 (MB)
	Total:                                    18.907 (MW) /    151.259 (MB)

	Nuclear Rep. energy          =     40.29571273885996
	SCF energy                   =   -115.10160998784704
	One-electron energy          =    -87.54475866690871
	Two-electron energy          =     38.62936083341727
	Reference energy             =   -115.10160998789334

*** tstop() called on n411-035.vsc4.prov at Mon Feb  1 08:16:58 2021
Module time:
	user time   =   49969.74 seconds =     832.83 minutes
	system time =   11700.84 seconds =     195.01 minutes
	total time  =      86022 seconds =    1433.70 minutes
Total time:
	user time   =   73034.99 seconds =    1217.25 minutes
	system time =   35465.74 seconds =     591.10 minutes
	total time  =     148854 seconds =    2480.90 minutes
            **************************
            *                        *
            *        CCENERGY        *
            *                        *
            **************************

    Nuclear Rep. energy (wfn)     =   40.295712738859962
    SCF energy          (wfn)     = -115.101609987847041
    Reference energy    (file100) = -115.101609987893340

    Input parameters:
    -----------------
    Wave function   =     CCSD_T
    Reference wfn   =     RHF
    Brueckner       =     No
    Memory (Mbytes) =     650000.0
    Maxiter         =     50
    R_Convergence   =     1.0e-07
    E_Convergence   =     1.0e-06
    Restart         =     Yes
    DIIS            =     Yes
    AO Basis        =     NONE
    ABCD            =     NEW
    Cache Level     =     2
    Cache Type      =     LOW
    Print Level     =     1
    Num. of threads =     1
    # Amps to Print =     10
    Print MP2 Amps? =     No
    Analyze T2 Amps =     No
    Print Pair Ener =     No
    Local CC        =     No
    SCS-MP2         =     False
    SCSN-MP2        =     False
    SCS-CCSD        =     False

MP2 correlation energy -0.4785695904598888
                Solving CC Amplitude Equations
                ------------------------------
  Iter             Energy              RMS        T1Diag      D1Diag    New D1Diag    D2Diag
  ----     ---------------------    ---------   ----------  ----------  ----------   --------
     0        -0.478569590459889    0.000e+00    0.000000    0.000000    0.000000    0.131415
     1        -0.474261825046119    5.011e-02    0.008270    0.017479    0.017479    0.130081
     2        -0.484844699404403    1.724e-02    0.008137    0.016846    0.016846    0.135795
     3        -0.486918661997956    6.591e-03    0.009314    0.020137    0.020137    0.137521
     4        -0.486704809483596    1.499e-03    0.009438    0.020416    0.020416    0.137715
     5        -0.486734144077311    6.094e-04    0.009515    0.020710    0.020710    0.137826
     6        -0.486752535227269    1.860e-04    0.009539    0.020794    0.020794    0.137839
     7        -0.486750471058245    7.446e-05    0.009546    0.020818    0.020818    0.137834
     8        -0.486748462893906    2.488e-05    0.009548    0.020823    0.020823    0.137832
     9        -0.486749058957674    9.633e-06    0.009549    0.020825    0.020825    0.137832
    10        -0.486748673058325    3.830e-06    0.009549    0.020825    0.020825    0.137832
    11        -0.486748616381202    1.261e-06    0.009549    0.020825    0.020825    0.137832
    12        -0.486748585185034    4.983e-07    0.009549    0.020825    0.020825    0.137832
    13        -0.486748564928054    1.825e-07    0.009549    0.020825    0.020825    0.137832
    14        -0.486748564726552    6.529e-08    0.009549    0.020825    0.020825    0.137832

    Iterations converged.


    Largest TIA Amplitudes:
              5 512         0.0078360212
              6 506        -0.0076869154
              6 500        -0.0067968558
              5 506         0.0056842548
              3  26        -0.0053221071
              5 526         0.0048818297
              5 511         0.0046961243
              5 525         0.0046364806
              5 505        -0.0044856760
              6 512        -0.0044373458

    Largest TIjAb Amplitudes:
      2   2  24  24        -0.0102105367
      3   3  39  39        -0.0086274111
      4   4  26  26        -0.0081667989
      3   3  24  24        -0.0081002029
      3   3  24  39         0.0077309031
      3   3  39  24         0.0077309031
      2   2  24  39         0.0076348950
      2   2  39  24         0.0076348950
      4   4  24  24        -0.0070133255
      2   2  39  39        -0.0067046151

    SCF energy       (wfn)                    = -115.101609987847041
    Reference energy (file100)                = -115.101609987893340

    Opposite-spin MP2 correlation energy      =   -0.374279551866707
    Same-spin MP2 correlation energy          =   -0.104290038593182
    Singles MP2 correlation energy            =   -0.000000000000000
    MP2 correlation energy                    =   -0.478569590459889
      * MP2 total energy                      = -115.580179578353224

    Opposite-spin CCSD correlation energy     =   -0.392367798899823
    Same-spin CCSD correlation energy         =   -0.094380765826616
    Singles CCSD correlation energy           =    0.000000000000000
    CCSD correlation energy                   =   -0.486748564726552
      * CCSD total energy                     = -115.588358552619894

            **************************
            *                        *
            *        CCTRIPLES       *
            *                        *
            **************************


    Wave function   =    CCSD_T
    Reference wfn   =      RHF

    Nuclear Rep. energy (wfn)                =   40.295712738859962
    SCF energy          (wfn)                = -115.101609987847041
    Reference energy    (file100)            = -115.101609987893340
    CCSD energy         (file100)            =   -0.486748564726552
    Total CCSD energy   (file100)            = -115.588358552619894

    Number of ijk index combinations:               84
    Memory available in words        :     81250000000
    ~Words needed per explicit thread:       494023968
    Number of threads for explicit ijk threading:    1

    (T) energy                                =   -0.017697324208666
      * CCSD(T) total energy                  = -115.606055876828563


    Psi4 stopped on: Monday, 01 February 2021 06:00PM
    Psi4 wall time for execution: 2 days, 3:04:01.19

*** Psi4 exiting successfully. Buy a developer a beer!
