
    -----------------------------------------------------------------------
          Psi4: An Open-Source Ab Initio Electronic Structure Package
                               Psi4 1.2a1.dev938 

                         Git: Rev {HEAD} fc51d9a dirty


    R. M. Parrish, L. A. Burns, D. G. A. Smith, A. C. Simmonett,
    A. E. DePrince III, E. G. Hohenstein, U. Bozkaya, A. Yu. Sokolov,
    R. Di Remigio, R. M. Richard, J. F. Gonthier, A. M. James,
    H. R. McAlexander, A. Kumar, M. Saitow, X. Wang, B. P. Pritchard,
    P. Verma, H. F. Schaefer III, K. Patkowski, R. A. King, E. F. Valeev,
    F. A. Evangelista, J. M. Turney, T. D. Crawford, and C. D. Sherrill,
    J. Chem. Theory Comput. 13(7) pp 3185--3197 (2017).
    (doi: 10.1021/acs.jctc.7b00174)

    -----------------------------------------------------------------------


    Psi4 started on: Friday, 21 August 2020 03:50AM

    Process ID: 427076
    PSIDATADIR: /home/irmler/Programs/psi4/beforeGrueneis3/stage/usr/local/psi4/share/psi4
    Memory:     500.0 MiB
    Threads:    4
    
  ==> Input File <==

--------------------------------------------------------------------------
# Any line starting with the # character is a comment line
memory 250000 mb
molecule molecule{
0 3
N          0.0000000000        0.0000000000       -0.0692230310
H          0.0000000000        0.0000000000        0.9619483577
}

set {
  reference uhf
  basis aug-cc-pv(5+d)z
  scf_type OUT_OF_CORE
  freeze_core true
}

energy('ccsd')
--------------------------------------------------------------------------

  Memory set to 232.831 GiB by Python driver.

*** tstart() called on cqc05
*** at Fri Aug 21 03:50:54 2020

   => Loading Basis Set <=

    Name: AUG-CC-PV(5+D)Z
    Role: ORBITAL
    Keyword: BASIS
    atoms 1 entry N          line   300 file /home/irmler/Programs/psi4/beforeGrueneis3/stage/usr/local/psi4/share/psi4/basis/aug-cc-pv_5pd_z.gbs 
    atoms 2 entry H          line    56 file /home/irmler/Programs/psi4/beforeGrueneis3/stage/usr/local/psi4/share/psi4/basis/aug-cc-pv_5pd_z.gbs 


         ---------------------------------------------------------
                                   SCF
            by Justin Turney, Rob Parrish, Andy Simmonett
                             and Daniel Smith
                              UHF Reference
                        4 Threads, 238418 MiB Core
         ---------------------------------------------------------

  ==> Geometry <==

    Molecular point group: c2v
    Full point group: C_inf_v

    Geometry (in Angstrom), charge = 0, multiplicity = 3:

       Center              X                  Y                   Z               Mass       
    ------------   -----------------  -----------------  -----------------  -----------------
           N          0.000000000000     0.000000000000    -0.069232384772    14.003074004780
           H          0.000000000000     0.000000000000     0.961939003928     1.007825032070

  Running in c2v symmetry.

  Rotational constants: A = ************  B =     16.86293  C =     16.86293 [cm^-1]
  Rotational constants: A = ************  B = 505537.83716  C = 505537.83716 [MHz]
  Nuclear repulsion =    3.592264584454718

  Charge       = 0
  Multiplicity = 3
  Electrons    = 8
  Nalpha       = 5
  Nbeta        = 3

  ==> Algorithm <==

  SCF Algorithm Type is OUT_OF_CORE.
  DIIS enabled.
  MOM disabled.
  Fractional occupation disabled.
  Guess Type is GWH.
  Energy threshold   = 1.00e-08
  Density threshold  = 1.00e-08
  Integral threshold = 0.00e+00

  ==> Primary Basis <==

  Basis Set: AUG-CC-PV(5+D)Z
    Blend: AUG-CC-PV(5+D)Z
    Number of shells: 47
    Number of basis function: 207
    Number of Cartesian functions: 287
    Spherical Harmonics?: true
    Max angular momentum: 5

  ==> Pre-Iterations <==

   -------------------------------------------------------
    Irrep   Nso     Nmo     Nalpha   Nbeta   Ndocc  Nsocc
   -------------------------------------------------------
     A1        77      77       0       0       0       0
     A2        30      30       0       0       0       0
     B1        50      50       0       0       0       0
     B2        50      50       0       0       0       0
   -------------------------------------------------------
    Total     207     207       5       3       3       2
   -------------------------------------------------------

  ==> Integral Setup <==

  ==> DiskJK: Disk-Based J/K Matrices <==

    J tasked:                  Yes
    K tasked:                  Yes
    wK tasked:                  No
    Memory (MB):            178813
    Schwarz Cutoff:          1E-12

  Minimum eigenvalue in the overlap matrix is 1.7047722503E-05.
  Using Symmetric Orthogonalization.

  SCF Guess: Generalized Wolfsberg-Helmholtz.

  ==> Iterations <==

                        Total Energy        Delta E     RMS |[F,P]|

    Occupation by irrep:
             A1    A2    B1    B2 
    DOCC [     3,    0,    0,    0 ]
    SOCC [     0,    0,    1,    1 ]

   @UHF iter   1:     6.45777261812266    6.45777e+00   3.25842e-01 
   @UHF iter   2:   -52.16119424392559   -5.86190e+01   2.41296e-02 DIIS
   @UHF iter   3:   -54.62167413142647   -2.46048e+00   1.73707e-02 DIIS
   @UHF iter   4:   -54.95076190139410   -3.29088e-01   4.58579e-03 DIIS
   @UHF iter   5:   -54.98496846592883   -3.42066e-02   7.57207e-04 DIIS
   @UHF iter   6:   -54.98633087513592   -1.36241e-03   1.42175e-04 DIIS
   @UHF iter   7:   -54.98638182901859   -5.09539e-05   3.83344e-05 DIIS
   @UHF iter   8:   -54.98638766280347   -5.83378e-06   1.45344e-05 DIIS
   @UHF iter   9:   -54.98638884307458   -1.18027e-06   6.23280e-06 DIIS
   @UHF iter  10:   -54.98638913373381   -2.90659e-07   1.44230e-06 DIIS
   @UHF iter  11:   -54.98638914948491   -1.57511e-08   2.39080e-07 DIIS
   @UHF iter  12:   -54.98638914982273   -3.37828e-10   3.24479e-08 DIIS
   @UHF iter  13:   -54.98638914982665   -3.91509e-12   5.77591e-09 DIIS

  ==> Post-Iterations <==

   @Spin Contamination Metric:   1.651674211E-02
   @S^2 Expected:                2.000000000E+00
   @S^2 Observed:                2.016516742E+00
   @S   Expected:                1.000000000E+00
   @S   Observed:                1.000000000E+00

    Orbital Energies (a.u.)
    -----------------------

    Alpha Occupied:                                                       

       1A1   -15.637817     2A1    -1.174412     3A1    -0.587704  
       1B2    -0.547049     1B1    -0.547049  

    Alpha Virtual:                                                        

       4A1     0.023128     5A1     0.084383     2B1     0.085939  
       2B2     0.085939     6A1     0.123170     7A1     0.168633  
       3B1     0.178388     3B2     0.178388     8A1     0.288870  
       1A2     0.288870     9A1     0.296734    10A1     0.337974  
       4B1     0.364437     4B2     0.364437    11A1     0.426560  
       5B1     0.433439     5B2     0.433439    12A1     0.467526  
       6B1     0.524527     6B2     0.524527    13A1     0.536455  
       2A2     0.536455    14A1     0.662377     7B1     0.783141  
       7B2     0.783141    15A1     0.804565     8B1     0.877540  
       8B2     0.877540    16A1     0.880769     3A2     0.880769  
      17A1     0.896328     9B1     0.913470     9B2     0.913470  
      18A1     0.996715    19A1     1.011264     4A2     1.011264  
      10B1     1.188243    10B2     1.188243    20A1     1.197271  
      11B2     1.256554    11B1     1.256554    12B2     1.314582  
      12B1     1.314582    21A1     1.327839     5A2     1.327839  
      22A1     1.395558    23A1     1.486293    13B1     1.594486  
      13B2     1.594486    24A1     1.817342    25A1     2.051629  
       6A2     2.051629    14B1     2.121125    14B2     2.121125  
       7A2     2.154203    26A1     2.154203    15B2     2.302639  
      15B1     2.302639    27A1     2.353873    16B1     2.362727  
      16B2     2.362727    28A1     2.392858    29A1     2.399557  
       8A2     2.399557    17B1     2.421045    17B2     2.421045  
      18B2     2.429649    18B1     2.429649    30A1     2.434529  
      31A1     2.488146     9A2     2.488146    32A1     2.839414  
      33A1     2.980191    10A2     2.980191    19B2     3.008067  
      19B1     3.008067    34A1     3.058686    11A2     3.058686  
      35A1     3.179165    20B1     3.323993    20B2     3.323993  
      21B2     3.350881    21B1     3.350881    36A1     3.471209  
      37A1     3.480049    12A2     3.480049    38A1     3.668638  
      22B1     3.758679    22B2     3.758679    23B1     4.295807  
      23B2     4.295807    39A1     4.342897    24B2     4.355941  
      24B1     4.355941    25B2     4.736470    25B1     4.736470  
      40A1     4.932006    13A2     4.932006    41A1     4.952294  
      14A2     5.040213    42A1     5.040213    26B1     5.124369  
      26B2     5.124369    27B1     5.421572    27B2     5.421572  
      43A1     5.605978    15A2     5.605978    44A1     5.649324  
      45A1     5.659670    16A2     5.659670    46A1     5.689311  
      28B2     5.691953    28B1     5.691953    29B1     5.749701  
      29B2     5.749701    47A1     5.766934    17A2     5.766934  
      30B2     5.804389    30B1     5.804389    31B2     5.981898  
      31B1     5.981898    48A1     6.040614    32B2     6.159173  
      32B1     6.159173    49A1     6.207911    18A2     6.207911  
      50A1     6.456507    19A2     6.456507    51A1     6.881913  
      52A1     7.333585    33B1     7.486193    33B2     7.486193  
      53A1     7.517348    54A1     7.853452    20A2     7.853452  
      34B2     7.914075    34B1     7.914075    55A1     8.918902  
      35B1     8.986300    35B2     8.986300    56A1    11.037914  
      57A1    12.022250    21A2    12.022250    36B2    12.062251  
      36B1    12.062251    37B1    12.274793    37B2    12.274793  
      38B2    12.381982    38B1    12.381982    58A1    12.443180  
      22A2    12.443180    59A1    12.655797    39B1    12.688103  
      39B2    12.688103    60A1    13.203311    23A2    13.203311  
      61A1    13.254272    40B1    13.356731    40B2    13.356731  
      62A1    13.747449    41B1    13.763473    41B2    13.763473  
      42B1    14.098237    42B2    14.098237    63A1    14.158200  
      24A2    14.158200    64A1    14.323079    25A2    14.323079  
      43B2    14.403154    43B1    14.403154    65A1    14.487974  
      66A1    14.518542    26A2    14.518542    44B1    14.609689  
      44B2    14.609689    67A1    14.632022    27A2    14.632022  
      45B1    14.774949    45B2    14.774949    68A1    15.242886  
      28A2    15.242886    69A1    15.385177    46B1    15.931976  
      46B2    15.931976    70A1    16.105326    47B2    16.317834  
      47B1    16.317834    71A1    16.654325    29A2    16.654325  
      72A1    16.747075    48B1    17.650458    48B2    17.650458  
      73A1    17.820457    30A2    17.820457    74A1    18.310353  
      49B2    18.456917    49B1    18.456917    50B2    20.672008  
      50B1    20.672008    75A1    22.236841    76A1    22.947009  
      77A1    51.531836  

    Beta Occupied:                                                        

       1A1   -15.576805     2A1    -0.923327     3A1    -0.508996  

    Beta Virtual:                                                         

       4A1     0.024802     1B1     0.059774     1B2     0.059774  
       5A1     0.085905     6A1     0.130477     2B1     0.142543  
       2B2     0.142543     7A1     0.171543     3B1     0.197447  
       3B2     0.197447     8A1     0.298316     1A2     0.298316  
       9A1     0.309413    10A1     0.343200     4B1     0.381266  
       4B2     0.381266    11A1     0.436121    12A1     0.477142  
       5B1     0.506746     5B2     0.506746     6B1     0.533623  
       6B2     0.533623    13A1     0.541459     2A2     0.541459  
      14A1     0.683639     7B1     0.792518     7B2     0.792518  
      15A1     0.829585     8B1     0.891699     8B2     0.891699  
      16A1     0.899485    17A1     0.905235     3A2     0.905235  
       9B1     0.933020     9B2     0.933020    18A1     1.008549  
      19A1     1.066326     4A2     1.066326    20A1     1.208947  
      10B1     1.221833    10B2     1.221833    11B1     1.259435  
      11B2     1.259435    21A1     1.329609     5A2     1.329609  
      12B1     1.357372    12B2     1.357372    22A1     1.417689  
      23A1     1.491806    13B1     1.651088    13B2     1.651088  
      24A1     1.840870    25A1     2.069516     6A2     2.069516  
      14B1     2.146302    14B2     2.146302    26A1     2.170756  
       7A2     2.170756    15B1     2.348301    15B2     2.348301  
      27A1     2.364041    16B1     2.373894    16B2     2.373894  
      28A1     2.426028     8A2     2.426028    29A1     2.429200  
      17B2     2.443814    17B1     2.443814    18B1     2.451846  
      18B2     2.451846    30A1     2.455413    31A1     2.599438  
       9A2     2.599438    32A1     2.852924    33A1     2.993081  
      10A2     2.993081    19B1     3.025782    19B2     3.025782  
      34A1     3.062904    11A2     3.062904    35A1     3.202931  
      20B1     3.329767    20B2     3.329767    21B2     3.351198  
      21B1     3.351198    36A1     3.475869    37A1     3.491587  
      12A2     3.491587    38A1     3.695575    22B1     3.836368  
      22B2     3.836368    23B1     4.351077    23B2     4.351077  
      39A1     4.366279    24B2     4.366867    24B1     4.366867  
      25B2     4.758676    25B1     4.758676    40A1     4.952926  
      13A2     4.952926    41A1     4.970855    42A1     5.057813  
      14A2     5.057813    26B2     5.143455    26B1     5.143455  
      27B1     5.445953    27B2     5.445953    43A1     5.628012  
      15A2     5.628012    44A1     5.658508    45A1     5.704871  
      16A2     5.704871    46A1     5.710852    28B2     5.715927  
      28B1     5.715927    29B1     5.762095    29B2     5.762095  
      47A1     5.790008    17A2     5.790008    30B2     5.881611  
      30B1     5.881611    31B2     5.995917    31B1     5.995917  
      48A1     6.069114    32B2     6.183524    32B1     6.183524  
      49A1     6.239336    18A2     6.239336    50A1     6.541425  
      19A2     6.541425    51A1     6.902625    52A1     7.364800  
      33B1     7.507302    33B2     7.507302    53A1     7.540115  
      54A1     7.897398    20A2     7.897398    34B2     7.951445  
      34B1     7.951445    55A1     8.930463    35B1     9.015951  
      35B2     9.015951    56A1    11.080117    57A1    12.039465  
      21A2    12.039465    36B2    12.082234    36B1    12.082234  
      37B1    12.291729    37B2    12.291729    38B2    12.425453  
      38B1    12.425453    58A1    12.475352    22A2    12.475352  
      59A1    12.670206    39B1    12.755477    39B2    12.755477  
      60A1    13.207777    23A2    13.207777    61A1    13.273107  
      40B1    13.357711    40B2    13.357711    62A1    13.763104  
      41B1    13.782936    41B2    13.782936    42B2    14.119925  
      42B1    14.119925    24A2    14.161162    63A1    14.161162  
      64A1    14.347474    25A2    14.347474    43B2    14.406802  
      43B1    14.406802    65A1    14.512730    66A1    14.537874  
      26A2    14.537874    44B1    14.676087    44B2    14.676087  
      67A1    14.694192    27A2    14.694192    45B1    14.823757  
      45B2    14.823757    68A1    15.286019    28A2    15.286019  
      69A1    15.394939    46B2    15.946664    46B1    15.946664  
      70A1    16.115134    47B2    16.343893    47B1    16.343893  
      71A1    16.671175    29A2    16.671175    72A1    16.763277  
      48B1    17.657658    48B2    17.657658    73A1    17.889899  
      30A2    17.889899    74A1    18.325831    49B2    18.486454  
      49B1    18.486454    50B2    20.689708    50B1    20.689708  
      75A1    22.248449    76A1    22.951779    77A1    51.555124  

    Final Occupation by Irrep:
             A1    A2    B1    B2 
    DOCC [     3,    0,    0,    0 ]
    SOCC [     0,    0,    1,    1 ]

  Energy converged.

  @UHF Final Energy:   -54.98638914982665

   => Energetics <=

    Nuclear Repulsion Energy =              3.5922645844547176
    One-Electron Energy =                 -81.6541464169460482
    Two-Electron Energy =                  23.0754926826646880
    PCM Polarization Energy =               0.0000000000000000
    Total Energy =                        -54.9863891498266497

    Alert: EFP and PCM quantities not currently incorporated into SCF psivars.
  UHF NO Occupations:
  HONO-2 :    3 A1 1.9938466
  HONO-1 :    1 B2 1.0000000
  HONO-0 :    1 B1 1.0000000
  LUNO+0 :    4 A1 0.0061534
  LUNO+1 :    5 A1 0.0021231
  LUNO+2 :    6 A1 0.0000030
  LUNO+3 :    7 A1 0.0000000



Properties will be evaluated at   0.000000,   0.000000,   0.000000 Bohr

Properties computed using the SCF density matrix

  Nuclear Dipole Moment: (a.u.)
     X:     0.0000      Y:     0.0000      Z:     0.9020

  Electronic Dipole Moment: (a.u.)
     X:     0.0000      Y:     0.0000      Z:    -0.2584

  Dipole Moment: (a.u.)
     X:     0.0000      Y:     0.0000      Z:     0.6436     Total:     0.6436

  Dipole Moment: (Debye)
     X:     0.0000      Y:     0.0000      Z:     1.6358     Total:     1.6358


*** tstop() called on cqc05 at Fri Aug 21 03:51:33 2020
Module time:
	user time   =      36.32 seconds =       0.61 minutes
	system time =       2.03 seconds =       0.03 minutes
	total time  =         39 seconds =       0.65 minutes
Total time:
	user time   =      36.32 seconds =       0.61 minutes
	system time =       2.03 seconds =       0.03 minutes
	total time  =         39 seconds =       0.65 minutes

*** tstart() called on cqc05
*** at Fri Aug 21 03:51:33 2020


	Wfn Parameters:
	--------------------
	Wavefunction         = CCSD
	Number of irreps     = 4
	Number of MOs        = 207
	Number of active MOs = 206
	AO-Basis             = NONE
	Semicanonical        = false
	Reference            = UHF
	Print Level          = 1

	IRREP	# MOs	# FZDC	# DOCC	# SOCC	# VIRT	# FZVR
	-----	-----	------	------	------	------	------
	 A1	   77	    1	    2	    0	    74	    0
	 A2	   30	    0	    0	    0	    30	    0
	 B1	   50	    0	    0	    1	    49	    0
	 B2	   50	    0	    0	    1	    49	    0
	Transforming integrals...
	IWL integrals will be deleted.
	(OO|OO)...
	Presorting SO-basis two-electron integrals.
	Sorting File: SO Ints (nn|nn) nbuckets = 1
	Transforming the one-electron integrals and constructing Fock matrices
	Starting AA/AB first half-transformation.
	Sorting AA/AB half-transformed integrals.
	Starting BB first half-transformation.
	Sorting BB half-transformed integrals.
	First half integral transformation complete.
	Starting AA second half-transformation.
	Starting AB second half-transformation.
	Starting BB second half-transformation.
	Two-electron integral transformation complete.
	(OO|OV)...
	Starting AA second half-transformation.
	Starting AB second half-transformation.
	Starting BB second half-transformation.
	Two-electron integral transformation complete.
	(OO|VV)...
	Starting AA second half-transformation.
	Starting AB second half-transformation.
	Starting BB second half-transformation.
	Two-electron integral transformation complete.
	(OV|OO)...
	Starting AA/AB first half-transformation.
	Sorting AA/AB half-transformed integrals.
	Starting BB first half-transformation.
	Sorting BB half-transformed integrals.
	First half integral transformation complete.
	Starting AA second half-transformation.
	Starting AB second half-transformation.
	Starting BB second half-transformation.
	Two-electron integral transformation complete.
	(OV|OV)...
	Starting AA second half-transformation.
	Starting AB second half-transformation.
	Starting BB second half-transformation.
	Two-electron integral transformation complete.
	(OV|VV)...
	Starting AA second half-transformation.
	Starting AB second half-transformation.
	Starting BB second half-transformation.
	Two-electron integral transformation complete.
	(VV|OO)...
	Starting AA/AB first half-transformation.
	Sorting AA/AB half-transformed integrals.
	Starting BB first half-transformation.
	Sorting BB half-transformed integrals.
	First half integral transformation complete.
	Starting AA second half-transformation.
	Starting AB second half-transformation.
	Starting BB second half-transformation.
	Two-electron integral transformation complete.
	(VV|OV)...
	Starting AA second half-transformation.
	Starting AB second half-transformation.
	Starting BB second half-transformation.
	Two-electron integral transformation complete.
	(VV|VV)...
	Starting AA second half-transformation.
	Starting AB second half-transformation.
	Starting BB second half-transformation.
	Two-electron integral transformation complete.
	Frozen core energy     =    -45.75998076086142

	Size of irrep 0 of <AB|CD> integrals:     30.118 (MW) /    240.945 (MB)
	Size of irrep 1 of <AB|CD> integrals:     21.354 (MW) /    170.829 (MB)
	Size of irrep 2 of <AB|CD> integrals:     25.969 (MW) /    207.754 (MB)
	Size of irrep 3 of <AB|CD> integrals:     25.969 (MW) /    207.754 (MB)
	Total:                                   103.410 (MW) /    827.282 (MB)

	Size of irrep 0 of <ab|cd> integrals:     31.203 (MW) /    249.627 (MB)
	Size of irrep 1 of <ab|cd> integrals:     22.278 (MW) /    178.227 (MB)
	Size of irrep 2 of <ab|cd> integrals:     27.040 (MW) /    216.320 (MB)
	Size of irrep 3 of <ab|cd> integrals:     27.040 (MW) /    216.320 (MB)
	Total:                                   107.562 (MW) /    860.494 (MB)

	Size of irrep 0 of <Ab|Cd> integrals:    127.148 (MW) /   1017.185 (MB)
	Size of irrep 1 of <Ab|Cd> integrals:     87.236 (MW) /    697.885 (MB)
	Size of irrep 2 of <Ab|Cd> integrals:    106.008 (MW) /    848.061 (MB)
	Size of irrep 3 of <Ab|Cd> integrals:    106.008 (MW) /    848.061 (MB)
	Total:                                   426.399 (MW) /   3411.192 (MB)

	Size of irrep 0 of <IA|BC> integrals:      2.750 (MW) /     21.998 (MB)
	Size of irrep 1 of <IA|BC> integrals:      1.460 (MW) /     11.682 (MB)
	Size of irrep 2 of <IA|BC> integrals:      2.059 (MW) /     16.470 (MB)
	Size of irrep 3 of <IA|BC> integrals:      2.059 (MW) /     16.470 (MB)
	Total:                                     8.328 (MW) /     66.621 (MB)

	Size of irrep 0 of <ia|bc> integrals:      1.684 (MW) /     13.469 (MB)
	Size of irrep 1 of <ia|bc> integrals:      0.566 (MW) /      4.531 (MB)
	Size of irrep 2 of <ia|bc> integrals:      1.040 (MW) /      8.320 (MB)
	Size of irrep 3 of <ia|bc> integrals:      1.040 (MW) /      8.320 (MB)
	Total:                                     4.330 (MW) /     34.640 (MB)

	Size of irrep 0 of <Ia|Bc> integrals:      2.796 (MW) /     22.372 (MB)
	Size of irrep 1 of <Ia|Bc> integrals:      1.494 (MW) /     11.955 (MB)
	Size of irrep 2 of <Ia|Bc> integrals:      2.100 (MW) /     16.803 (MB)
	Size of irrep 3 of <Ia|Bc> integrals:      2.100 (MW) /     16.803 (MB)
	Total:                                     8.492 (MW) /     67.933 (MB)

	Size of irrep 0 of <iA|bC> integrals:      1.669 (MW) /     13.351 (MB)
	Size of irrep 1 of <iA|bC> integrals:      0.560 (MW) /      4.483 (MB)
	Size of irrep 2 of <iA|bC> integrals:      1.009 (MW) /      8.072 (MB)
	Size of irrep 3 of <iA|bC> integrals:      1.009 (MW) /      8.072 (MB)
	Total:                                     4.247 (MW) /     33.978 (MB)

	Size of irrep 0 of tIjAb amplitudes:       0.045 (MW) /      0.361 (MB)
	Size of irrep 1 of tIjAb amplitudes:       0.000 (MW) /      0.000 (MB)
	Size of irrep 2 of tIjAb amplitudes:       0.021 (MW) /      0.165 (MB)
	Size of irrep 3 of tIjAb amplitudes:       0.021 (MW) /      0.165 (MB)
	Total:                                     0.086 (MW) /      0.690 (MB)

	Nuclear Rep. energy          =      3.59226458445472
	SCF energy                   =    -54.98638914982665
	One-electron energy          =    -21.34880779967125
	Two-electron (AA) energy     =      3.21543686357996
	Two-electron (BB) energy     =      0.44815555963671
	Two-electron (AB) energy     =      4.86654240303454
	Two-electron energy          =      8.53013482625121
	Reference energy             =    -54.98638914982673

*** tstop() called on cqc05 at Fri Aug 21 03:52:34 2020
Module time:
	user time   =      37.68 seconds =       0.63 minutes
	system time =      23.32 seconds =       0.39 minutes
	total time  =         61 seconds =       1.02 minutes
Total time:
	user time   =      74.00 seconds =       1.23 minutes
	system time =      25.35 seconds =       0.42 minutes
	total time  =        100 seconds =       1.67 minutes

*** tstart() called on cqc05
*** at Fri Aug 21 03:52:34 2020

            **************************
            *                        *
            *        CCENERGY        *
            *                        *
            **************************

    Nuclear Rep. energy (wfn)     =    3.592264584454718
    SCF energy          (wfn)     =  -54.986389149826650
    Reference energy    (file100) =  -54.986389149826735

    Input parameters:
    -----------------
    Wave function   =     CCSD
    Reference wfn   =     UHF
    Brueckner       =     No
    Memory (Mbytes) =     250000.0
    Maxiter         =     50
    R_Convergence   =     1.0e-07
    E_Convergence   =     1.0e-06
    Restart         =     Yes
    DIIS            =     Yes
    AO Basis        =     NONE
    ABCD            =     NEW
    Cache Level     =     2
    Cache Type      =     LRU
    Print Level     =     1
    Num. of threads =     4
    # Amps to Print =     10
    Print MP2 Amps? =     No
    Analyze T2 Amps =     No
    Print Pair Ener =     No
    Local CC        =     No
    SCS-MP2         =     False
    SCSN-MP2        =     False
    SCS-CCSD        =     False

MP2 correlation energy -0.1526035804069253
                Solving CC Amplitude Equations
                ------------------------------
  Iter             Energy              RMS        T1Diag      D1Diag    New D1Diag    D2Diag
  ----     ---------------------    ---------   ----------  ----------  ----------   --------
     0        -0.152603580406926    0.000e+00    0.000000    0.000000    0.000000    0.000000
     1        -0.163126091661245    3.666e-02    0.009195    0.000000    0.000000    0.000000
     2        -0.167999527639444    1.465e-02    0.013790    0.000000    0.000000    0.000000
     3        -0.168363359660957    4.871e-03    0.015690    0.000000    0.000000    0.000000
     4        -0.168344833084240    1.822e-03    0.016127    0.000000    0.000000    0.000000
     5        -0.168361593670082    7.498e-04    0.016177    0.000000    0.000000    0.000000
     6        -0.168369173441556    3.231e-04    0.016148    0.000000    0.000000    0.000000
     7        -0.168372298264060    1.146e-04    0.016125    0.000000    0.000000    0.000000
     8        -0.168373107403076    3.810e-05    0.016123    0.000000    0.000000    0.000000
     9        -0.168372502752482    1.640e-05    0.016123    0.000000    0.000000    0.000000
    10        -0.168372570194242    7.520e-06    0.016123    0.000000    0.000000    0.000000
    11        -0.168372602531263    2.677e-06    0.016124    0.000000    0.000000    0.000000
    12        -0.168372652451695    9.519e-07    0.016124    0.000000    0.000000    0.000000
    13        -0.168372666529011    3.642e-07    0.016124    0.000000    0.000000    0.000000
    14        -0.168372669271257    1.445e-07    0.016124    0.000000    0.000000    0.000000
    15        -0.168372669964934    5.885e-08    0.016124    0.000000    0.000000    0.000000
    15        -0.168372669964934    5.885e-08    0.016124    0.000000    0.000000    0.000000

    Iterations converged.


    CCSD corr. energy   =   -0.168372669964934
    PPL corr. energy    =    0.041293918200554
    OS PPL corr. energy =    0.035154135244930
    SS PPL corr. energy =    0.006139782955624
    Largest TIA Amplitudes:
              2 107        -0.0095877016
              3 156        -0.0095877016
              2 104        -0.0089614865
              3 153        -0.0089614865
              2 105        -0.0072321881
              3 154        -0.0072321881
              0   7         0.0053182459
              0   2         0.0044001496
              0   6        -0.0040314120
              0  14         0.0036484670

    Largest Tia Amplitudes:
              0  10        -0.0130707683
              0   6         0.0097613417
              0   5         0.0080024489
              0   7        -0.0079674444
              0  18         0.0072825104
              0   2        -0.0068192829
              1   7         0.0064377633
              1   6        -0.0057034903
              0   8         0.0053471592
              1  18         0.0052126681

    Largest TIJAB Amplitudes:
      3   2 156 107        -0.0147275947
      2   1 107   8        -0.0121597021
      3   1 156   8        -0.0121597021
      2   1 107  10         0.0116528520
      3   1 156  10         0.0116528520
      3   2  77  15        -0.0102860245
      2   1 107   5        -0.0095128358
      3   1 156   5        -0.0095128358
      3   2  82  27        -0.0090003123
      2   1 107   3         0.0080446124

    Largest Tijab Amplitudes:
      1   0 112 105         0.0066794766
      1   0 162 155         0.0066794766
      1   0 112 104         0.0052594881
      1   0 162 154         0.0052594881
      1   0  10   8        -0.0051572515
      1   0 112 106         0.0048491190
      1   0 162 156         0.0048491190
      1   0   7   5        -0.0046593562
      1   0  16  10        -0.0045731555
      1   0 107 105        -0.0040266335

    Largest TIjAb Amplitudes:
      1   1  10  10        -0.0267424530
      1   1   8   8        -0.0230805445
      1   1   8  10         0.0215398671
      1   1  10   8         0.0207716820
      1   1   6  10         0.0179499771
      1   1   5  10         0.0179090843
      1   1  10  18         0.0163391633
      1   1  18  10         0.0163371691
      1   1  10   6         0.0162851858
      1   0  10  10        -0.0159368234

    SCF energy       (wfn)                    =  -54.986389149826650
    Reference energy (file100)                =  -54.986389149826735

    Opposite-spin MP2 correlation energy      =   -0.117744245668935
    Same-spin MP2 correlation energy          =   -0.034859334737973
    MP2 correlation energy                    =   -0.152603580406925
      * MP2 total energy                      =  -55.138992730233660

    Opposite-spin CCSD correlation energy     =   -0.133014670550573
    Same-spin CCSD correlation energy         =   -0.035358000996836
    CCSD correlation energy                   =   -0.168372669964934
      * CCSD total energy                     =  -55.154761819791666


*** tstop() called on cqc05 at Fri Aug 21 03:53:29 2020
Module time:
	user time   =      22.66 seconds =       0.38 minutes
	system time =      29.16 seconds =       0.49 minutes
	total time  =         55 seconds =       0.92 minutes
Total time:
	user time   =      96.66 seconds =       1.61 minutes
	system time =      54.51 seconds =       0.91 minutes
	total time  =        155 seconds =       2.58 minutes

*** Psi4 exiting successfully. Buy a developer a beer!
