
    -----------------------------------------------------------------------
          Psi4: An Open-Source Ab Initio Electronic Structure Package
                               Psi4 1.2a1.dev938 

                         Git: Rev {HEAD} fc51d9a dirty


    R. M. Parrish, L. A. Burns, D. G. A. Smith, A. C. Simmonett,
    A. E. DePrince III, E. G. Hohenstein, U. Bozkaya, A. Yu. Sokolov,
    R. Di Remigio, R. M. Richard, J. F. Gonthier, A. M. James,
    H. R. McAlexander, A. Kumar, M. Saitow, X. Wang, B. P. Pritchard,
    P. Verma, H. F. Schaefer III, K. Patkowski, R. A. King, E. F. Valeev,
    F. A. Evangelista, J. M. Turney, T. D. Crawford, and C. D. Sherrill,
    J. Chem. Theory Comput. 13(7) pp 3185--3197 (2017).
    (doi: 10.1021/acs.jctc.7b00174)

    -----------------------------------------------------------------------


    Psi4 started on: Thursday, 20 August 2020 08:02PM

    Process ID: 423519
    PSIDATADIR: /home/irmler/Programs/psi4/beforeGrueneis3/stage/usr/local/psi4/share/psi4
    Memory:     500.0 MiB
    Threads:    4
    
  ==> Input File <==

--------------------------------------------------------------------------
# Any line starting with the # character is a comment line
memory 250000 mb
molecule molecule{
0 3
N          0.0000000000        0.0000000000       -0.0692230310
H          0.0000000000        0.0000000000        0.9619483577
}

set {
  reference uhf
  basis aug-cc-pv(t+d)z
  scf_type OUT_OF_CORE
  freeze_core true
}

energy('ccsd')
--------------------------------------------------------------------------

  Memory set to 232.831 GiB by Python driver.

*** tstart() called on cqc05
*** at Thu Aug 20 20:02:10 2020

   => Loading Basis Set <=

    Name: AUG-CC-PV(T+D)Z
    Role: ORBITAL
    Keyword: BASIS
    atoms 1 entry N          line   301 file /home/irmler/Programs/psi4/beforeGrueneis3/stage/usr/local/psi4/share/psi4/basis/aug-cc-pv_tpd_z.gbs 
    atoms 2 entry H          line    56 file /home/irmler/Programs/psi4/beforeGrueneis3/stage/usr/local/psi4/share/psi4/basis/aug-cc-pv_tpd_z.gbs 


         ---------------------------------------------------------
                                   SCF
            by Justin Turney, Rob Parrish, Andy Simmonett
                             and Daniel Smith
                              UHF Reference
                        4 Threads, 238418 MiB Core
         ---------------------------------------------------------

  ==> Geometry <==

    Molecular point group: c2v
    Full point group: C_inf_v

    Geometry (in Angstrom), charge = 0, multiplicity = 3:

       Center              X                  Y                   Z               Mass       
    ------------   -----------------  -----------------  -----------------  -----------------
           N          0.000000000000     0.000000000000    -0.069232384772    14.003074004780
           H          0.000000000000     0.000000000000     0.961939003928     1.007825032070

  Running in c2v symmetry.

  Rotational constants: A = ************  B =     16.86293  C =     16.86293 [cm^-1]
  Rotational constants: A = ************  B = 505537.83716  C = 505537.83716 [MHz]
  Nuclear repulsion =    3.592264584454718

  Charge       = 0
  Multiplicity = 3
  Electrons    = 8
  Nalpha       = 5
  Nbeta        = 3

  ==> Algorithm <==

  SCF Algorithm Type is OUT_OF_CORE.
  DIIS enabled.
  MOM disabled.
  Fractional occupation disabled.
  Guess Type is GWH.
  Energy threshold   = 1.00e-08
  Density threshold  = 1.00e-08
  Integral threshold = 0.00e+00

  ==> Primary Basis <==

  Basis Set: AUG-CC-PV(T+D)Z
    Blend: AUG-CC-PV(T+D)Z
    Number of shells: 23
    Number of basis function: 69
    Number of Cartesian functions: 80
    Spherical Harmonics?: true
    Max angular momentum: 3

  ==> Pre-Iterations <==

   -------------------------------------------------------
    Irrep   Nso     Nmo     Nalpha   Nbeta   Ndocc  Nsocc
   -------------------------------------------------------
     A1        30      30       0       0       0       0
     A2         7       7       0       0       0       0
     B1        16      16       0       0       0       0
     B2        16      16       0       0       0       0
   -------------------------------------------------------
    Total      69      69       5       3       3       2
   -------------------------------------------------------

  ==> Integral Setup <==

  ==> DiskJK: Disk-Based J/K Matrices <==

    J tasked:                  Yes
    K tasked:                  Yes
    wK tasked:                  No
    Memory (MB):            178813
    Schwarz Cutoff:          1E-12

  Minimum eigenvalue in the overlap matrix is 4.7121828525E-04.
  Using Symmetric Orthogonalization.

  SCF Guess: Generalized Wolfsberg-Helmholtz.

  ==> Iterations <==

                        Total Energy        Delta E     RMS |[F,P]|

    Occupation by irrep:
             A1    A2    B1    B2 
    DOCC [     3,    0,    0,    0 ]
    SOCC [     1,    0,    1,    0 ]

   @UHF iter   1:   -51.25787103474515   -5.12579e+01   1.41321e-01 
    Occupation by irrep:
             A1    A2    B1    B2 
    DOCC [     3,    0,    0,    0 ]
    SOCC [     0,    0,    1,    1 ]

   @UHF iter   2:   -51.89341076504498   -6.35540e-01   5.79289e-02 DIIS
   @UHF iter   3:   -54.44842367489505   -2.55501e+00   4.25962e-02 DIIS
   @UHF iter   4:   -54.91205453250272   -4.63631e-01   1.27962e-02 DIIS
   @UHF iter   5:   -54.98128886630594   -6.92343e-02   1.33865e-03 DIIS
   @UHF iter   6:   -54.98245283841221   -1.16397e-03   3.54340e-04 DIIS
   @UHF iter   7:   -54.98260062941590   -1.47791e-04   1.65581e-04 DIIS
   @UHF iter   8:   -54.98264973714146   -4.91077e-05   5.75556e-05 DIIS
   @UHF iter   9:   -54.98265497416736   -5.23703e-06   1.47076e-05 DIIS
   @UHF iter  10:   -54.98265530651209   -3.32345e-07   2.84092e-06 DIIS
   @UHF iter  11:   -54.98265531266147   -6.14938e-09   5.35646e-07 DIIS
   @UHF iter  12:   -54.98265531287119   -2.09717e-10   1.68496e-07 DIIS
   @UHF iter  13:   -54.98265531289648   -2.52953e-11   3.01235e-08 DIIS
   @UHF iter  14:   -54.98265531289715   -6.67910e-13   3.84602e-09 DIIS

  ==> Post-Iterations <==

   @Spin Contamination Metric:   1.638896642E-02
   @S^2 Expected:                2.000000000E+00
   @S^2 Observed:                2.016388966E+00
   @S   Expected:                1.000000000E+00
   @S   Observed:                1.000000000E+00

    Orbital Energies (a.u.)
    -----------------------

    Alpha Occupied:                                                       

       1A1   -15.639809     2A1    -1.175045     3A1    -0.587758  
       1B1    -0.546798     1B2    -0.546798  

    Alpha Virtual:                                                        

       4A1     0.029427     2B1     0.125938     2B2     0.125938  
       5A1     0.126343     6A1     0.161373     7A1     0.238762  
       3B1     0.263130     3B2     0.263130     8A1     0.414484  
       9A1     0.449555     1A2     0.449555    10A1     0.504762  
       4B2     0.556084     4B1     0.556084     5B1     0.746639  
       5B2     0.746639    11A1     0.768326    12A1     0.797293  
      13A1     0.911771     2A2     0.911771     6B1     0.946334  
       6B2     0.946334    14A1     0.993106    15A1     1.311737  
       7B1     1.325448     7B2     1.325448     8B1     1.483160  
       8B2     1.483160     3A2     1.505729    16A1     1.505729  
      17A1     1.683540     9B1     1.709048     9B2     1.709048  
       4A2     1.758303    18A1     1.758303    19A1     2.088025  
      10B1     2.185939    10B2     2.185939    20A1     2.195454  
      21A1     3.213336    11B1     3.436438    11B2     3.436438  
      22A1     3.897641     5A2     3.897641    23A1     3.980634  
      12B1     4.064097    12B2     4.064097    24A1     4.559006  
      13B1     4.712486    13B2     4.712486    14B2     4.838197  
      14B1     4.838197    25A1     4.911607    26A1     5.003048  
       6A2     5.003048     7A2     5.099906    27A1     5.099906  
      15B1     5.269053    15B2     5.269053    16B1     5.944922  
      16B2     5.944922    28A1     6.057247    29A1     6.315167  
      30A1    11.859815  

    Beta Occupied:                                                        

       1A1   -15.578967     2A1    -0.924044     3A1    -0.508970  

    Beta Virtual:                                                         

       4A1     0.031716     1B1     0.071817     1B2     0.071817  
       5A1     0.129562     6A1     0.172539     2B2     0.195822  
       2B1     0.195822     7A1     0.245456     3B1     0.289894  
       3B2     0.289894     8A1     0.434741     1A2     0.479010  
       9A1     0.479010    10A1     0.517552     4B1     0.576048  
       4B2     0.576048    11A1     0.780512    12A1     0.820452  
       5B2     0.852338     5B1     0.852338     2A2     0.919108  
      13A1     0.919108     6B1     0.969068     6B2     0.969068  
      14A1     1.014712    15A1     1.347554     7B1     1.368932  
       7B2     1.368932     8B2     1.518156     8B1     1.518156  
      16A1     1.630679     3A2     1.630679    17A1     1.702589  
       9B1     1.730150     9B2     1.730150     4A2     1.785977  
      18A1     1.785977    19A1     2.125097    20A1     2.230831  
      10B2     2.240774    10B1     2.240774    21A1     3.221796  
      11B2     3.555781    11B1     3.555781    22A1     3.907052  
       5A2     3.907052    23A1     4.005713    12B1     4.079078  
      12B2     4.079078    24A1     4.597907    13B1     4.731597  
      13B2     4.731597    14B2     4.932932    14B1     4.932932  
      25A1     4.956973    26A1     5.158553     6A2     5.158553  
      27A1     5.162883     7A2     5.162883    15B2     5.345642  
      15B1     5.345642    16B2     5.986014    16B1     5.986014  
      28A1     6.080812    29A1     6.344591    30A1    11.906509  

    Final Occupation by Irrep:
             A1    A2    B1    B2 
    DOCC [     3,    0,    0,    0 ]
    SOCC [     0,    0,    1,    1 ]

  Energy converged.

  @UHF Final Energy:   -54.98265531289715

   => Energetics <=

    Nuclear Repulsion Energy =              3.5922645844547176
    One-Electron Energy =                 -81.6416506320954056
    Two-Electron Energy =                  23.0667307347435404
    PCM Polarization Energy =               0.0000000000000000
    Total Energy =                        -54.9826553128971511

    Alert: EFP and PCM quantities not currently incorporated into SCF psivars.
  UHF NO Occupations:
  HONO-2 :    3 A1 1.9939049
  HONO-1 :    1 B2 1.0000000
  HONO-0 :    1 B1 1.0000000
  LUNO+0 :    4 A1 0.0060951
  LUNO+1 :    5 A1 0.0021175
  LUNO+2 :    6 A1 0.0000027
  LUNO+3 :    7 A1 0.0000000



Properties will be evaluated at   0.000000,   0.000000,   0.000000 Bohr

Properties computed using the SCF density matrix

  Nuclear Dipole Moment: (a.u.)
     X:     0.0000      Y:     0.0000      Z:     0.9020

  Electronic Dipole Moment: (a.u.)
     X:     0.0000      Y:     0.0000      Z:    -0.2573

  Dipole Moment: (a.u.)
     X:     0.0000      Y:     0.0000      Z:     0.6446     Total:     0.6446

  Dipole Moment: (Debye)
     X:     0.0000      Y:     0.0000      Z:     1.6385     Total:     1.6385


*** tstop() called on cqc05 at Thu Aug 20 20:02:10 2020
Module time:
	user time   =       1.13 seconds =       0.02 minutes
	system time =       0.05 seconds =       0.00 minutes
	total time  =          0 seconds =       0.00 minutes
Total time:
	user time   =       1.13 seconds =       0.02 minutes
	system time =       0.05 seconds =       0.00 minutes
	total time  =          0 seconds =       0.00 minutes

*** tstart() called on cqc05
*** at Thu Aug 20 20:02:10 2020


	Wfn Parameters:
	--------------------
	Wavefunction         = CCSD
	Number of irreps     = 4
	Number of MOs        = 69
	Number of active MOs = 68
	AO-Basis             = NONE
	Semicanonical        = false
	Reference            = UHF
	Print Level          = 1

	IRREP	# MOs	# FZDC	# DOCC	# SOCC	# VIRT	# FZVR
	-----	-----	------	------	------	------	------
	 A1	   30	    1	    2	    0	    27	    0
	 A2	   7	    0	    0	    0	    7	    0
	 B1	   16	    0	    0	    1	    15	    0
	 B2	   16	    0	    0	    1	    15	    0
	Transforming integrals...
	IWL integrals will be deleted.
	(OO|OO)...
	Presorting SO-basis two-electron integrals.
	Sorting File: SO Ints (nn|nn) nbuckets = 1
	Transforming the one-electron integrals and constructing Fock matrices
	Starting AA/AB first half-transformation.
	Sorting AA/AB half-transformed integrals.
	Starting BB first half-transformation.
	Sorting BB half-transformed integrals.
	First half integral transformation complete.
	Starting AA second half-transformation.
	Starting AB second half-transformation.
	Starting BB second half-transformation.
	Two-electron integral transformation complete.
	(OO|OV)...
	Starting AA second half-transformation.
	Starting AB second half-transformation.
	Starting BB second half-transformation.
	Two-electron integral transformation complete.
	(OO|VV)...
	Starting AA second half-transformation.
	Starting AB second half-transformation.
	Starting BB second half-transformation.
	Two-electron integral transformation complete.
	(OV|OO)...
	Starting AA/AB first half-transformation.
	Sorting AA/AB half-transformed integrals.
	Starting BB first half-transformation.
	Sorting BB half-transformed integrals.
	First half integral transformation complete.
	Starting AA second half-transformation.
	Starting AB second half-transformation.
	Starting BB second half-transformation.
	Two-electron integral transformation complete.
	(OV|OV)...
	Starting AA second half-transformation.
	Starting AB second half-transformation.
	Starting BB second half-transformation.
	Two-electron integral transformation complete.
	(OV|VV)...
	Starting AA second half-transformation.
	Starting AB second half-transformation.
	Starting BB second half-transformation.
	Two-electron integral transformation complete.
	(VV|OO)...
	Starting AA/AB first half-transformation.
	Sorting AA/AB half-transformed integrals.
	Starting BB first half-transformation.
	Sorting BB half-transformed integrals.
	First half integral transformation complete.
	Starting AA second half-transformation.
	Starting AB second half-transformation.
	Starting BB second half-transformation.
	Two-electron integral transformation complete.
	(VV|OV)...
	Starting AA second half-transformation.
	Starting AB second half-transformation.
	Starting BB second half-transformation.
	Two-electron integral transformation complete.
	(VV|VV)...
	Starting AA second half-transformation.
	Starting AB second half-transformation.
	Starting BB second half-transformation.
	Two-electron integral transformation complete.
	Frozen core energy     =    -45.75892982141632

	Size of irrep 0 of <AB|CD> integrals:      0.339 (MW) /      2.710 (MB)
	Size of irrep 1 of <AB|CD> integrals:      0.171 (MW) /      1.371 (MB)
	Size of irrep 2 of <AB|CD> integrals:      0.260 (MW) /      2.081 (MB)
	Size of irrep 3 of <AB|CD> integrals:      0.260 (MW) /      2.081 (MB)
	Total:                                     1.030 (MW) /      8.243 (MB)

	Size of irrep 0 of <ab|cd> integrals:      0.375 (MW) /      2.996 (MB)
	Size of irrep 1 of <ab|cd> integrals:      0.198 (MW) /      1.584 (MB)
	Size of irrep 2 of <ab|cd> integrals:      0.296 (MW) /      2.367 (MB)
	Size of irrep 3 of <ab|cd> integrals:      0.296 (MW) /      2.367 (MB)
	Total:                                     1.164 (MW) /      9.316 (MB)

	Size of irrep 0 of <Ab|Cd> integrals:      1.583 (MW) /     12.661 (MB)
	Size of irrep 1 of <Ab|Cd> integrals:      0.736 (MW) /      5.889 (MB)
	Size of irrep 2 of <Ab|Cd> integrals:      1.111 (MW) /      8.887 (MB)
	Size of irrep 3 of <Ab|Cd> integrals:      1.111 (MW) /      8.887 (MB)
	Total:                                     4.541 (MW) /     36.324 (MB)

	Size of irrep 0 of <IA|BC> integrals:      0.103 (MW) /      0.825 (MB)
	Size of irrep 1 of <IA|BC> integrals:      0.036 (MW) /      0.291 (MB)
	Size of irrep 2 of <IA|BC> integrals:      0.065 (MW) /      0.522 (MB)
	Size of irrep 3 of <IA|BC> integrals:      0.065 (MW) /      0.522 (MB)
	Total:                                     0.270 (MW) /      2.161 (MB)

	Size of irrep 0 of <ia|bc> integrals:      0.070 (MW) /      0.557 (MB)
	Size of irrep 1 of <ia|bc> integrals:      0.012 (MW) /      0.100 (MB)
	Size of irrep 2 of <ia|bc> integrals:      0.035 (MW) /      0.279 (MB)
	Size of irrep 3 of <ia|bc> integrals:      0.035 (MW) /      0.279 (MB)
	Total:                                     0.152 (MW) /      1.214 (MB)

	Size of irrep 0 of <Ia|Bc> integrals:      0.108 (MW) /      0.866 (MB)
	Size of irrep 1 of <Ia|Bc> integrals:      0.039 (MW) /      0.316 (MB)
	Size of irrep 2 of <Ia|Bc> integrals:      0.070 (MW) /      0.557 (MB)
	Size of irrep 3 of <Ia|Bc> integrals:      0.070 (MW) /      0.557 (MB)
	Total:                                     0.287 (MW) /      2.294 (MB)

	Size of irrep 0 of <iA|bC> integrals:      0.068 (MW) /      0.543 (MB)
	Size of irrep 1 of <iA|bC> integrals:      0.012 (MW) /      0.096 (MB)
	Size of irrep 2 of <iA|bC> integrals:      0.032 (MW) /      0.253 (MB)
	Size of irrep 3 of <iA|bC> integrals:      0.032 (MW) /      0.253 (MB)
	Total:                                     0.143 (MW) /      1.145 (MB)

	Size of irrep 0 of tIjAb amplitudes:       0.005 (MW) /      0.040 (MB)
	Size of irrep 1 of tIjAb amplitudes:       0.000 (MW) /      0.000 (MB)
	Size of irrep 2 of tIjAb amplitudes:       0.002 (MW) /      0.017 (MB)
	Size of irrep 3 of tIjAb amplitudes:       0.002 (MW) /      0.017 (MB)
	Total:                                     0.009 (MW) /      0.074 (MB)

	Nuclear Rep. energy          =      3.59226458445472
	SCF energy                   =    -54.98265531289715
	One-electron energy          =    -21.34256652832361
	Two-electron (AA) energy     =      3.21337754379677
	Two-electron (BB) energy     =      0.44815867099275
	Two-electron (AB) energy     =      4.86504023759840
	Two-electron energy          =      8.52657645238792
	Reference energy             =    -54.98265531289729

*** tstop() called on cqc05 at Thu Aug 20 20:02:11 2020
Module time:
	user time   =       0.46 seconds =       0.01 minutes
	system time =       0.26 seconds =       0.00 minutes
	total time  =          1 seconds =       0.02 minutes
Total time:
	user time   =       1.59 seconds =       0.03 minutes
	system time =       0.31 seconds =       0.01 minutes
	total time  =          1 seconds =       0.02 minutes

*** tstart() called on cqc05
*** at Thu Aug 20 20:02:11 2020

            **************************
            *                        *
            *        CCENERGY        *
            *                        *
            **************************

    Nuclear Rep. energy (wfn)     =    3.592264584454718
    SCF energy          (wfn)     =  -54.982655312897151
    Reference energy    (file100) =  -54.982655312897286

    Input parameters:
    -----------------
    Wave function   =     CCSD
    Reference wfn   =     UHF
    Brueckner       =     No
    Memory (Mbytes) =     250000.0
    Maxiter         =     50
    R_Convergence   =     1.0e-07
    E_Convergence   =     1.0e-06
    Restart         =     Yes
    DIIS            =     Yes
    AO Basis        =     NONE
    ABCD            =     NEW
    Cache Level     =     2
    Cache Type      =     LRU
    Print Level     =     1
    Num. of threads =     4
    # Amps to Print =     10
    Print MP2 Amps? =     No
    Analyze T2 Amps =     No
    Print Pair Ener =     No
    Local CC        =     No
    SCS-MP2         =     False
    SCSN-MP2        =     False
    SCS-CCSD        =     False

MP2 correlation energy -0.1394248301761446
                Solving CC Amplitude Equations
                ------------------------------
  Iter             Energy              RMS        T1Diag      D1Diag    New D1Diag    D2Diag
  ----     ---------------------    ---------   ----------  ----------  ----------   --------
     0        -0.139424830176145    0.000e+00    0.000000    0.000000    0.000000    0.000000
     1        -0.152954262106122    3.770e-02    0.008978    0.000000    0.000000    0.000000
     2        -0.157803624181823    1.485e-02    0.013722    0.000000    0.000000    0.000000
     3        -0.158231005867807    4.893e-03    0.015637    0.000000    0.000000    0.000000
     4        -0.158204033693804    1.809e-03    0.016026    0.000000    0.000000    0.000000
     5        -0.158218356754522    7.668e-04    0.016063    0.000000    0.000000    0.000000
     6        -0.158229140982111    3.007e-04    0.016032    0.000000    0.000000    0.000000
     7        -0.158231309592519    1.094e-04    0.016009    0.000000    0.000000    0.000000
     8        -0.158231549805177    3.623e-05    0.016008    0.000000    0.000000    0.000000
     9        -0.158231175054916    1.498e-05    0.016008    0.000000    0.000000    0.000000
    10        -0.158231232835193    6.115e-06    0.016008    0.000000    0.000000    0.000000
    11        -0.158231231600042    2.339e-06    0.016009    0.000000    0.000000    0.000000
    12        -0.158231262550300    7.716e-07    0.016009    0.000000    0.000000    0.000000
    13        -0.158231270784006    2.907e-07    0.016009    0.000000    0.000000    0.000000
    14        -0.158231272668450    1.052e-07    0.016009    0.000000    0.000000    0.000000
    15        -0.158231272639735    3.639e-08    0.016009    0.000000    0.000000    0.000000
    15        -0.158231272639735    3.639e-08    0.016009    0.000000    0.000000    0.000000

    Iterations converged.


    CCSD corr. energy   =   -0.158231272639735
    PPL corr. energy    =    0.036414481584171
    OS PPL corr. energy =    0.030710372251198
    SS PPL corr. energy =    0.005704109332973
    Largest TIA Amplitudes:
              2  34        -0.0120703831
              3  49        -0.0120703507
              2  35        -0.0092896914
              3  50        -0.0092896777
              2  37        -0.0062868196
              3  52        -0.0062868026
              0   2        -0.0059118768
              0   6         0.0050175796
              1   3        -0.0044878675
              0   7         0.0039965678

    Largest Tia Amplitudes:
              0   4        -0.0103472715
              0   6        -0.0102825245
              0   3         0.0086666890
              0   7        -0.0084595166
              0  10         0.0077975059
              1   6         0.0074175855
              0   2         0.0067851142
              1   8         0.0063200692
              1   3        -0.0050720435
              0  16        -0.0048816618

    Largest TIJAB Amplitudes:
      3   2  52  37        -0.0226080611
      3   2  29  12        -0.0191590993
      2   1  37   8        -0.0188675149
      3   1  52   8        -0.0188675148
      3   2  52  34        -0.0124338374
      3   2  49  37        -0.0124338365
      3   1  52   3        -0.0121430963
      2   1  37   3        -0.0121430963
      3   2  27   5        -0.0116376399
      2   1  37   4         0.0116360280

    Largest Tijab Amplitudes:
      1   0  56  51         0.0073704110
      1   0  40  35         0.0073704110
      1   0   8   4         0.0070885194
      1   0  56  50         0.0070081379
      1   0  40  34         0.0070081378
      1   0  53  50        -0.0066721278
      1   0  37  34        -0.0066721278
      1   0  53  51        -0.0064226816
      1   0  37  35        -0.0064226816
      1   0  10   8         0.0062082839

    Largest TIjAb Amplitudes:
      1   1   8   8        -0.0372268333
      2   1  37   8        -0.0262638163
      3   1  52   8        -0.0262638162
      1   1   3   3        -0.0222085814
      1   1   6   6        -0.0221430790
      1   1   8   3        -0.0218040719
      1   1   3   8        -0.0211096707
      3   0  12  51        -0.0197117580
      3   0  29  35         0.0197117580
      2   0  29  51         0.0197117580

    SCF energy       (wfn)                    =  -54.982655312897151
    Reference energy (file100)                =  -54.982655312897286

    Opposite-spin MP2 correlation energy      =   -0.106353792740006
    Same-spin MP2 correlation energy          =   -0.033071037436135
    MP2 correlation energy                    =   -0.139424830176145
      * MP2 total energy                      =  -55.122080143073433

    Opposite-spin CCSD correlation energy     =   -0.124424422836367
    Same-spin CCSD correlation energy         =   -0.033806849212305
    CCSD correlation energy                   =   -0.158231272639735
      * CCSD total energy                     =  -55.140886585537018


*** tstop() called on cqc05 at Thu Aug 20 20:02:14 2020
Module time:
	user time   =       0.55 seconds =       0.01 minutes
	system time =       0.41 seconds =       0.01 minutes
	total time  =          3 seconds =       0.05 minutes
Total time:
	user time   =       2.14 seconds =       0.04 minutes
	system time =       0.72 seconds =       0.01 minutes
	total time  =          4 seconds =       0.07 minutes

*** Psi4 exiting successfully. Buy a developer a beer!
