
    -----------------------------------------------------------------------
          Psi4: An Open-Source Ab Initio Electronic Structure Package
                               Psi4 1.2a1.dev938 

                         Git: Rev {HEAD} fc51d9a dirty


    R. M. Parrish, L. A. Burns, D. G. A. Smith, A. C. Simmonett,
    A. E. DePrince III, E. G. Hohenstein, U. Bozkaya, A. Yu. Sokolov,
    R. Di Remigio, R. M. Richard, J. F. Gonthier, A. M. James,
    H. R. McAlexander, A. Kumar, M. Saitow, X. Wang, B. P. Pritchard,
    P. Verma, H. F. Schaefer III, K. Patkowski, R. A. King, E. F. Valeev,
    F. A. Evangelista, J. M. Turney, T. D. Crawford, and C. D. Sherrill,
    J. Chem. Theory Comput. 13(7) pp 3185--3197 (2017).
    (doi: 10.1021/acs.jctc.7b00174)

    -----------------------------------------------------------------------


    Psi4 started on: Thursday, 20 August 2020 09:00PM

    Process ID: 424615
    PSIDATADIR: /home/irmler/Programs/psi4/beforeGrueneis3/stage/usr/local/psi4/share/psi4
    Memory:     500.0 MiB
    Threads:    4
    
  ==> Input File <==

--------------------------------------------------------------------------
# Any line starting with the # character is a comment line
memory 250000 mb
molecule molecule{
0 3
N          0.0000000000        0.0000000000       -0.0692230310
H          0.0000000000        0.0000000000        0.9619483577
}

set {
  reference uhf
  basis aug-cc-pv(q+d)z
  scf_type OUT_OF_CORE
  freeze_core true
}

energy('ccsd')
--------------------------------------------------------------------------

  Memory set to 232.831 GiB by Python driver.

*** tstart() called on cqc05
*** at Thu Aug 20 21:00:14 2020

   => Loading Basis Set <=

    Name: AUG-CC-PV(Q+D)Z
    Role: ORBITAL
    Keyword: BASIS
    atoms 1 entry N          line   379 file /home/irmler/Programs/psi4/beforeGrueneis3/stage/usr/local/psi4/share/psi4/basis/aug-cc-pv_qpd_z.gbs 
    atoms 2 entry H          line    56 file /home/irmler/Programs/psi4/beforeGrueneis3/stage/usr/local/psi4/share/psi4/basis/aug-cc-pv_qpd_z.gbs 


         ---------------------------------------------------------
                                   SCF
            by Justin Turney, Rob Parrish, Andy Simmonett
                             and Daniel Smith
                              UHF Reference
                        4 Threads, 238418 MiB Core
         ---------------------------------------------------------

  ==> Geometry <==

    Molecular point group: c2v
    Full point group: C_inf_v

    Geometry (in Angstrom), charge = 0, multiplicity = 3:

       Center              X                  Y                   Z               Mass       
    ------------   -----------------  -----------------  -----------------  -----------------
           N          0.000000000000     0.000000000000    -0.069232384772    14.003074004780
           H          0.000000000000     0.000000000000     0.961939003928     1.007825032070

  Running in c2v symmetry.

  Rotational constants: A = ************  B =     16.86293  C =     16.86293 [cm^-1]
  Rotational constants: A = ************  B = 505537.83716  C = 505537.83716 [MHz]
  Nuclear repulsion =    3.592264584454718

  Charge       = 0
  Multiplicity = 3
  Electrons    = 8
  Nalpha       = 5
  Nbeta        = 3

  ==> Algorithm <==

  SCF Algorithm Type is OUT_OF_CORE.
  DIIS enabled.
  MOM disabled.
  Fractional occupation disabled.
  Guess Type is GWH.
  Energy threshold   = 1.00e-08
  Density threshold  = 1.00e-08
  Integral threshold = 0.00e+00

  ==> Primary Basis <==

  Basis Set: AUG-CC-PV(Q+D)Z
    Blend: AUG-CC-PV(Q+D)Z
    Number of shells: 34
    Number of basis function: 126
    Number of Cartesian functions: 160
    Spherical Harmonics?: true
    Max angular momentum: 4

  ==> Pre-Iterations <==

   -------------------------------------------------------
    Irrep   Nso     Nmo     Nalpha   Nbeta   Ndocc  Nsocc
   -------------------------------------------------------
     A1        50      50       0       0       0       0
     A2        16      16       0       0       0       0
     B1        30      30       0       0       0       0
     B2        30      30       0       0       0       0
   -------------------------------------------------------
    Total     126     126       5       3       3       2
   -------------------------------------------------------

  ==> Integral Setup <==

  ==> DiskJK: Disk-Based J/K Matrices <==

    J tasked:                  Yes
    K tasked:                  Yes
    wK tasked:                  No
    Memory (MB):            178813
    Schwarz Cutoff:          1E-12

  Minimum eigenvalue in the overlap matrix is 1.3272558214E-04.
  Using Symmetric Orthogonalization.

  SCF Guess: Generalized Wolfsberg-Helmholtz.

  ==> Iterations <==

                        Total Energy        Delta E     RMS |[F,P]|

    Occupation by irrep:
             A1    A2    B1    B2 
    DOCC [     3,    0,    0,    0 ]
    SOCC [     1,    0,    1,    0 ]

   @UHF iter   1:   -49.10646590328570   -4.91065e+01   1.48166e-01 
    Occupation by irrep:
             A1    A2    B1    B2 
    DOCC [     3,    0,    0,    0 ]
    SOCC [     0,    0,    1,    1 ]

   @UHF iter   2:   -51.41504078310970   -2.30857e+00   4.05501e-02 DIIS
   @UHF iter   3:   -54.17825016869168   -2.76321e+00   3.42557e-02 DIIS
   @UHF iter   4:   -54.87759080141883   -6.99341e-01   1.13351e-02 DIIS
   @UHF iter   5:   -54.98349113053818   -1.05900e-01   1.05674e-03 DIIS
   @UHF iter   6:   -54.98542801274983   -1.93688e-03   2.79022e-04 DIIS
   @UHF iter   7:   -54.98560128617184   -1.73273e-04   1.39608e-04 DIIS
   @UHF iter   8:   -54.98566843148414   -6.71453e-05   4.78610e-05 DIIS
   @UHF iter   9:   -54.98567739686020   -8.96538e-06   1.19722e-05 DIIS
   @UHF iter  10:   -54.98567784069104   -4.43831e-07   2.58941e-06 DIIS
   @UHF iter  11:   -54.98567785815671   -1.74657e-08   4.76354e-07 DIIS
   @UHF iter  12:   -54.98567785860938   -4.52673e-10   1.29591e-07 DIIS
   @UHF iter  13:   -54.98567785864876   -3.93783e-11   2.41453e-08 DIIS
   @UHF iter  14:   -54.98567785865012   -1.36424e-12   3.62809e-09 DIIS

  ==> Post-Iterations <==

   @Spin Contamination Metric:   1.649955842E-02
   @S^2 Expected:                2.000000000E+00
   @S^2 Observed:                2.016499558E+00
   @S   Expected:                1.000000000E+00
   @S   Observed:                1.000000000E+00

    Orbital Energies (a.u.)
    -----------------------

    Alpha Occupied:                                                       

       1A1   -15.638386     2A1    -1.174569     3A1    -0.587721  
       1B2    -0.546995     1B1    -0.546995  

    Alpha Virtual:                                                        

       4A1     0.026718     5A1     0.105331     2B1     0.106216  
       2B2     0.106216     6A1     0.142433     7A1     0.203914  
       3B1     0.213266     3B2     0.213266     8A1     0.334691  
       1A2     0.334691     9A1     0.347487    10A1     0.386677  
       4B2     0.420782     4B1     0.420782     5B1     0.575813  
       5B2     0.575813    11A1     0.589565    12A1     0.635595  
      13A1     0.675825     2A2     0.675825     6B1     0.693825  
       6B2     0.693825    14A1     0.756057    15A1     0.951261  
       7B1     1.009190     7B2     1.009190     8B2     1.023644  
       8B1     1.023644     3A2     1.087767    16A1     1.087767  
      17A1     1.164360     9B2     1.169377     9B1     1.169377  
       4A2     1.233783    18A1     1.233783    19A1     1.486013  
      10B1     1.521007    10B2     1.521007    20A1     1.549866  
      11B1     1.683464    11B2     1.683464    21A1     1.771139  
      22A1     1.898922     5A2     1.898922    12B2     1.940930  
      12B1     1.940930    23A1     2.109336    13B1     2.324956  
      13B2     2.324956     6A2     2.643290    24A1     2.643290  
      14B2     2.687650    14B1     2.687650    25A1     2.744843  
      26A1     2.833521     7A2     2.833521    15B2     3.100479  
      15B1     3.100479    27A1     3.124157    16B2     3.133834  
      16B1     3.133834    17B2     3.140215    17B1     3.140215  
      28A1     3.174117    29A1     3.177579     8A2     3.177579  
      18B2     3.266258    18B1     3.266258     9A2     3.268210  
      30A1     3.268210    31A1     3.351818    32A1     3.845614  
      19B2     4.008505    19B1     4.008505    33A1     4.075162  
      10A2     4.075162    34A1     4.466259    20B2     4.934559  
      20B1     4.934559    35A1     4.968639    21B1     6.599563  
      21B2     6.599563    36A1     7.143257    11A2     7.143257  
      22B2     7.372525    22B1     7.372525    37A1     7.443163  
      38A1     8.162135    23B2     8.174157    23B1     8.174157  
      39A1     8.199781    12A2     8.199781    40A1     8.335225  
      13A2     8.335225    24B1     8.403619    24B2     8.403619  
      25B1     8.447509    25B2     8.447509    41A1     8.509346  
      26B2     8.919902    26B1     8.919902    42A1     8.990033  
      43A1     9.073227    14A2     9.073227    27B2     9.104590  
      27B1     9.104590    44A1     9.328733    45A1     9.464661  
      15A2     9.464661    28B2     9.469535    28B1     9.469535  
      46A1     9.762616    16A2     9.762616    29B2    10.344790  
      29B1    10.344790    47A1    10.616989    30B2    11.956367  
      30B1    11.956367    48A1    12.120765    49A1    14.292919  
      50A1    31.970494  

    Beta Occupied:                                                        

       1A1   -15.577139     2A1    -0.923492     3A1    -0.509031  

    Beta Virtual:                                                         

       4A1     0.028742     1B1     0.066753     1B2     0.066753  
       5A1     0.107655     6A1     0.151018     2B1     0.166327  
       2B2     0.166327     7A1     0.209030     3B1     0.239243  
       3B2     0.239243     1A2     0.349018     8A1     0.349018  
       9A1     0.364240    10A1     0.392861     4B1     0.434906  
       4B2     0.434906    11A1     0.597175     5B1     0.642522  
       5B2     0.642522    12A1     0.654813     2A2     0.682848  
      13A1     0.682848     6B1     0.733947     6B2     0.733947  
      14A1     0.776547    15A1     0.983171     7B1     1.026210  
       7B2     1.026210     8B1     1.061821     8B2     1.061821  
       3A2     1.141338    16A1     1.141338    17A1     1.170536  
       9B1     1.176238     9B2     1.176238     4A2     1.285427  
      18A1     1.285427    19A1     1.509188    10B1     1.558377  
      10B2     1.558377    20A1     1.569013    11B1     1.687995  
      11B2     1.687995    21A1     1.779243     5A2     1.900657  
      22A1     1.900657    12B2     1.960043    12B1     1.960043  
      23A1     2.118861    13B2     2.426167    13B1     2.426167  
       6A2     2.663300    24A1     2.663300    14B2     2.706503  
      14B1     2.706503    25A1     2.773645    26A1     2.860700  
       7A2     2.860700    15B2     3.127945    15B1     3.127945  
      27A1     3.152167    16B1     3.158667    16B2     3.158667  
      17B2     3.204296    17B1     3.204296    28A1     3.204564  
       8A2     3.224430    29A1     3.224430    18B2     3.308441  
      18B1     3.308441    30A1     3.392809    31A1     3.394191  
       9A2     3.394191    32A1     3.875482    19B2     4.035406  
      19B1     4.035406    33A1     4.100036    10A2     4.100036  
      34A1     4.481606    20B2     4.973674    20B1     4.973674  
      35A1     4.999420    21B1     6.603447    21B2     6.603447  
      36A1     7.160169    11A2     7.160169    22B2     7.384948  
      22B1     7.384948    37A1     7.458853    38A1     8.176081  
      23B2     8.192665    23B1     8.192665    39A1     8.261309  
      12A2     8.261309    40A1     8.346265    13A2     8.346265  
      24B1     8.450589    24B2     8.450589    41A1     8.526159  
      25B2     8.527577    25B1     8.527577    26B2     8.948071  
      26B1     8.948071    42A1     9.022778    43A1     9.114952  
      14A2     9.114952    27B2     9.199467    27B1     9.199467  
      44A1     9.352642    28B2     9.487293    28B1     9.487293  
      45A1     9.538252    15A2     9.538252    46A1     9.842225  
      16A2     9.842225    29B2    10.393431    29B1    10.393431  
      47A1    10.634246    30B2    11.987436    30B1    11.987436  
      48A1    12.140345    49A1    14.306174    50A1    32.008812  

    Final Occupation by Irrep:
             A1    A2    B1    B2 
    DOCC [     3,    0,    0,    0 ]
    SOCC [     0,    0,    1,    1 ]

  Energy converged.

  @UHF Final Energy:   -54.98567785865012

   => Energetics <=

    Nuclear Repulsion Energy =              3.5922645844547176
    One-Electron Energy =                 -81.6515575606249513
    Two-Electron Energy =                  23.0736151175201272
    Total Energy =                        -54.9856778586501136


  UHF NO Occupations:
  HONO-2 :    3 A1 1.9938527
  HONO-1 :    1 B1 1.0000000
  HONO-0 :    1 B2 1.0000000
  LUNO+0 :    4 A1 0.0061473
  LUNO+1 :    5 A1 0.0021208
  LUNO+2 :    6 A1 0.0000028
  LUNO+3 :    7 A1 0.0000000



Properties will be evaluated at   0.000000,   0.000000,   0.000000 Bohr

Properties computed using the SCF density matrix

  Nuclear Dipole Moment: (a.u.)
     X:     0.0000      Y:     0.0000      Z:     0.9020

  Electronic Dipole Moment: (a.u.)
     X:     0.0000      Y:     0.0000      Z:    -0.2585

  Dipole Moment: (a.u.)
     X:     0.0000      Y:     0.0000      Z:     0.6435     Total:     0.6435

  Dipole Moment: (Debye)
     X:     0.0000      Y:     0.0000      Z:     1.6357     Total:     1.6357


*** tstop() called on cqc05 at Thu Aug 20 21:00:19 2020
Module time:
	user time   =       5.34 seconds =       0.09 minutes
	system time =       0.28 seconds =       0.00 minutes
	total time  =          5 seconds =       0.08 minutes
Total time:
	user time   =       5.34 seconds =       0.09 minutes
	system time =       0.28 seconds =       0.00 minutes
	total time  =          5 seconds =       0.08 minutes

*** tstart() called on cqc05
*** at Thu Aug 20 21:00:19 2020


	Wfn Parameters:
	--------------------
	Wavefunction         = CCSD
	Number of irreps     = 4
	Number of MOs        = 126
	Number of active MOs = 125
	AO-Basis             = NONE
	Semicanonical        = false
	Reference            = UHF
	Print Level          = 1

	IRREP	# MOs	# FZDC	# DOCC	# SOCC	# VIRT	# FZVR
	-----	-----	------	------	------	------	------
	 A1	   50	    1	    2	    0	    47	    0
	 A2	   16	    0	    0	    0	    16	    0
	 B1	   30	    0	    0	    1	    29	    0
	 B2	   30	    0	    0	    1	    29	    0
	Transforming integrals...
	IWL integrals will be deleted.
	(OO|OO)...
	Presorting SO-basis two-electron integrals.
	Sorting File: SO Ints (nn|nn) nbuckets = 1
	Transforming the one-electron integrals and constructing Fock matrices
	Starting AA/AB first half-transformation.
	Sorting AA/AB half-transformed integrals.
	Starting BB first half-transformation.
	Sorting BB half-transformed integrals.
	First half integral transformation complete.
	Starting AA second half-transformation.
	Starting AB second half-transformation.
	Starting BB second half-transformation.
	Two-electron integral transformation complete.
	(OO|OV)...
	Starting AA second half-transformation.
	Starting AB second half-transformation.
	Starting BB second half-transformation.
	Two-electron integral transformation complete.
	(OO|VV)...
	Starting AA second half-transformation.
	Starting AB second half-transformation.
	Starting BB second half-transformation.
	Two-electron integral transformation complete.
	(OV|OO)...
	Starting AA/AB first half-transformation.
	Sorting AA/AB half-transformed integrals.
	Starting BB first half-transformation.
	Sorting BB half-transformed integrals.
	First half integral transformation complete.
	Starting AA second half-transformation.
	Starting AB second half-transformation.
	Starting BB second half-transformation.
	Two-electron integral transformation complete.
	(OV|OV)...
	Starting AA second half-transformation.
	Starting AB second half-transformation.
	Starting BB second half-transformation.
	Two-electron integral transformation complete.
	(OV|VV)...
	Starting AA second half-transformation.
	Starting AB second half-transformation.
	Starting BB second half-transformation.
	Two-electron integral transformation complete.
	(VV|OO)...
	Starting AA/AB first half-transformation.
	Sorting AA/AB half-transformed integrals.
	Starting BB first half-transformation.
	Sorting BB half-transformed integrals.
	First half integral transformation complete.
	Starting AA second half-transformation.
	Starting AB second half-transformation.
	Starting BB second half-transformation.
	Two-electron integral transformation complete.
	(VV|OV)...
	Starting AA second half-transformation.
	Starting AB second half-transformation.
	Starting BB second half-transformation.
	Two-electron integral transformation complete.
	(VV|VV)...
	Starting AA second half-transformation.
	Starting AB second half-transformation.
	Starting BB second half-transformation.
	Two-electron integral transformation complete.
	Frozen core energy     =    -45.75988338983107

	Size of irrep 0 of <AB|CD> integrals:      4.052 (MW) /     32.417 (MB)
	Size of irrep 1 of <AB|CD> integrals:      2.538 (MW) /     20.301 (MB)
	Size of irrep 2 of <AB|CD> integrals:      3.338 (MW) /     26.703 (MB)
	Size of irrep 3 of <AB|CD> integrals:      3.338 (MW) /     26.703 (MB)
	Total:                                    13.266 (MW) /    106.125 (MB)

	Size of irrep 0 of <ab|cd> integrals:      4.289 (MW) /     34.312 (MB)
	Size of irrep 1 of <ab|cd> integrals:      2.729 (MW) /     21.833 (MB)
	Size of irrep 2 of <ab|cd> integrals:      3.572 (MW) /     28.577 (MB)
	Size of irrep 3 of <ab|cd> integrals:      3.572 (MW) /     28.577 (MB)
	Total:                                    14.162 (MW) /    113.299 (MB)

	Size of irrep 0 of <Ab|Cd> integrals:     17.682 (MW) /    141.456 (MB)
	Size of irrep 1 of <Ab|Cd> integrals:     10.524 (MW) /     84.188 (MB)
	Size of irrep 2 of <Ab|Cd> integrals:     13.816 (MW) /    110.529 (MB)
	Size of irrep 3 of <Ab|Cd> integrals:     13.816 (MW) /    110.529 (MB)
	Total:                                    55.838 (MW) /    446.702 (MB)

	Size of irrep 0 of <IA|BC> integrals:      0.630 (MW) /      5.043 (MB)
	Size of irrep 1 of <IA|BC> integrals:      0.287 (MW) /      2.294 (MB)
	Size of irrep 2 of <IA|BC> integrals:      0.442 (MW) /      3.537 (MB)
	Size of irrep 3 of <IA|BC> integrals:      0.442 (MW) /      3.537 (MB)
	Total:                                     1.801 (MW) /     14.411 (MB)

	Size of irrep 0 of <ia|bc> integrals:      0.401 (MW) /      3.207 (MB)
	Size of irrep 1 of <ia|bc> integrals:      0.106 (MW) /      0.846 (MB)
	Size of irrep 2 of <ia|bc> integrals:      0.227 (MW) /      1.814 (MB)
	Size of irrep 3 of <ia|bc> integrals:      0.227 (MW) /      1.814 (MB)
	Total:                                     0.960 (MW) /      7.682 (MB)

	Size of irrep 0 of <Ia|Bc> integrals:      0.648 (MW) /      5.181 (MB)
	Size of irrep 1 of <Ia|Bc> integrals:      0.298 (MW) /      2.388 (MB)
	Size of irrep 2 of <Ia|Bc> integrals:      0.457 (MW) /      3.658 (MB)
	Size of irrep 3 of <Ia|Bc> integrals:      0.457 (MW) /      3.658 (MB)
	Total:                                     1.860 (MW) /     14.883 (MB)

	Size of irrep 0 of <iA|bC> integrals:      0.395 (MW) /      3.162 (MB)
	Size of irrep 1 of <iA|bC> integrals:      0.104 (MW) /      0.830 (MB)
	Size of irrep 2 of <iA|bC> integrals:      0.216 (MW) /      1.725 (MB)
	Size of irrep 3 of <iA|bC> integrals:      0.216 (MW) /      1.725 (MB)
	Total:                                     0.930 (MW) /      7.442 (MB)

	Size of irrep 0 of tIjAb amplitudes:       0.017 (MW) /      0.135 (MB)
	Size of irrep 1 of tIjAb amplitudes:       0.000 (MW) /      0.000 (MB)
	Size of irrep 2 of tIjAb amplitudes:       0.007 (MW) /      0.059 (MB)
	Size of irrep 3 of tIjAb amplitudes:       0.007 (MW) /      0.059 (MB)
	Total:                                     0.032 (MW) /      0.254 (MB)

	Nuclear Rep. energy          =      3.59226458445472
	SCF energy                   =    -54.98567785865012
	One-electron energy          =    -21.34731516845676
	Two-electron (AA) energy     =      3.21494926855718
	Two-electron (BB) energy     =      0.44815388588470
	Two-electron (AB) energy     =      4.86615296074113
	Two-electron energy          =      8.52925611518301
	Reference energy             =    -54.98567785865010

*** tstop() called on cqc05 at Thu Aug 20 21:00:27 2020
Module time:
	user time   =       4.93 seconds =       0.08 minutes
	system time =       3.32 seconds =       0.06 minutes
	total time  =          8 seconds =       0.13 minutes
Total time:
	user time   =      10.27 seconds =       0.17 minutes
	system time =       3.60 seconds =       0.06 minutes
	total time  =         13 seconds =       0.22 minutes

*** tstart() called on cqc05
*** at Thu Aug 20 21:00:27 2020

            **************************
            *                        *
            *        CCENERGY        *
            *                        *
            **************************

    Nuclear Rep. energy (wfn)     =    3.592264584454718
    SCF energy          (wfn)     =  -54.985677858650121
    Reference energy    (file100) =  -54.985677858650099

    Input parameters:
    -----------------
    Wave function   =     CCSD
    Reference wfn   =     UHF
    Brueckner       =     No
    Memory (Mbytes) =     250000.0
    Maxiter         =     50
    R_Convergence   =     1.0e-07
    E_Convergence   =     1.0e-06
    Restart         =     Yes
    DIIS            =     Yes
    AO Basis        =     NONE
    ABCD            =     NEW
    Cache Level     =     2
    Cache Type      =     LRU
    Print Level     =     1
    Num. of threads =     4
    # Amps to Print =     10
    Print MP2 Amps? =     No
    Analyze T2 Amps =     No
    Print Pair Ener =     No
    Local CC        =     No
    SCS-MP2         =     False
    SCSN-MP2        =     False
    SCS-CCSD        =     False

MP2 correlation energy -0.1488623539165649
                Solving CC Amplitude Equations
                ------------------------------
  Iter             Energy              RMS        T1Diag      D1Diag    New D1Diag    D2Diag
  ----     ---------------------    ---------   ----------  ----------  ----------   --------
     0        -0.148862353916565    0.000e+00    0.000000    0.000000    0.000000    0.000000
     1        -0.160630224370497    3.688e-02    0.009091    0.000000    0.000000    0.000000
     2        -0.165431044405099    1.468e-02    0.013762    0.000000    0.000000    0.000000
     3        -0.165822641764435    4.850e-03    0.015655    0.000000    0.000000    0.000000
     4        -0.165802430194910    1.807e-03    0.016072    0.000000    0.000000    0.000000
     5        -0.165816600725345    7.510e-04    0.016117    0.000000    0.000000    0.000000
     6        -0.165825427295384    3.112e-04    0.016088    0.000000    0.000000    0.000000
     7        -0.165828465036101    1.121e-04    0.016065    0.000000    0.000000    0.000000
     8        -0.165828915110245    3.634e-05    0.016064    0.000000    0.000000    0.000000
     9        -0.165828376428530    1.541e-05    0.016064    0.000000    0.000000    0.000000
    10        -0.165828455356946    6.900e-06    0.016064    0.000000    0.000000    0.000000
    11        -0.165828479630888    2.502e-06    0.016064    0.000000    0.000000    0.000000
    12        -0.165828524002756    8.365e-07    0.016064    0.000000    0.000000    0.000000
    13        -0.165828533328272    3.151e-07    0.016065    0.000000    0.000000    0.000000
    14        -0.165828534770195    1.204e-07    0.016065    0.000000    0.000000    0.000000
    15        -0.165828535094206    4.567e-08    0.016065    0.000000    0.000000    0.000000
    15        -0.165828535094206    4.567e-08    0.016065    0.000000    0.000000    0.000000

    Iterations converged.


    CCSD corr. energy   =   -0.165828535094206
    PPL corr. energy    =    0.039820132585060
    OS PPL corr. energy =    0.033790702528113
    SS PPL corr. energy =    0.006029430056947
    Largest TIA Amplitudes:
              2  63        -0.0103174936
              3  92        -0.0103174097
              2  64        -0.0085006885
              3  93        -0.0085006370
              2  66        -0.0080382752
              3  95        -0.0080382101
              0   2         0.0049806749
              0   6        -0.0044142967
              1  21         0.0042736956
              0   7        -0.0042333071

    Largest Tia Amplitudes:
              0  10        -0.0119176574
              0   5        -0.0111542948
              0   7         0.0087976347
              0   6         0.0085739003
              0   2        -0.0074656695
              1   6        -0.0067664075
              0  15        -0.0064824856
              1   8        -0.0060805821
              0   3         0.0057105529
              0  16         0.0051094358

    Largest TIJAB Amplitudes:
      3   2  95  66        -0.0177682262
      2   1  66   8         0.0142573010
      3   1  95   8         0.0142572994
      3   2  49  12        -0.0133520286
      2   1  66   5         0.0119724545
      3   1  95   5         0.0119724533
      2   1  66  10         0.0109420405
      3   1  95  10         0.0109420394
      3   2 103  66        -0.0096925367
      3   2  95  74        -0.0096925351

    Largest Tijab Amplitudes:
      1   0  70  64         0.0075037418
      1   0 100  94         0.0075037418
      1   0  70  63         0.0069743953
      1   0 100  93         0.0069743953
      1   0   8   5        -0.0069116960
      1   0  10   8         0.0065775059
      1   0  70  65         0.0060489391
      1   0 100  95         0.0060489391
      1   0  15   5         0.0047969986
      1   0   8   2        -0.0047043971

    Largest TIjAb Amplitudes:
      1   1   8   8        -0.0277516967
      1   1  10  10        -0.0217932722
      1   1   5   5        -0.0217656847
      1   1   5  10        -0.0207366618
      2   1  66   8         0.0202032067
      3   1  95   8         0.0202032046
      1   1  10   5        -0.0177472451
      1   1   7   7        -0.0173202685
      1   1   7  10         0.0164036337
      1   1  10   7         0.0156696289

    SCF energy       (wfn)                    =  -54.985677858650121
    Reference energy (file100)                =  -54.985677858650099

    Opposite-spin MP2 correlation energy      =   -0.114416835013943
    Same-spin MP2 correlation energy          =   -0.034445518902610
    MP2 correlation energy                    =   -0.148862353916565
      * MP2 total energy                      =  -55.134540212566662

    Opposite-spin CCSD correlation energy     =   -0.130813206770762
    Same-spin CCSD correlation energy         =   -0.035015327001587
    CCSD correlation energy                   =   -0.165828535094206
      * CCSD total energy                     =  -55.151506393744306


*** tstop() called on cqc05 at Thu Aug 20 21:00:36 2020
Module time:
	user time   =       3.43 seconds =       0.06 minutes
	system time =       3.74 seconds =       0.06 minutes
	total time  =          9 seconds =       0.15 minutes
Total time:
	user time   =      13.70 seconds =       0.23 minutes
	system time =       7.34 seconds =       0.12 minutes
	total time  =         22 seconds =       0.37 minutes

*** Psi4 exiting successfully. Buy a developer a beer!
