
    -----------------------------------------------------------------------
          Psi4: An Open-Source Ab Initio Electronic Structure Package
                               Psi4 1.2a1.dev939 

                         Git: Rev {HEAD} fa1ec19 


    R. M. Parrish, L. A. Burns, D. G. A. Smith, A. C. Simmonett,
    A. E. DePrince III, E. G. Hohenstein, U. Bozkaya, A. Yu. Sokolov,
    R. Di Remigio, R. M. Richard, J. F. Gonthier, A. M. James,
    H. R. McAlexander, A. Kumar, M. Saitow, X. Wang, B. P. Pritchard,
    P. Verma, H. F. Schaefer III, K. Patkowski, R. A. King, E. F. Valeev,
    F. A. Evangelista, J. M. Turney, T. D. Crawford, and C. D. Sherrill,
    J. Chem. Theory Comput. 13(7) pp 3185--3197 (2017).
    (doi: 10.1021/acs.jctc.7b00174)

    -----------------------------------------------------------------------


    Psi4 started on: Friday, 26 April 2019 07:26PM

    Process ID:  21890
    PSIDATADIR: /home/grueneis/src/psi4/objdir/stage/usr/local/psi4/share/psi4
    Memory:     500.0 MiB
    Threads:    1
    
  ==> Input File <==

--------------------------------------------------------------------------
# Any line starting with the # character is a comment line

memory 32000 mb

molecule molecule {
0 1
Si         0.0000000000        0.0000000000        0.0702843410
H          0.0000000000        1.0886337008       -0.9792104977
H          0.0000000000       -1.0886337008       -0.9792104977
}

set {
  reference rhf
  basis aug-cc-pv(T+d)z
  scf_type OUT_OF_CORE
  freeze_core true
}

energy('ccsd')
--------------------------------------------------------------------------

  Memory set to  29.802 GiB by Python driver.

*** tstart() called on cqc01
*** at Fri Apr 26 19:26:39 2019

   => Loading Basis Set <=

    Name: AUG-CC-PV(T+D)Z
    Role: ORBITAL
    Keyword: BASIS
    atoms 1   entry SI         line   760 file /home/grueneis/src/psi4/objdir/stage/usr/local/psi4/share/psi4/basis/aug-cc-pv_tpd_z.gbs 
    atoms 2-3 entry H          line    56 file /home/grueneis/src/psi4/objdir/stage/usr/local/psi4/share/psi4/basis/aug-cc-pv_tpd_z.gbs 


         ---------------------------------------------------------
                                   SCF
            by Justin Turney, Rob Parrish, Andy Simmonett
                             and Daniel Smith
                              RHF Reference
                        1 Threads,  30517 MiB Core
         ---------------------------------------------------------

  ==> Geometry <==

    Molecular point group: c2v
    Full point group: C2v

    Geometry (in Angstrom), charge = 0, multiplicity = 1:

       Center              X                  Y                   Z               Mass       
    ------------   -----------------  -----------------  -----------------  -----------------
          SI         -0.000000000000     0.000000000000     0.070531264032    27.976926532460
           H         -0.000000000000     1.088633700800    -0.978963574668     1.007825032070
           H          0.000000000000    -1.088633700800    -0.978963574668     1.007825032070

  Running in c2v symmetry.

  Rotational constants: A =      8.14019  B =      7.05696  C =      3.77999 [cm^-1]
  Rotational constants: A = 244036.74258  B = 211562.41217  C = 113321.10997 [MHz]
  Nuclear repulsion =   10.041727064173623

  Charge       = 0
  Multiplicity = 1
  Electrons    = 16
  Nalpha       = 8
  Nbeta        = 8

  ==> Algorithm <==

  SCF Algorithm Type is OUT_OF_CORE.
  DIIS enabled.
  MOM disabled.
  Fractional occupation disabled.
  Guess Type is SAD.
  Energy threshold   = 1.00e-08
  Density threshold  = 1.00e-08
  Integral threshold = 0.00e+00

  ==> Primary Basis <==

  Basis Set: AUG-CC-PV(T+D)Z
    Blend: AUG-CC-PV(T+D)Z
    Number of shells: 35
    Number of basis function: 101
    Number of Cartesian functions: 115
    Spherical Harmonics?: true
    Max angular momentum: 3

  ==> Pre-Iterations <==

   -------------------------------------------------------
    Irrep   Nso     Nmo     Nalpha   Nbeta   Ndocc  Nsocc
   -------------------------------------------------------
     A1        39      39       0       0       0       0
     A2        13      13       0       0       0       0
     B1        20      20       0       0       0       0
     B2        29      29       0       0       0       0
   -------------------------------------------------------
    Total     101     101       8       8       8       0
   -------------------------------------------------------

  ==> Integral Setup <==

  ==> DiskJK: Disk-Based J/K Matrices <==

    J tasked:                  Yes
    K tasked:                  Yes
    wK tasked:                  No
    Memory (MB):             22888
    Schwarz Cutoff:          1E-12

  Minimum eigenvalue in the overlap matrix is 3.3528091143E-04.
  Using Symmetric Orthogonalization.

  SCF Guess: Superposition of Atomic Densities via on-the-fly atomic UHF.

  ==> Iterations <==

                        Total Energy        Delta E     RMS |[F,P]|

   @RHF iter   0:  -289.87174312633726   -2.89872e+02   1.87690e-02 
   @RHF iter   1:  -290.02090287696643   -1.49160e-01   2.07303e-03 
   @RHF iter   2:  -290.03091603412929   -1.00132e-02   5.39263e-04 DIIS
   @RHF iter   3:  -290.03196013440942   -1.04410e-03   1.75889e-04 DIIS
   @RHF iter   4:  -290.03213701773637   -1.76883e-04   3.07818e-05 DIIS
   @RHF iter   5:  -290.03214317136417   -6.15363e-06   6.62901e-06 DIIS
   @RHF iter   6:  -290.03214341154620   -2.40182e-07   1.43549e-06 DIIS
   @RHF iter   7:  -290.03214342321411   -1.16679e-08   1.82813e-07 DIIS
   @RHF iter   8:  -290.03214342335559   -1.41483e-10   2.80552e-08 DIIS
   @RHF iter   9:  -290.03214342336116   -5.57066e-12   6.30678e-09 DIIS

  ==> Post-Iterations <==

    Orbital Energies (a.u.)
    -----------------------

    Doubly Occupied:                                                      

       1A1   -68.799741     2A1    -6.145161     1B1    -4.248054  
       1B2    -4.246588     3A1    -4.245960     4A1    -0.675832  
       2B2    -0.460207     5A1    -0.338381  

    Virtual:                                                              

       2B1    -0.002643     6A1     0.033085     3B2     0.057606  
       7A1     0.064165     4B2     0.070137     3B1     0.085126  
       8A1     0.132202     9A1     0.144584     1A2     0.148366  
       4B1     0.150018    10A1     0.152570     5B2     0.154275  
       6B2     0.251354    11A1     0.263654     7B2     0.279519  
      12A1     0.281115     2A2     0.317128    13A1     0.319242  
       5B1     0.329273     8B2     0.358630     6B1     0.456175  
      14A1     0.461799     3A2     0.463986     7B1     0.469476  
       9B2     0.476042    15A1     0.481511     8B1     0.493609  
      16A1     0.537453    10B2     0.582350     9B1     0.606378  
      11B2     0.606490    17A1     0.606663     4A2     0.621536  
      18A1     0.624586    12B2     0.662910    19A1     0.682576  
      20A1     0.822207    13B2     0.898789    21A1     0.990720  
       5A2     0.997957    14B2     0.998165    10B1     1.001097  
       6A2     1.059175    11B1     1.081301    22A1     1.092626  
      15B2     1.170490    16B2     1.182746    23A1     1.229811  
       7A2     1.231239    12B1     1.243039    17B2     1.286166  
      24A1     1.299829    25A1     1.347922    13B1     1.392249  
       8A2     1.392305    18B2     1.430007    26A1     1.436846  
      14B1     1.479021    19B2     1.525472    27A1     1.549372  
      15B1     1.659531    20B2     1.819824     9A2     1.826213  
      28A1     1.891613    29A1     1.934606    21B2     2.135428  
      16B1     2.724488    30A1     2.908569    22B2     3.041775  
      31A1     3.062436    23B2     3.389466    10A2     3.937006  
      24B2     3.956306    32A1     3.975491    17B1     4.033323  
      33A1     4.042488    18B1     4.070611    25B2     4.092325  
      11A2     4.099313    34A1     4.228080    35A1     4.336847  
      26B2     4.368612    19B1     4.380484    12A2     4.405494  
      27B2     4.443227    36A1     4.468533    37A1     4.926367  
      20B1     4.928917    13A2     4.937725    28B2     4.940837  
      38A1     5.183722    29B2     5.993070    39A1     6.367140  

    Final Occupation by Irrep:
             A1    A2    B1    B2 
    DOCC [     5,    0,    1,    2 ]

  Energy converged.

  @RHF Final Energy:  -290.03214342336116

   => Energetics <=

    Nuclear Repulsion Energy =             10.0417270641736227
    One-Electron Energy =                -421.8278948786232263
    Two-Electron Energy =                 121.7540243910884072
    Total Energy =                       -290.0321434233611626



Properties will be evaluated at   0.000000,   0.000000,   0.000000 Bohr

Properties computed using the SCF density matrix

  Nuclear Dipole Moment: (a.u.)
     X:     0.0000      Y:     0.0000      Z:    -1.8340

  Electronic Dipole Moment: (a.u.)
     X:     0.0000      Y:     0.0000      Z:     1.7139

  Dipole Moment: (a.u.)
     X:     0.0000      Y:     0.0000      Z:    -0.1200     Total:     0.1200

  Dipole Moment: (Debye)
     X:     0.0000      Y:     0.0000      Z:    -0.3051     Total:     0.3051


*** tstop() called on cqc01 at Fri Apr 26 19:26:42 2019
Module time:
	user time   =       2.02 seconds =       0.03 minutes
	system time =       1.32 seconds =       0.02 minutes
	total time  =          3 seconds =       0.05 minutes
Total time:
	user time   =       2.02 seconds =       0.03 minutes
	system time =       1.32 seconds =       0.02 minutes
	total time  =          3 seconds =       0.05 minutes

*** tstart() called on cqc01
*** at Fri Apr 26 19:26:42 2019


	Wfn Parameters:
	--------------------
	Wavefunction         = CCSD
	Number of irreps     = 4
	Number of MOs        = 101
	Number of active MOs = 96
	AO-Basis             = NONE
	Semicanonical        = false
	Reference            = RHF
	Print Level          = 1

	IRREP	# MOs	# FZDC	# DOCC	# SOCC	# VIRT	# FZVR
	-----	-----	------	------	------	------	------
	 A1	   39	    3	    2	    0	    34	    0
	 A2	   13	    0	    0	    0	    13	    0
	 B1	   20	    1	    0	    0	    19	    0
	 B2	   29	    1	    1	    0	    27	    0
	Transforming integrals...
	IWL integrals will be deleted.
	(OO|OO)...
	Presorting SO-basis two-electron integrals.
	Sorting File: SO Ints (nn|nn) nbuckets = 1
	Transforming the one-electron integrals and constructing Fock matrices
	Starting first half-transformation.
	Sorting half-transformed integrals.
	First half integral transformation complete.
	Starting second half-transformation.
	Two-electron integral transformation complete.
	(OO|OV)...
	Starting second half-transformation.
	Two-electron integral transformation complete.
	(OO|VV)...
	Starting second half-transformation.
	Two-electron integral transformation complete.
	(OV|OO)...
	Starting first half-transformation.
	Sorting half-transformed integrals.
	First half integral transformation complete.
	Starting second half-transformation.
	Two-electron integral transformation complete.
	(OV|OV)...
	Starting second half-transformation.
	Two-electron integral transformation complete.
	(OV|VV)...
	Starting second half-transformation.
	Two-electron integral transformation complete.
	(VV|OO)...
	Starting first half-transformation.
	Sorting half-transformed integrals.
	First half integral transformation complete.
	Starting second half-transformation.
	Two-electron integral transformation complete.
	(VV|OV)...
	Starting second half-transformation.
	Two-electron integral transformation complete.
	(VV|VV)...
	Starting second half-transformation.
	Two-electron integral transformation complete.
	Frozen core energy     =   -292.17482111079067

	Size of irrep 0 of <ab|cd> integrals:      5.832 (MW) /     46.658 (MB)
	Size of irrep 1 of <ab|cd> integrals:      3.648 (MW) /     29.185 (MB)
	Size of irrep 2 of <ab|cd> integrals:      3.976 (MW) /     31.808 (MB)
	Size of irrep 3 of <ab|cd> integrals:      5.429 (MW) /     43.431 (MB)
	Total:                                    18.885 (MW) /    151.082 (MB)

	Size of irrep 0 of <ia|bc> integrals:      0.229 (MW) /      1.835 (MB)
	Size of irrep 1 of <ia|bc> integrals:      0.086 (MW) /      0.688 (MB)
	Size of irrep 2 of <ia|bc> integrals:      0.102 (MW) /      0.814 (MB)
	Size of irrep 3 of <ia|bc> integrals:      0.205 (MW) /      1.640 (MB)
	Total:                                     0.622 (MW) /      4.977 (MB)

	Size of irrep 0 of tijab amplitudes:       0.012 (MW) /      0.097 (MB)
	Size of irrep 1 of tijab amplitudes:       0.000 (MW) /      0.000 (MB)
	Size of irrep 2 of tijab amplitudes:       0.000 (MW) /      0.000 (MB)
	Size of irrep 3 of tijab amplitudes:       0.009 (MW) /      0.075 (MB)
	Total:                                     0.021 (MW) /      0.171 (MB)

	Nuclear Rep. energy          =     10.04172706417362
	SCF energy                   =   -290.03214342336116
	One-electron energy          =    -12.84925864198788
	Two-electron energy          =      4.95020926524336
	Reference energy             =   -290.03214342336156

*** tstop() called on cqc01 at Fri Apr 26 19:26:52 2019
Module time:
	user time   =       1.18 seconds =       0.02 minutes
	system time =       0.64 seconds =       0.01 minutes
	total time  =         10 seconds =       0.17 minutes
Total time:
	user time   =       3.20 seconds =       0.05 minutes
	system time =       1.96 seconds =       0.03 minutes
	total time  =         13 seconds =       0.22 minutes

*** tstart() called on cqc01
*** at Fri Apr 26 19:26:52 2019

            **************************
            *                        *
            *        CCENERGY        *
            *                        *
            **************************

    Nuclear Rep. energy (wfn)     =   10.041727064173623
    SCF energy          (wfn)     = -290.032143423361163
    Reference energy    (file100) = -290.032143423361561

    Input parameters:
    -----------------
    Wave function   =     CCSD
    Reference wfn   =     RHF
    Brueckner       =     No
    Memory (Mbytes) =     32000.0
    Maxiter         =     50
    R_Convergence   =     1.0e-07
    E_Convergence   =     1.0e-06
    Restart         =     Yes
    DIIS            =     Yes
    AO Basis        =     NONE
    ABCD            =     NEW
    Cache Level     =     2
    Cache Type      =     LOW
    Print Level     =     1
    Num. of threads =     1
    # Amps to Print =     10
    Print MP2 Amps? =     No
    Analyze T2 Amps =     No
    Print Pair Ener =     No
    Local CC        =     No
    SCS-MP2         =     False
    SCSN-MP2        =     False
    SCS-CCSD        =     False

MP2 correlation energy -0.1112899428989434
                Solving CC Amplitude Equations
                ------------------------------
  Iter             Energy              RMS        T1Diag      D1Diag    New D1Diag    D2Diag
  ----     ---------------------    ---------   ----------  ----------  ----------   --------
     0        -0.111289942898878    0.000e+00    0.000000    0.000000    0.000000    0.149801
     1        -0.152221522279359    1.366e-01    0.014191    0.026484    0.026484    0.240594
     2        -0.139163311519638    2.796e-02    0.013382    0.025050    0.025050    0.225765
     3        -0.138328579053039    5.694e-03    0.013724    0.025976    0.025976    0.226026
     4        -0.138213104575899    2.767e-03    0.013938    0.026589    0.026589    0.227157
     5        -0.138206254128733    1.450e-03    0.014177    0.027203    0.027203    0.228404
     6        -0.138307375758469    4.974e-04    0.014243    0.027386    0.027386    0.229042
     7        -0.138321574795799    1.269e-04    0.014238    0.027384    0.027384    0.229167
     8        -0.138316337852054    4.352e-05    0.014229    0.027368    0.027368    0.229172
     9        -0.138316398265346    1.730e-05    0.014225    0.027359    0.027359    0.229176
    10        -0.138316201432035    5.541e-06    0.014223    0.027356    0.027356    0.229175
    11        -0.138316100137675    1.503e-06    0.014223    0.027355    0.027355    0.229174
    12        -0.138316078863093    4.788e-07    0.014223    0.027355    0.027355    0.229174
    13        -0.138316069784323    1.401e-07    0.014223    0.027355    0.027355    0.229174
    14        -0.138316071383077    4.484e-08    0.014223    0.027355    0.027355    0.229174
    14        -0.138316071383077    4.484e-08    0.014223    0.027355    0.027355    0.229174

    Iterations converged.


    CCSD corr. energy   =   -0.138316071383077
    PPL corr. energy    =    0.048231034347765
    OS PPL corr. energy =    0.045455172934208
    SS PPL corr. energy =    0.002775861413554
    Largest TIA Amplitudes:
              2  68         0.0143138088
              1   5        -0.0112829535
              0   4         0.0102351599
              1   4        -0.0097446417
              1   7        -0.0092628880
              1   3         0.0083785853
              1   1        -0.0080373969
              0   5         0.0075700777
              0   6         0.0063543838
              2  67        -0.0058136453

    Largest TIjAb Amplitudes:
      1   1  47  47        -0.1312591961
      1   1  68  68        -0.0736369837
      1   1  47  48        -0.0716207631
      1   1  48  47        -0.0716207631
      1   1  47  51         0.0483178200
      1   1  51  47         0.0483178200
      0   0  47  47        -0.0422479741
      0   1  47  47         0.0406264203
      1   0  47  47         0.0406264203
      1   1  48  48        -0.0401925058

    SCF energy       (wfn)                    = -290.032143423361163
    Reference energy (file100)                = -290.032143423361561

    Opposite-spin MP2 correlation energy      =   -0.099704525870494
    Same-spin MP2 correlation energy          =   -0.011585417028384
    MP2 correlation energy                    =   -0.111289942898943
      * MP2 total energy                      = -290.143433366260524

    Opposite-spin CCSD correlation energy     =   -0.125769490874974
    Same-spin CCSD correlation energy         =   -0.012546579913052
    CCSD correlation energy                   =   -0.138316071383077
      * CCSD total energy                     = -290.170459494744648


*** tstop() called on cqc01 at Fri Apr 26 19:26:59 2019
Module time:
	user time   =       1.01 seconds =       0.02 minutes
	system time =       3.23 seconds =       0.05 minutes
	total time  =          7 seconds =       0.12 minutes
Total time:
	user time   =       4.21 seconds =       0.07 minutes
	system time =       5.19 seconds =       0.09 minutes
	total time  =         20 seconds =       0.33 minutes

*** Psi4 exiting successfully. Buy a developer a beer!
