
    -----------------------------------------------------------------------
          Psi4: An Open-Source Ab Initio Electronic Structure Package
                               Psi4 1.4a3.dev88 

                         Git: Rev {master} 262e345 


    D. G. A. Smith, L. A. Burns, A. C. Simmonett, R. M. Parrish,
    M. C. Schieber, R. Galvelis, P. Kraus, H. Kruse, R. Di Remigio,
    A. Alenaizan, A. M. James, S. Lehtola, J. P. Misiewicz, M. Scheurer,
    R. A. Shaw, J. B. Schriber, Y. Xie, Z. L. Glick, D. A. Sirianni,
    J. S. O'Brien, J. M. Waldrop, A. Kumar, E. G. Hohenstein,
    B. P. Pritchard, B. R. Brooks, H. F. Schaefer III, A. Yu. Sokolov,
    K. Patkowski, A. E. DePrince III, U. Bozkaya, R. A. King,
    F. A. Evangelista, J. M. Turney, T. D. Crawford, C. D. Sherrill,
    J. Chem. Phys. 152(18) 184108 (2020). https://doi.org/10.1063/5.0006002

                            Additional Code Authors
    E. T. Seidl, C. L. Janssen, E. F. Valeev, M. L. Leininger,
    J. F. Gonthier, R. M. Richard, H. R. McAlexander, M. Saitow, X. Wang,
    P. Verma, and M. H. Lechner

             Previous Authors, Complete List of Code Contributors,
                       and Citations for Specific Modules
    https://github.com/psi4/psi4/blob/master/codemeta.json
    https://github.com/psi4/psi4/graphs/contributors
    http://psicode.org/psi4manual/master/introduction.html#citing-psifour

    -----------------------------------------------------------------------


    Psi4 started on: Wednesday, 20 January 2021 09:54PM

    Process ID: 144452
    Host:       n412-041.vsc4.prov
    PSIDATADIR: /home/fs71337/gallo4/psi4/psi4/build/stage/share/psi4
    Memory:     500.0 MiB
    Threads:    48
    
  ==> Input File <==

--------------------------------------------------------------------------
# Any line starting with the # character is a comment line
memory 250000 mb
molecule molecule{
-1 2
S          0.0000000000        0.0000000000        0.0000000000
}

set {
  reference uhf
  basis aug-cc-pv(5+d)z
  scf_type OUT_OF_CORE
  freeze_core true
}

energy('ccsd(t)')
--------------------------------------------------------------------------

  Memory set to 232.831 GiB by Python driver.

Scratch directory: /binfl/lv71337/airmler/temp/

*** tstart() called on n412-041.vsc4.prov
*** at Wed Jan 20 21:54:41 2021

   => Loading Basis Set <=

    Name: AUG-CC-PV(5+D)Z
    Role: ORBITAL
    Keyword: BASIS
    atoms 1 entry S          line  1451 file /home/fs71337/gallo4/psi4/psi4/build/stage/share/psi4/basis/aug-cc-pv_5pd_z.gbs 


         ---------------------------------------------------------
                                   SCF
               by Justin Turney, Rob Parrish, Andy Simmonett
                          and Daniel G. A. Smith
                              UHF Reference
                       48 Threads, 238418 MiB Core
         ---------------------------------------------------------

  ==> Geometry <==

    Molecular point group: d2h
    Geometry (in Angstrom), charge = -1, multiplicity = 2:

       Center              X                  Y                   Z               Mass       
    ------------   -----------------  -----------------  -----------------  -----------------
         S            0.000000000000     0.000000000000     0.000000000000    31.972071174400

  Running in d2h symmetry.

  Rotational constants: A = ************  B = ************  C = ************ [cm^-1]
  Rotational constants: A = ************  B = ************  C = ************ [MHz]
  Nuclear repulsion =    0.000000000000000

  Charge       = -1
  Multiplicity = 2
  Electrons    = 17
  Nalpha       = 9
  Nbeta        = 8

  ==> Algorithm <==

  SCF Algorithm Type is OUT_OF_CORE.
  DIIS enabled.
  MOM disabled.
  Fractional occupation disabled.
  Guess Type is CORE.
  Energy threshold   = 1.00e-08
  Density threshold  = 1.00e-08
  Integral threshold = 1.00e-12

  ==> Primary Basis <==

  Basis Set: AUG-CC-PV(5+D)Z
    Blend: AUG-CC-PV(5+D)Z
    Number of shells: 30
    Number of basis function: 136
    Number of Cartesian functions: 192
    Spherical Harmonics?: true
    Max angular momentum: 5

  ==> Integral Setup <==

  ==> DiskJK: Disk-Based J/K Matrices <==

    J tasked:                  Yes
    K tasked:                  Yes
    wK tasked:                  No
    Memory [MiB]:           178813
    Schwarz Cutoff:          1E-12

  Minimum eigenvalue in the overlap matrix is 9.7491445102E-05.
  Reciprocal condition number of the overlap matrix is 2.9799778837E-05.
    Using symmetric orthogonalization.

  ==> Pre-Iterations <==

  SCF Guess: Core (One-Electron) Hamiltonian.

   -------------------------------------------------------
    Irrep   Nso     Nmo     Nalpha   Nbeta   Ndocc  Nsocc
   -------------------------------------------------------
     Ag        29      29       4       3       3       1
     B1g       12      12       0       0       0       0
     B2g       12      12       1       1       1       0
     B3g       12      12       1       1       1       0
     Au         8       8       0       0       0       0
     B1u       21      21       1       1       1       0
     B2u       21      21       1       1       1       0
     B3u       21      21       1       1       1       0
   -------------------------------------------------------
    Total     136     136       9       8       8       1
   -------------------------------------------------------

  ==> Iterations <==

                        Total Energy        Delta E     RMS |[F,P]|

    Occupation by irrep:
             Ag   B1g   B2g   B3g    Au   B1u   B2u   B3u 
    DOCC [     4,    1,    0,    0,    0,    1,    1,    1 ]
    SOCC [     0,    0,    1,    0,    0,    0,    0,    0 ]

   @UHF iter   1:  -331.85332056061276   -3.31853e+02   5.16750e-01 DIIS
    Occupation by irrep:
             Ag   B1g   B2g   B3g    Au   B1u   B2u   B3u 
    DOCC [     3,    0,    0,    0,    0,    1,    2,    2 ]
    SOCC [     0,    0,    0,    0,    0,    1,    0,    0 ]

   @UHF iter   2:  -304.82017652086239    2.70331e+01   1.52778e-01 DIIS
   @UHF iter   3:  -383.54985604884524   -7.87297e+01   2.01060e-01 DIIS
   @UHF iter   4:  -389.26918545562359   -5.71933e+00   1.38481e-01 DIIS
   @UHF iter   5:  -395.82315929567318   -6.55397e+00   5.31863e-02 DIIS
   @UHF iter   6:  -397.47118649714201   -1.64803e+00   8.26597e-03 DIIS
   @UHF iter   7:  -397.54457365027491   -7.33872e-02   8.05230e-04 DIIS
   @UHF iter   8:  -397.54554703592157   -9.73386e-04   2.22180e-04 DIIS
   @UHF iter   9:  -397.54565518738792   -1.08151e-04   3.81688e-05 DIIS
   @UHF iter  10:  -397.54566070613402   -5.51875e-06   8.28593e-06 DIIS
   @UHF iter  11:  -397.54566131469062   -6.08557e-07   4.05266e-06 DIIS
   @UHF iter  12:  -397.54566153467988   -2.19989e-07   1.49421e-06 DIIS
   @UHF iter  13:  -397.54566155777684   -2.30970e-08   4.48056e-07 DIIS
   @UHF iter  14:  -397.54566155872908   -9.52241e-10   6.54832e-08 DIIS
   @UHF iter  15:  -397.54566155876404   -3.49587e-11   1.85480e-08 DIIS
   @UHF iter  16:  -397.54566155876734   -3.29692e-12   4.61391e-09 DIIS
  Energy and wave function converged.


  ==> Post-Iterations <==

   @Spin Contamination Metric:   1.404675318E-02
   @S^2 Expected:                7.500000000E-01
   @S^2 Observed:                7.640467532E-01
   @S   Expected:                5.000000000E-01
   @S   Observed:                5.000000000E-01

    Orbital Energies [Eh]
    ---------------------

    Alpha Occupied:                                                       

       1Ag   -91.680381     2Ag    -8.679679     1B1u   -6.375014  
       1B3u   -6.357339     1B2u   -6.357339     3Ag    -0.634443  
       2B1u   -0.174002     2B3u   -0.106194     2B2u   -0.106194  

    Alpha Virtual:                                                        

       3B1u    0.209963     3B3u    0.216932     3B2u    0.216932  
       4Ag     0.249523     5Ag     0.366932     1B3g    0.369248  
       1B2g    0.369248     1B1g    0.377925     6Ag     0.377925  
       4B1u    0.543216     4B3u    0.567660     4B2u    0.567660  
       5B1u    0.654672     5B2u    0.656201     5B3u    0.656201  
       6B1u    0.660767     1Au     0.660767     7Ag     0.666578  
       6B3u    0.669286     6B2u    0.669286     8Ag     0.721341  
       2B2g    0.729276     2B3g    0.729276     2B1g    0.759056  
       9Ag     0.759056    10Ag     1.303328     3B3g    1.304878  
       3B2g    1.304878    11Ag     1.309515     3B1g    1.309515  
       4B2g    1.317265     4B3g    1.317265     4B1g    1.328413  
      12Ag     1.328413    13Ag     1.423412     7B1u    1.424780  
       7B3u    1.431027     7B2u    1.431027     5B2g    1.432506  
       5B3g    1.432506     2Au     1.443788     8B1u    1.443788  
       9B1u    1.463818     8B2u    1.463826     8B3u    1.463826  
       5B1g    1.463953    14Ag     1.463953     9B3u    1.502061  
       9B2u    1.502061    15Ag     1.911861    10B1u    2.852348  
      10B3u    2.857674    10B2u    2.857674    11B1u    2.873809  
       3Au     2.873809    11B2u    2.901417    11B3u    2.901417  
      16Ag     2.959032     6B2g    2.962358     6B3g    2.962358  
      12B1u    2.965235    12B3u    2.966804    12B2u    2.966804  
      13B1u    2.971538     4Au     2.971538    17Ag     2.971980  
       6B1g    2.971980    13B3u    2.979506    13B2u    2.979506  
       7B2g    2.987164     7B3g    2.987164     5Au     2.990839  
      14B1u    2.990839    14B2u    3.005884    14B3u    3.005884  
       7B1g    3.007722    18Ag     3.007722    19Ag     3.056340  
       8B2g    3.064676     8B3g    3.064676     8B1g    3.093169  
      20Ag     3.093169    15B1u    4.161806    15B3u    4.202167  
      15B2u    4.202167    16B1u    5.647408    16B3u    5.652300  
      16B2u    5.652300     6Au     5.667145    17B1u    5.667145  
      17B2u    5.692550    17B3u    5.692550    21Ag     5.970861  
      22Ag     6.209855     9B2g    6.216179     9B3g    6.216179  
      23Ag     6.243516     9B1g    6.243516    24Ag     6.432683  
      10B2g    6.435654    10B3g    6.435654    25Ag     6.444698  
      10B1g    6.444698    11B2g    6.460179    11B3g    6.460179  
      11B1g    6.483230    26Ag     6.483230    18B1u    6.539080  
      18B3u    6.541192    18B2u    6.541192    19B1u    6.547555  
       7Au     6.547555    19B3u    6.558255    19B2u    6.558255  
       8Au     6.573438    20B1u    6.573438    20B2u    6.593320  
      20B3u    6.593320    27Ag    16.551216    12B2g   16.556663  
      12B3g   16.556663    28Ag    16.573405    12B1g   16.573405  
      21B1u   24.630293    21B3u   24.649767    21B2u   24.649767  
      29Ag    56.621300  

    Beta Occupied:                                                        

       1Ag   -91.671546     2Ag    -8.671098     1B2u   -6.351968  
       1B3u   -6.351968     1B1u   -6.337717     3Ag    -0.529908  
       2B2u   -0.085506     2B3u   -0.085506  

    Beta Virtual:                                                         

       2B1u    0.195754     3B2u    0.217980     3B3u    0.217980  
       4Ag     0.252697     3B1u    0.293043     1B1g    0.376407  
       5Ag     0.376407     1B2g    0.376898     1B3g    0.376898  
       6Ag     0.377162     4B2u    0.572489     4B3u    0.572490  
       4B1u    0.602690     5B1u    0.660196     5B3u    0.660783  
       5B2u    0.660783     6B1u    0.663432     1Au     0.663432  
       6B2u    0.668131     6B3u    0.668131     7Ag     0.681593  
       2B1g    0.761864     8Ag     0.761864     2B3g    0.780479  
       2B2g    0.780479     9Ag     0.787697    10Ag     1.310750  
       3B2g    1.311800     3B3g    1.311800    11Ag     1.314956  
       3B1g    1.314956     4B2g    1.320192     4B3g    1.320192  
      12Ag     1.327365     4B1g    1.327365     7B1u    1.452908  
       7B2u    1.454281     7B3u    1.454281     8B1u    1.458456  
       2Au     1.458456     8B2u    1.463815     8B3u    1.463815  
       5B1g    1.468195    13Ag     1.468195     5B3g    1.472153  
       5B2g    1.472153    14Ag     1.473764     9B2u    1.509436  
       9B3u    1.509436     9B1u    1.521914    15Ag     1.931845  
      10B1u    2.888761    10B2u    2.890415    10B3u    2.890415  
      11B1u    2.895326     3Au     2.895326    11B2u    2.903329  
      11B3u    2.903329    12B1u    2.977395    12B3u    2.978486  
      12B2u    2.978486    13B1u    2.981765     4Au     2.981765  
      16Ag     2.983028     6B3g    2.984681     6B2g    2.984681  
      13B3u    2.987259    13B2u    2.987259    17Ag     2.989524  
       6B1g    2.989524     5Au     2.995009    14B1u    2.995009  
       7B2g    2.997277     7B3g    2.997277    14B2u    3.005070  
      14B3u    3.005070     7B1g    3.007657    18Ag     3.007657  
      19Ag     3.077909     8B3g    3.082139     8B2g    3.082139  
       8B1g    3.095083    20Ag     3.095083    15B1u    4.206379  
      15B2u    4.208721    15B3u    4.208721    16B1u    5.670239  
      16B2u    5.672826    16B3u    5.672826    17B1u    5.680650  
       6Au     5.680650    17B2u    5.693890    17B3u    5.693890  
      21Ag     5.986279    22Ag     6.225282     9B3g    6.229758  
       9B2g    6.229758    23Ag     6.246021     9B1g    6.246021  
      24Ag     6.455584    10B3g    6.457294    10B2g    6.457294  
      25Ag     6.462469    10B1g    6.462469    11B2g    6.471246  
      11B3g    6.471246    11B1g    6.483922    26Ag     6.483922  
      18B1u    6.558503    18B2u    6.559868    18B3u    6.559868  
      19B1u    6.563975     7Au     6.563975    19B3u    6.570867  
      19B2u    6.570867     8Au     6.580612    20B1u    6.580612  
      20B2u    6.593308    20B3u    6.593308    27Ag    16.565639  
      12B3g   16.568096    12B2g   16.568096    28Ag    16.575698  
      12B1g   16.575698    21B2u   24.653973    21B3u   24.653973  
      21B1u   24.658259    29Ag    56.627777  

    Final Occupation by Irrep:
             Ag   B1g   B2g   B3g    Au   B1u   B2u   B3u 
    DOCC [     3,    0,    0,    0,    0,    1,    2,    2 ]
    SOCC [     0,    0,    0,    0,    0,    1,    0,    0 ]

  @UHF Final Energy:  -397.54566155876734

   => Energetics <=

    Nuclear Repulsion Energy =              0.0000000000000000
    One-Electron Energy =                -554.5355202190993396
    Two-Electron Energy =                 156.9898586603320041
    Total Energy =                       -397.5456615587673355

  UHF NO Occupations:
  HONO-2 :    2B3u 1.9990234
  HONO-1 :    3 Ag 1.9949197
  HONO-0 :    2B1u 1.0000000
  LUNO+0 :    4 Ag 0.0050803
  LUNO+1 :    3B3u 0.0009766
  LUNO+2 :    3B2u 0.0009765
  LUNO+3 :    3B1u 0.0000034


Computation Completed


Properties will be evaluated at   0.000000,   0.000000,   0.000000 [a0]

Properties computed using the SCF density matrix

  Nuclear Dipole Moment: [e a0]
     X:     0.0000      Y:     0.0000      Z:     0.0000

  Electronic Dipole Moment: [e a0]
     X:     0.0000      Y:     0.0000      Z:     0.0000

  Dipole Moment: [e a0]
     X:     0.0000      Y:     0.0000      Z:     0.0000     Total:     0.0000

  Dipole Moment: [D]
     X:     0.0000      Y:     0.0000      Z:     0.0000     Total:     0.0000


*** tstop() called on n412-041.vsc4.prov at Wed Jan 20 21:55:08 2021
Module time:
	user time   =      42.38 seconds =       0.71 minutes
	system time =       3.24 seconds =       0.05 minutes
	total time  =         27 seconds =       0.45 minutes
Total time:
	user time   =      42.38 seconds =       0.71 minutes
	system time =       3.24 seconds =       0.05 minutes
	total time  =         27 seconds =       0.45 minutes

*** tstart() called on n412-041.vsc4.prov
*** at Wed Jan 20 21:55:08 2021


	Wfn Parameters:
	--------------------
	Wavefunction         = CCSD_T
	Number of irreps     = 8
	Number of MOs        = 136
	Number of active MOs = 131
	AO-Basis             = NONE
	Semicanonical        = false
	Reference            = UHF
	Print Level          = 1

	IRREP	# MOs	# FZDC	# DOCC	# SOCC	# VIRT	# FZVR
	-----	-----	------	------	------	------	------
	 Ag	   29	    2	    1	    0	    26	    0
	 B1g	   12	    0	    0	    0	    12	    0
	 B2g	   12	    0	    0	    0	    12	    0
	 B3g	   12	    0	    0	    0	    12	    0
	 Au	   8	    0	    0	    0	    8	    0
	 B1u	   21	    1	    0	    1	    19	    0
	 B2u	   21	    1	    1	    0	    19	    0
	 B3u	   21	    1	    1	    0	    19	    0
	Transforming integrals...
	IWL integrals will be deleted.
	(OO|OO)...
	Presorting SO-basis two-electron integrals.
	Sorting File: SO Ints (nn|nn) nbuckets = 1
	Constructing frozen core operators
	Starting AA/AB first half-transformation.
	Sorting AA/AB half-transformed integrals.
	Starting BB first half-transformation.
	Sorting BB half-transformed integrals.
	First half integral transformation complete.
	Starting AA second half-transformation.
	Starting AB second half-transformation.
	Starting BB second half-transformation.
	Two-electron integral transformation complete.
	(OO|OV)...
	Starting AA second half-transformation.
	Starting AB second half-transformation.
	Starting BB second half-transformation.
	Two-electron integral transformation complete.
	(OO|VV)...
	Starting AA second half-transformation.
	Starting AB second half-transformation.
	Starting BB second half-transformation.
	Two-electron integral transformation complete.
	(OV|OO)...
	Starting AA/AB first half-transformation.
	Sorting AA/AB half-transformed integrals.
	Starting BB first half-transformation.
	Sorting BB half-transformed integrals.
	First half integral transformation complete.
	Starting AA second half-transformation.
	Starting AB second half-transformation.
	Starting BB second half-transformation.
	Two-electron integral transformation complete.
	(OV|OV)...
	Starting AA second half-transformation.
	Starting AB second half-transformation.
	Starting BB second half-transformation.
	Two-electron integral transformation complete.
	(OV|VV)...
	Starting AA second half-transformation.
	Starting AB second half-transformation.
	Starting BB second half-transformation.
	Two-electron integral transformation complete.
	(VV|OO)...
	Starting AA/AB first half-transformation.
	Sorting AA/AB half-transformed integrals.
	Starting BB first half-transformation.
	Sorting BB half-transformed integrals.
	First half integral transformation complete.
	Starting AA second half-transformation.
	Starting AB second half-transformation.
	Starting BB second half-transformation.
	Two-electron integral transformation complete.
	(VV|OV)...
	Starting AA second half-transformation.
	Starting AB second half-transformation.
	Starting BB second half-transformation.
	Two-electron integral transformation complete.
	(VV|VV)...
	Starting AA second half-transformation.
	Starting AB second half-transformation.
	Starting BB second half-transformation.
	Two-electron integral transformation complete.
	Frozen core energy     =   -387.55331316421439

	Size of irrep 0 of <AB|CD> integrals:      1.132 (MW) /      9.057 (MB)
	Size of irrep 1 of <AB|CD> integrals:      0.939 (MW) /      7.512 (MB)
	Size of irrep 2 of <AB|CD> integrals:      0.939 (MW) /      7.512 (MB)
	Size of irrep 3 of <AB|CD> integrals:      0.939 (MW) /      7.512 (MB)
	Size of irrep 4 of <AB|CD> integrals:      0.796 (MW) /      6.365 (MB)
	Size of irrep 5 of <AB|CD> integrals:      1.094 (MW) /      8.753 (MB)
	Size of irrep 6 of <AB|CD> integrals:      1.094 (MW) /      8.753 (MB)
	Size of irrep 7 of <AB|CD> integrals:      1.094 (MW) /      8.753 (MB)
	Total:                                     8.027 (MW) /     64.216 (MB)

	Size of irrep 0 of <ab|cd> integrals:      1.173 (MW) /      9.383 (MB)
	Size of irrep 1 of <ab|cd> integrals:      0.955 (MW) /      7.636 (MB)
	Size of irrep 2 of <ab|cd> integrals:      0.976 (MW) /      7.809 (MB)
	Size of irrep 3 of <ab|cd> integrals:      0.976 (MW) /      7.809 (MB)
	Size of irrep 4 of <ab|cd> integrals:      0.817 (MW) /      6.538 (MB)
	Size of irrep 5 of <ab|cd> integrals:      1.149 (MW) /      9.193 (MB)
	Size of irrep 6 of <ab|cd> integrals:      1.119 (MW) /      8.955 (MB)
	Size of irrep 7 of <ab|cd> integrals:      1.119 (MW) /      8.955 (MB)
	Total:                                     8.285 (MW) /     66.279 (MB)

	Size of irrep 0 of <Ab|Cd> integrals:      5.171 (MW) /     41.369 (MB)
	Size of irrep 1 of <Ab|Cd> integrals:      3.787 (MW) /     30.295 (MB)
	Size of irrep 2 of <Ab|Cd> integrals:      3.830 (MW) /     30.639 (MB)
	Size of irrep 3 of <Ab|Cd> integrals:      3.830 (MW) /     30.639 (MB)
	Size of irrep 4 of <Ab|Cd> integrals:      3.226 (MW) /     25.805 (MB)
	Size of irrep 5 of <Ab|Cd> integrals:      4.486 (MW) /     35.887 (MB)
	Size of irrep 6 of <Ab|Cd> integrals:      4.427 (MW) /     35.415 (MB)
	Size of irrep 7 of <Ab|Cd> integrals:      4.427 (MW) /     35.415 (MB)
	Total:                                    33.183 (MW) /    265.463 (MB)

	Size of irrep 0 of <IA|BC> integrals:      0.187 (MW) /      1.497 (MB)
	Size of irrep 1 of <IA|BC> integrals:      0.112 (MW) /      0.899 (MB)
	Size of irrep 2 of <IA|BC> integrals:      0.112 (MW) /      0.899 (MB)
	Size of irrep 3 of <IA|BC> integrals:      0.112 (MW) /      0.899 (MB)
	Size of irrep 4 of <IA|BC> integrals:      0.078 (MW) /      0.628 (MB)
	Size of irrep 5 of <IA|BC> integrals:      0.144 (MW) /      1.155 (MB)
	Size of irrep 6 of <IA|BC> integrals:      0.144 (MW) /      1.155 (MB)
	Size of irrep 7 of <IA|BC> integrals:      0.144 (MW) /      1.155 (MB)
	Total:                                     1.036 (MW) /      8.287 (MB)

	Size of irrep 0 of <ia|bc> integrals:      0.147 (MW) /      1.175 (MB)
	Size of irrep 1 of <ia|bc> integrals:      0.098 (MW) /      0.782 (MB)
	Size of irrep 2 of <ia|bc> integrals:      0.079 (MW) /      0.632 (MB)
	Size of irrep 3 of <ia|bc> integrals:      0.079 (MW) /      0.632 (MB)
	Size of irrep 4 of <ia|bc> integrals:      0.058 (MW) /      0.463 (MB)
	Size of irrep 5 of <ia|bc> integrals:      0.094 (MW) /      0.755 (MB)
	Size of irrep 6 of <ia|bc> integrals:      0.121 (MW) /      0.965 (MB)
	Size of irrep 7 of <ia|bc> integrals:      0.121 (MW) /      0.965 (MB)
	Total:                                     0.796 (MW) /      6.368 (MB)

	Size of irrep 0 of <Ia|Bc> integrals:      0.191 (MW) /      1.528 (MB)
	Size of irrep 1 of <Ia|Bc> integrals:      0.113 (MW) /      0.903 (MB)
	Size of irrep 2 of <Ia|Bc> integrals:      0.115 (MW) /      0.924 (MB)
	Size of irrep 3 of <Ia|Bc> integrals:      0.115 (MW) /      0.924 (MB)
	Size of irrep 4 of <Ia|Bc> integrals:      0.079 (MW) /      0.632 (MB)
	Size of irrep 5 of <Ia|Bc> integrals:      0.148 (MW) /      1.186 (MB)
	Size of irrep 6 of <Ia|Bc> integrals:      0.145 (MW) /      1.161 (MB)
	Size of irrep 7 of <Ia|Bc> integrals:      0.145 (MW) /      1.161 (MB)
	Total:                                     1.052 (MW) /      8.420 (MB)

	Size of irrep 0 of <iA|bC> integrals:      0.146 (MW) /      1.164 (MB)
	Size of irrep 1 of <iA|bC> integrals:      0.097 (MW) /      0.778 (MB)
	Size of irrep 2 of <iA|bC> integrals:      0.076 (MW) /      0.611 (MB)
	Size of irrep 3 of <iA|bC> integrals:      0.076 (MW) /      0.611 (MB)
	Size of irrep 4 of <iA|bC> integrals:      0.057 (MW) /      0.460 (MB)
	Size of irrep 5 of <iA|bC> integrals:      0.091 (MW) /      0.729 (MB)
	Size of irrep 6 of <iA|bC> integrals:      0.120 (MW) /      0.959 (MB)
	Size of irrep 7 of <iA|bC> integrals:      0.120 (MW) /      0.959 (MB)
	Total:                                     0.784 (MW) /      6.271 (MB)

	Size of irrep 0 of tIjAb amplitudes:       0.007 (MW) /      0.055 (MB)
	Size of irrep 1 of tIjAb amplitudes:       0.004 (MW) /      0.031 (MB)
	Size of irrep 2 of tIjAb amplitudes:       0.002 (MW) /      0.016 (MB)
	Size of irrep 3 of tIjAb amplitudes:       0.002 (MW) /      0.016 (MB)
	Size of irrep 4 of tIjAb amplitudes:       0.000 (MW) /      0.000 (MB)
	Size of irrep 5 of tIjAb amplitudes:       0.002 (MW) /      0.017 (MB)
	Size of irrep 6 of tIjAb amplitudes:       0.004 (MW) /      0.034 (MB)
	Size of irrep 7 of tIjAb amplitudes:       0.004 (MW) /      0.034 (MB)
	Total:                                     0.025 (MW) /      0.201 (MB)

	Nuclear Rep. energy          =      0.00000000000000
	SCF energy                   =   -397.54566155876734
	One-electron energy          =    -18.26294579018183
	Two-electron (AA) energy     =      2.15265817219596
	Two-electron (BB) energy     =      1.03399734362775
	Two-electron (AB) energy     =      5.08394187980535
	Two-electron energy          =      8.27059739562906
	Reference energy             =   -397.54566155876716

*** tstop() called on n412-041.vsc4.prov at Wed Jan 20 21:55:31 2021
Module time:
	user time   =       3.95 seconds =       0.07 minutes
	system time =       4.27 seconds =       0.07 minutes
	total time  =         23 seconds =       0.38 minutes
Total time:
	user time   =      46.33 seconds =       0.77 minutes
	system time =       7.51 seconds =       0.13 minutes
	total time  =         50 seconds =       0.83 minutes
            **************************
            *                        *
            *        CCENERGY        *
            *                        *
            **************************

    Nuclear Rep. energy (wfn)     =    0.000000000000000
    SCF energy          (wfn)     = -397.545661558767335
    Reference energy    (file100) = -397.545661558767165

    Input parameters:
    -----------------
    Wave function   =     CCSD_T
    Reference wfn   =     UHF
    Brueckner       =     No
    Memory (Mbytes) =     250000.0
    Maxiter         =     50
    R_Convergence   =     1.0e-07
    E_Convergence   =     1.0e-06
    Restart         =     Yes
    DIIS            =     Yes
    AO Basis        =     NONE
    ABCD            =     NEW
    Cache Level     =     2
    Cache Type      =     LRU
    Print Level     =     1
    Num. of threads =     48
    # Amps to Print =     10
    Print MP2 Amps? =     No
    Analyze T2 Amps =     No
    Print Pair Ener =     No
    Local CC        =     No
    SCS-MP2         =     False
    SCSN-MP2        =     False
    SCS-CCSD        =     False

MP2 correlation energy -0.1760720078354596
                Solving CC Amplitude Equations
                ------------------------------
  Iter             Energy              RMS        T1Diag      D1Diag    New D1Diag    D2Diag
  ----     ---------------------    ---------   ----------  ----------  ----------   --------
     0        -0.176072007835460    0.000e+00    0.000000    0.000000    0.000000    0.000000
     1        -0.187176087751633    4.505e-02    0.008850    0.000000    0.000000    0.000000
     2        -0.191908035121736    1.606e-02    0.011778    0.000000    0.000000    0.000000
     3        -0.192600216511767    6.471e-03    0.013362    0.000000    0.000000    0.000000
     4        -0.192599679440835    2.557e-03    0.014126    0.000000    0.000000    0.000000
     5        -0.192601583715826    1.047e-03    0.014341    0.000000    0.000000    0.000000
     6        -0.192594910801488    4.491e-04    0.014394    0.000000    0.000000    0.000000
     7        -0.192598078984928    1.410e-04    0.014387    0.000000    0.000000    0.000000
     8        -0.192598775184397    5.341e-05    0.014381    0.000000    0.000000    0.000000
     9        -0.192598302150336    2.342e-05    0.014379    0.000000    0.000000    0.000000
    10        -0.192598377823609    9.237e-06    0.014378    0.000000    0.000000    0.000000
    11        -0.192598443433809    2.690e-06    0.014378    0.000000    0.000000    0.000000
    12        -0.192598504960450    8.889e-07    0.014378    0.000000    0.000000    0.000000
    13        -0.192598515309879    3.317e-07    0.014378    0.000000    0.000000    0.000000
    14        -0.192598516663536    1.285e-07    0.014378    0.000000    0.000000    0.000000
    15        -0.192598516943242    5.928e-08    0.014378    0.000000    0.000000    0.000000

    Iterations converged.


    Largest TIA Amplitudes:
              1  70         0.0155670643
              0   4         0.0071500320
              1  71        -0.0069592770
              0   3        -0.0054260230
              2  95        -0.0045366831
              3 114        -0.0045366733
              0   1        -0.0037744826
              2  90         0.0037130715
              3 109         0.0037130274
              3 108         0.0034582289

    Largest Tia Amplitudes:
              0   5         0.0212481893
              0   2        -0.0116544349
              0  10         0.0093627719
              0   3         0.0059980760
              2 115        -0.0056461659
              1  96        -0.0056461540
              2 110         0.0049638081
              1  91         0.0049637501
              0   0        -0.0047424967
              2 111         0.0034768167

    Largest TIJAB Amplitudes:
      3   2  27   5         0.0303135937
      3   1  39   4        -0.0250990953
      2   1  51   4        -0.0250990831
      3   2  26   5         0.0159225516
      3   2  27   2         0.0159225516
      3   2 109  90        -0.0157012586
      2   1  51   5        -0.0156380722
      3   1  51  27         0.0156380645
      2   1  39  27         0.0156380638
      3   1  39   5         0.0156380561

    Largest Tijab Amplitudes:
      2   1  27   4         0.0289519342
      2   1 110  91        -0.0163266325
      2   1  26   4         0.0159944472
      2   1  27   1         0.0159944472
      1   0  71  51        -0.0151173763
      2   0  71  39        -0.0151173746
      2   1  51  39         0.0145938280
      2   1 109  91         0.0123380449
      2   1 110  90         0.0123380298
      2   1  26   1         0.0123341384

    Largest TIjAb Amplitudes:
      1   0   4  71         0.0403838914
      3   0  39  71         0.0347397471
      2   0  51  71         0.0347397453
      2   1  51  51        -0.0318523878
      3   2  39  39        -0.0318523863
      3   2 109 110        -0.0314438445
      2   1  90  91        -0.0314438417
      2   1   5   4        -0.0305566047
      2   1  27  27        -0.0305565933
      3   2  27  27        -0.0305565917

    SCF energy       (wfn)                    = -397.545661558767335
    Reference energy (file100)                = -397.545661558767165

    Opposite-spin MP2 correlation energy      =   -0.137980629595853
    Same-spin MP2 correlation energy          =   -0.038091378239606
    Singles MP2 correlation energy            =   -0.000000000000000
    MP2 correlation energy                    =   -0.176072007835460
      * MP2 total energy                      = -397.721733566602609

    Opposite-spin CCSD correlation energy     =   -0.155491302921635
    Same-spin CCSD correlation energy         =   -0.037107214021606
    Singles CCSD correlation energy           =   -0.000000000000001
    CCSD correlation energy                   =   -0.192598516943242
      * CCSD total energy                     = -397.738260075710400

            **************************
            *                        *
            *        CCTRIPLES       *
            *                        *
            **************************


    Wave function   =    CCSD_T
    Reference wfn   =      UHF

    Nuclear Rep. energy (wfn)                =    0.000000000000000
    SCF energy          (wfn)                = -397.545661558767335
    Reference energy    (file100)            = -397.545661558767165
    CCSD energy         (file100)            =   -0.192598516943242
    Total CCSD energy   (file100)            = -397.738260075710400

    Number of ijk index combinations:
    Spin Case AAA:                                   4
    Spin Case BBB:                                   1
    Spin Case AAB:                                  18
    Spin Case ABB:                                  12
    AAA (T) energy                             =   -0.000336634378679
    BBB (T) energy                             =   -0.000064413607498
    AAB (T) energy                             =   -0.005677399933574
    ABB (T) energy                             =   -0.003568739427805
    (T) energy                                   =   -0.009647187347557
      * CCSD(T) total energy                     = -397.747907263057982


    Psi4 stopped on: Wednesday, 20 January 2021 09:55PM
    Psi4 wall time for execution: 0:01:13.70

*** Psi4 exiting successfully. Buy a developer a beer!
