
    -----------------------------------------------------------------------
          Psi4: An Open-Source Ab Initio Electronic Structure Package
                               Psi4 1.2a1.dev939 

                         Git: Rev {HEAD} fa1ec19 


    R. M. Parrish, L. A. Burns, D. G. A. Smith, A. C. Simmonett,
    A. E. DePrince III, E. G. Hohenstein, U. Bozkaya, A. Yu. Sokolov,
    R. Di Remigio, R. M. Richard, J. F. Gonthier, A. M. James,
    H. R. McAlexander, A. Kumar, M. Saitow, X. Wang, B. P. Pritchard,
    P. Verma, H. F. Schaefer III, K. Patkowski, R. A. King, E. F. Valeev,
    F. A. Evangelista, J. M. Turney, T. D. Crawford, and C. D. Sherrill,
    J. Chem. Theory Comput. 13(7) pp 3185--3197 (2017).
    (doi: 10.1021/acs.jctc.7b00174)

    -----------------------------------------------------------------------


    Psi4 started on: Wednesday, 01 May 2019 02:03PM

    Process ID:  28895
    PSIDATADIR: /home/grueneis/src/psi4/objdir/stage/usr/local/psi4/share/psi4
    Memory:     500.0 MiB
    Threads:    1
    
  ==> Input File <==

--------------------------------------------------------------------------
# Any line starting with the # character is a comment line

memory 32000 mb

molecule molecule {
0 3
Si         0.0000000000        0.0000000000       -1.0836042810
Si         0.0000000000        0.0000000000        1.0836042810
}

set {
  reference rohf
  DOCC [     5,    0,    1,    1,    0,    4,    1,    1 ]
  SOCC [     0,    0,    0,    0,    0,    0,    1,    1 ]
  basis aug-cc-pv(5+d)z
  scf_type OUT_OF_CORE
  mp2_type conv
  freeze_core true
}

energy('mp2')
--------------------------------------------------------------------------

  Memory set to  29.802 GiB by Python driver.

*** tstart() called on cqc01
*** at Wed May  1 14:03:55 2019

   => Loading Basis Set <=

    Name: AUG-CC-PV(5+D)Z
    Role: ORBITAL
    Keyword: BASIS
    atoms 1-2 entry SI         line   729 file /home/grueneis/src/psi4/objdir/stage/usr/local/psi4/share/psi4/basis/aug-cc-pv_5pd_z.gbs 


         ---------------------------------------------------------
                                   SCF
            by Justin Turney, Rob Parrish, Andy Simmonett
                             and Daniel Smith
                             ROHF Reference
                        1 Threads,  30517 MiB Core
         ---------------------------------------------------------

  ==> Geometry <==

    Molecular point group: d2h
    Full point group: D_inf_h

    Geometry (in Angstrom), charge = 0, multiplicity = 3:

       Center              X                  Y                   Z               Mass       
    ------------   -----------------  -----------------  -----------------  -----------------
          SI          0.000000000000     0.000000000000    -1.083604281000    27.976926532460
          SI          0.000000000000     0.000000000000     1.083604281000    27.976926532460

  Running in d2h symmetry.

  Rotational constants: A = ************  B =      0.25658  C =      0.25658 [cm^-1]
  Rotational constants: A = ************  B =   7692.11509  C =   7692.11509 [MHz]
  Nuclear repulsion =   47.858214803250668

  Charge       = 0
  Multiplicity = 3
  Electrons    = 28
  Nalpha       = 15
  Nbeta        = 13

  ==> Algorithm <==

  SCF Algorithm Type is OUT_OF_CORE.
  DIIS enabled.
  MOM disabled.
  Fractional occupation disabled.
  Guess Type is GWH.
  Energy threshold   = 1.00e-08
  Density threshold  = 1.00e-08
  Integral threshold = 0.00e+00

  ==> Primary Basis <==

  Basis Set: AUG-CC-PV(5+D)Z
    Blend: AUG-CC-PV(5+D)Z
    Number of shells: 60
    Number of basis function: 272
    Number of Cartesian functions: 384
    Spherical Harmonics?: true
    Max angular momentum: 5

  ==> Pre-Iterations <==

   -------------------------------------------------------
    Irrep   Nso     Nmo     Nalpha   Nbeta   Ndocc  Nsocc
   -------------------------------------------------------
     Ag        50      50       5       5       5       0
     B1g       20      20       0       0       0       0
     B2g       33      33       1       1       1       0
     B3g       33      33       1       1       1       0
     Au        20      20       0       0       0       0
     B1u       50      50       4       4       4       0
     B2u       33      33       2       1       1       1
     B3u       33      33       2       1       1       1
   -------------------------------------------------------
    Total     272     272      15      13      13       2
   -------------------------------------------------------

  ==> Integral Setup <==

  ==> DiskJK: Disk-Based J/K Matrices <==

    J tasked:                  Yes
    K tasked:                  Yes
    wK tasked:                  No
    Memory (MB):             22888
    Schwarz Cutoff:          1E-12

  Minimum eigenvalue in the overlap matrix is 1.4547480778E-05.
  Using Symmetric Orthogonalization.

  SCF Guess: Generalized Wolfsberg-Helmholtz.

  ==> Iterations <==

                        Total Energy        Delta E     RMS |[F,P]|

   @ROHF iter   1:  -549.34743977867197   -5.49347e+02   3.59791e-02 
   @ROHF iter   2:  -575.59182889680199   -2.62444e+01   2.49273e-02 DIIS
   @ROHF iter   3:  -577.63866979172155   -2.04684e+00   4.52996e-03 DIIS
   @ROHF iter   4:  -577.77668566328668   -1.38016e-01   4.19257e-04 DIIS
   @ROHF iter   5:  -577.77980696197528   -3.12130e-03   1.17076e-04 DIIS
   @ROHF iter   6:  -577.78022728317137   -4.20321e-04   3.46443e-05 DIIS
   @ROHF iter   7:  -577.78026553002212   -3.82469e-05   7.42635e-06 DIIS
   @ROHF iter   8:  -577.78026713686359   -1.60684e-06   1.40094e-06 DIIS
   @ROHF iter   9:  -577.78026720347088   -6.66073e-08   3.71333e-07 DIIS
   @ROHF iter  10:  -577.78026720765956   -4.18868e-09   9.18048e-08 DIIS
   @ROHF iter  11:  -577.78026720803996   -3.80396e-10   1.59405e-08 DIIS
   @ROHF iter  12:  -577.78026720805383   -1.38698e-11   3.32595e-09 DIIS

  ==> Post-Iterations <==

    Orbital Energies (a.u.)
    -----------------------

    Doubly Occupied:                                                      

       1Ag   -68.796872     1B1u  -68.796869     2Ag    -6.143844  
       2B1u   -6.143502     3Ag    -4.244995     1B3u   -4.244813  
       1B2u   -4.244813     1B3g   -4.244642     1B2g   -4.244642  
       3B1u   -4.243468     4Ag    -0.685167     4B1u   -0.463048  
       5Ag    -0.297957  

    Singly Occupied:                                                      

       2B2u   -0.160180     2B3u   -0.160180  

    Virtual:                                                              

       5B1u    0.030007     2B2g    0.037003     2B3g    0.037003  
       6Ag     0.041910     3B3u    0.046966     3B2u    0.046966  
       7Ag     0.058162     3B2g    0.069659     3B3g    0.069659  
       6B1u    0.099705     8Ag     0.101507     1B1g    0.101507  
       7B1u    0.136834     9Ag     0.139882     1Au     0.141157  
       8B1u    0.141157     4B3u    0.142953     4B2u    0.142953  
       4B2g    0.162248     4B3g    0.162248     9B1u    0.210603  
       5B3u    0.225321     5B2u    0.225321    10Ag     0.235471  
       6B3u    0.264873     6B2u    0.264873    11Ag     0.279085  
       2B1g    0.279085    12Ag     0.299315     7B3u    0.307405  
       7B2u    0.307405     5B2g    0.308548     5B3g    0.308548  
      10B1u    0.309159     2Au     0.325466    11B1u    0.325466  
       6B2g    0.334211     6B3g    0.334211    13Ag     0.340211  
       3B1g    0.340211    14Ag     0.341858     7B2g    0.355178  
       7B3g    0.355178    12B1u    0.381523     8B2u    0.432259  
       8B3u    0.432259     3Au     0.461707    13B1u    0.461707  
      14B1u    0.472208    15Ag     0.539970     8B2g    0.609197  
       8B3g    0.609197    15B1u    0.656393     9B2u    0.683088  
       9B3u    0.683088    16Ag     0.685400     4B1g    0.685400  
       5B1g    0.703274    17Ag     0.703274    10B3u    0.708856  
      10B2u    0.708856    18Ag     0.715521     9B3g    0.754957  
       9B2g    0.754957    11B2u    0.781697    11B3u    0.781697  
      19Ag     0.789741     6B1g    0.789741     4Au     0.798575  
      16B1u    0.798575    17B1u    0.800438     5Au     0.800438  
      10B3g    0.807943    10B2g    0.807943    20Ag     0.833535  
      18B1u    0.835130    12B3u    0.839642    12B2u    0.839642  
      13B2u    0.852953    13B3u    0.852953     6Au     0.860127  
      19B1u    0.860127    11B2g    0.912488    11B3g    0.912488  
      21Ag     0.931517    22Ag     0.957865     7B1g    0.957865  
      12B2g    0.963641    12B3g    0.963641    20B1u    1.026469  
      13B2g    1.069261    13B3g    1.069261    23Ag     1.126508  
      21B1u    1.129804    22B1u    1.204598     7Au     1.204598  
      23B1u    1.286960    14B3u    1.296400    14B2u    1.296400  
      14B3g    1.407656    14B2g    1.407656    24B1u    1.527818  
      24Ag     1.575083    25Ag     1.616746     8B1g    1.616746  
      15B3u    1.645179    15B2u    1.645179    16B2u    1.648327  
      16B3u    1.648327     9B1g    1.731501    26Ag     1.731501  
      27Ag     1.732288    15B3g    1.742970    15B2g    1.742970  
      25B1u    1.760050     8Au     1.760050    10B1g    1.769542  
      28Ag     1.769542    17B2u    1.770202    17B3u    1.770202  
      18B3u    1.787062    18B2u    1.787062    19B3u    1.809819  
      19B2u    1.809819    11B1g    1.832443    29Ag     1.832443  
      16B2g    1.859356    16B3g    1.859356    30Ag     1.873947  
      17B2g    1.888042    17B3g    1.888042     9Au     1.894734  
      26B1u    1.894734    27B1u    1.927300    10Au     1.927300  
      12B1g    1.946328    31Ag     1.946328    28B1u    1.981951  
      18B2g    2.022798    18B3g    2.022798    20B2u    2.029896  
      20B3u    2.029896    21B3u    2.053257    21B2u    2.053257  
      19B3g    2.094547    19B2g    2.094547    11Au     2.108045  
      29B1u    2.108045    12Au     2.159087    30B1u    2.159087  
      31B1u    2.205976    32Ag     2.289457    20B3g    2.296217  
      20B2g    2.296217    32B1u    2.327815    33Ag     2.389434  
      13B1g    2.389434    22B3u    2.478175    22B2u    2.478175  
      21B2g    2.486858    21B3g    2.486858    22B3g    2.821889  
      22B2g    2.821889    33B1u    2.824552    34Ag     2.829091  
      13Au     2.887533    34B1u    2.887533    23B3g    3.466362  
      23B2g    3.466362    23B3u    3.486868    23B2u    3.486868  
      35Ag     3.495515    24B3u    3.538867    24B2u    3.538867  
      36Ag     3.573542    14B1g    3.573542    24B2g    3.597730  
      24B3g    3.597730    25B3u    3.642646    25B2u    3.642646  
      15B1g    3.684868    37Ag     3.684868    38Ag     3.707636  
      35B1u    3.726754    36B1u    3.801262    14Au     3.801262  
      39Ag     3.826888    15Au     3.916635    37B1u    3.916635  
      38B1u    3.917949    26B3u    3.968787    26B2u    3.968787  
      25B3g    4.078526    25B2g    4.078526    40Ag     4.118267  
      16B1g    4.118267    27B2u    4.132890    27B3u    4.132890  
      17B1g    4.182605    41Ag     4.182605    42Ag     4.193350  
      18B1g    4.207453    43Ag     4.207453    28B3u    4.218080  
      28B2u    4.218080    16Au     4.233835    39B1u    4.233835  
      29B3u    4.243757    29B2u    4.243757    30B2u    4.267381  
      30B3u    4.267381    26B2g    4.272449    26B3g    4.272449  
      27B2g    4.308115    27B3g    4.308115    28B3g    4.349581  
      28B2g    4.349581    17Au     4.399688    40B1u    4.399688  
      19B1g    4.478632    44Ag     4.478632    41B1u    4.522833  
      18Au     4.522833    45Ag     4.546277    42B1u    4.547246  
      43B1u    4.618792    29B3g    4.651822    29B2g    4.651822  
      30B3g    4.674804    30B2g    4.674804    31B3u    4.889046  
      31B2u    4.889046    44B1u    4.923968    19Au     5.050126  
      45B1u    5.050126    31B3g    5.404352    31B2g    5.404352  
      46B1u    5.966554    46Ag     6.217608    20B1g    9.750357  
      47Ag     9.750357    20Au     9.887376    47B1u    9.887376  
      32B3u    9.893458    32B2u    9.893458    48Ag    10.055732  
      32B2g   10.280039    32B3g   10.280039    48B1u   10.384753  
      33B3u   13.380255    33B2u   13.380255    49Ag    13.856956  
      33B3g   13.962984    33B2g   13.962984    49B1u   15.486330  
      50B1u   40.024762    50Ag    41.510641  

    Final Occupation by Irrep:
             Ag   B1g   B2g   B3g    Au   B1u   B2u   B3u 
    DOCC [     5,    0,    1,    1,    0,    4,    1,    1 ]
    SOCC [     0,    0,    0,    0,    0,    0,    1,    1 ]

  Energy converged.

  @ROHF Final Energy:  -577.78026720805383

   => Energetics <=

    Nuclear Repulsion Energy =             47.8582148032506680
    One-Electron Energy =                -897.0408244627582235
    Two-Electron Energy =                 271.4023424514537055
    PCM Polarization Energy =               0.0000000000000000
    Total Energy =                       -577.7802672080538287

    Alert: EFP and PCM quantities not currently incorporated into SCF psivars.

Properties will be evaluated at   0.000000,   0.000000,   0.000000 Bohr

Properties computed using the SCF density matrix

  Nuclear Dipole Moment: (a.u.)
     X:     0.0000      Y:     0.0000      Z:     0.0000

  Electronic Dipole Moment: (a.u.)
     X:     0.0000      Y:     0.0000      Z:     0.0000

  Dipole Moment: (a.u.)
     X:     0.0000      Y:     0.0000      Z:     0.0000     Total:     0.0000

  Dipole Moment: (Debye)
     X:     0.0000      Y:     0.0000      Z:     0.0000     Total:     0.0000


*** tstop() called on cqc01 at Wed May  1 14:06:12 2019
Module time:
	user time   =      97.58 seconds =       1.63 minutes
	system time =       6.29 seconds =       0.10 minutes
	total time  =        137 seconds =       2.28 minutes
Total time:
	user time   =      97.58 seconds =       1.63 minutes
	system time =       6.29 seconds =       0.10 minutes
	total time  =        137 seconds =       2.28 minutes

*** tstart() called on cqc01
*** at Wed May  1 14:06:12 2019


 ============================================================================== 
 ============================================================================== 
 ============================================================================== 

                       MP2   
              Program Written by Ugur Bozkaya,
              Latest Revision June 25, 2014.

 ============================================================================== 
 ============================================================================== 
 ============================================================================== 

	RMS orbital gradient is changed to :     1.00e-05
	MAX orbital gradient is changed to :     3.16e-04
	MO spaces per irreps... 

	IRREP   FC   AOCC  BOCC  AVIR    BVIR  FV 
	==========================================
	  Ag     3     2     2    45     45     0
	 B1g     0     0     0    20     20     0
	 B2g     1     0     0    32     32     0
	 B3g     1     0     0    32     32     0
	  Au     0     0     0    20     20     0
	 B1u     3     1     1    46     46     0
	 B2u     1     1     0    31     32     0
	 B3u     1     1     0    31     32     0
	==========================================

	Computing MP2 energy using SCF MOs (ROHF-MP2)... 
	============================================================================== 
	Nuclear Repulsion Energy (a.u.)    :    47.85821480325067
	SCF Energy (a.u.)                  :  -577.78026720805383
	REF Energy (a.u.)                  :  -577.78026720805383
	Alpha-Alpha Contribution (a.u.)    :    -0.03223455499150
	Alpha-Beta Contribution (a.u.)     :    -0.13973068024269
	Beta-Beta Contribution (a.u.)      :    -0.00521025195354
	Scaled_SS Correlation Energy (a.u.):    -0.01248160231501
	Scaled_OS Correlation Energy (a.u.):    -0.16767681629122
	SCS-MP2 Total Energy (a.u.)        :  -577.96042562666003
	SOS-MP2 Total Energy (a.u.)        :  -577.96191709236928
	SCSN-MP2 Total Energy (a.u.)       :  -577.84617006827705
	SCS-MP2-VDW Total Energy (a.u.)    :  -577.97784488223692
	SOS-PI-MP2 Total Energy (a.u.)     :  -577.97589016039365
	MP2 Singles Energy (a.u.)          :    -0.00215932740929
	MP2 Doubles Energy (a.u.)          :    -0.17717548718773
	MP2 Correlation Energy (a.u.)      :    -0.17933481459702
	MP2 Total Energy (a.u.)            :  -577.95960202265087
	============================================================================== 

*** tstop() called on cqc01 at Wed May  1 14:09:25 2019
Module time:
	user time   =      47.10 seconds =       0.78 minutes
	system time =      15.44 seconds =       0.26 minutes
	total time  =        193 seconds =       3.22 minutes
Total time:
	user time   =     144.73 seconds =       2.41 minutes
	system time =      21.77 seconds =       0.36 minutes
	total time  =        330 seconds =       5.50 minutes

*** Psi4 exiting successfully. Buy a developer a beer!
