
    -----------------------------------------------------------------------
          Psi4: An Open-Source Ab Initio Electronic Structure Package
                               Psi4 1.4a3.dev88 

                         Git: Rev {master} 262e345 


    D. G. A. Smith, L. A. Burns, A. C. Simmonett, R. M. Parrish,
    M. C. Schieber, R. Galvelis, P. Kraus, H. Kruse, R. Di Remigio,
    A. Alenaizan, A. M. James, S. Lehtola, J. P. Misiewicz, M. Scheurer,
    R. A. Shaw, J. B. Schriber, Y. Xie, Z. L. Glick, D. A. Sirianni,
    J. S. O'Brien, J. M. Waldrop, A. Kumar, E. G. Hohenstein,
    B. P. Pritchard, B. R. Brooks, H. F. Schaefer III, A. Yu. Sokolov,
    K. Patkowski, A. E. DePrince III, U. Bozkaya, R. A. King,
    F. A. Evangelista, J. M. Turney, T. D. Crawford, C. D. Sherrill,
    J. Chem. Phys. 152(18) 184108 (2020). https://doi.org/10.1063/5.0006002

                            Additional Code Authors
    E. T. Seidl, C. L. Janssen, E. F. Valeev, M. L. Leininger,
    J. F. Gonthier, R. M. Richard, H. R. McAlexander, M. Saitow, X. Wang,
    P. Verma, and M. H. Lechner

             Previous Authors, Complete List of Code Contributors,
                       and Citations for Specific Modules
    https://github.com/psi4/psi4/blob/master/codemeta.json
    https://github.com/psi4/psi4/graphs/contributors
    http://psicode.org/psi4manual/master/introduction.html#citing-psifour

    -----------------------------------------------------------------------


    Psi4 started on: Saturday, 23 January 2021 02:16PM

    Process ID: 13116
    Host:       n412-047.vsc4.prov
    PSIDATADIR: /home/fs71337/gallo4/psi4/eri-6/psi4/build/stage/share/psi4
    Memory:     500.0 MiB
    Threads:    48
    
  ==> Input File <==

--------------------------------------------------------------------------
# Any line starting with the # character is a comment line
memory 250000 mb
molecule molecule{
0 1
N         -0.0000000000        0.0000000000        0.0674754640
H          0.9380664748        0.0000000000       -0.3125545110
H         -0.4690332374        0.8123893976       -0.3125545110
H         -0.4690332374       -0.8123893976       -0.3125545110
}

set {
  reference rhf
  basis aug-cc-pV(6+d)Z
  scf_type OUT_OF_CORE
  freeze_core true
}

energy('ccsd(t)')
--------------------------------------------------------------------------

  Memory set to 232.831 GiB by Python driver.

Scratch directory: /binfl/lv71337/airmler/temp/

*** tstart() called on n412-047.vsc4.prov
*** at Sat Jan 23 14:16:48 2021

   => Loading Basis Set <=

    Name: AUG-CC-PV(6+D)Z
    Role: ORBITAL
    Keyword: BASIS
    atoms 1   entry N          line   363 file /home/fs71337/gallo4/psi4/eri-6/psi4/build/stage/share/psi4/basis/aug-cc-pv_6pd_z.gbs 
    atoms 2-4 entry H          line    51 file /home/fs71337/gallo4/psi4/eri-6/psi4/build/stage/share/psi4/basis/aug-cc-pv_6pd_z.gbs 


         ---------------------------------------------------------
                                   SCF
               by Justin Turney, Rob Parrish, Andy Simmonett
                          and Daniel G. A. Smith
                              RHF Reference
                       48 Threads, 238418 MiB Core
         ---------------------------------------------------------

  ==> Geometry <==

    Molecular point group: cs
    Full point group: C3v

    Geometry (in Angstrom), charge = 0, multiplicity = 1:

       Center              X                  Y                   Z               Mass       
    ------------   -----------------  -----------------  -----------------  -----------------
         N            0.000000000000    -0.067483502299     0.000000000000    14.003074004430
         H           -0.469033237393     0.312546472701     0.812389397611     1.007825032230
         H           -0.469033237393     0.312546472701    -0.812389397611     1.007825032230
         H            0.938066474787     0.312546472701     0.000000000000     1.007825032230

  Running in cs symmetry.

  Rotational constants: A =      9.97846  B =      9.97846  C =      6.33611 [cm^-1]
  Rotational constants: A = 299146.83981  B = 299146.83980  C = 189951.86993 [MHz]
  Nuclear repulsion =   11.956698992854601

  Charge       = 0
  Multiplicity = 1
  Electrons    = 10
  Nalpha       = 5
  Nbeta        = 5

  ==> Algorithm <==

  SCF Algorithm Type is OUT_OF_CORE.
  DIIS enabled.
  MOM disabled.
  Fractional occupation disabled.
  Guess Type is SAD.
  Energy threshold   = 1.00e-08
  Density threshold  = 1.00e-08
  Integral threshold = 1.00e-12

  ==> Primary Basis <==

  Basis Set: AUG-CC-PV(6+D)Z
    Blend: AUG-CC-PV(6+D)Z
    Number of shells: 116
    Number of basis function: 570
    Number of Cartesian functions: 840
    Spherical Harmonics?: true
    Max angular momentum: 6

  ==> Integral Setup <==

  ==> DiskJK: Disk-Based J/K Matrices <==

    J tasked:                  Yes
    K tasked:                  Yes
    wK tasked:                  No
    Memory [MiB]:           178813
    Schwarz Cutoff:          1E-12

  Minimum eigenvalue in the overlap matrix is 2.0038157703E-06.
  Reciprocal condition number of the overlap matrix is 1.7922654275E-07.
    Using symmetric orthogonalization.

  ==> Pre-Iterations <==

  SCF Guess: Superposition of Atomic Densities via on-the-fly atomic UHF (no occupation information).


 WARNING: Atomic UHF is not converging! Try casting from a smaller basis or call Rob at CCMST.

 WARNING: Atomic UHF is not converging! Try casting from a smaller basis or call Rob at CCMST.
   -------------------------
    Irrep   Nso     Nmo    
   -------------------------
     A'       316     316 
     A"       254     254 
   -------------------------
    Total     570     570
   -------------------------

  ==> Iterations <==

                        Total Energy        Delta E     RMS |[F,P]|

   @RHF iter SAD:   -13.56881319222470   -1.35688e+01   0.00000e+00 
   @RHF iter   1:   -53.40264759080006   -3.98338e+01   7.34532e-03 DIIS
   @RHF iter   2:   -53.18416346404257    2.18484e-01   4.46018e-03 DIIS
   @RHF iter   3:   -55.94222124693059   -2.75806e+00   2.01864e-03 DIIS
   @RHF iter   4:   -56.21032574756376   -2.68105e-01   3.97531e-04 DIIS
   @RHF iter   5:   -56.22468745658231   -1.43617e-02   3.47826e-05 DIIS
   @RHF iter   6:   -56.22490315024836   -2.15694e-04   2.12184e-05 DIIS
   @RHF iter   7:   -56.22495104041053   -4.78902e-05   6.32531e-06 DIIS
   @RHF iter   8:   -56.22495663270627   -5.59230e-06   4.19860e-07 DIIS
   @RHF iter   9:   -56.22495667742456   -4.47183e-08   1.28485e-07 DIIS
   @RHF iter  10:   -56.22495668048455   -3.05999e-09   3.41534e-08 DIIS
   @RHF iter  11:   -56.22495668068488   -2.00330e-10   6.52034e-09 DIIS
  Energy and wave function converged.


  ==> Post-Iterations <==

    Orbital Energies [Eh]
    ---------------------

    Doubly Occupied:                                                      

       1Ap   -15.539721     2Ap    -1.142047     3Ap    -0.628963  
       1App   -0.628963     4Ap    -0.429582  

    Virtual:                                                              

       5Ap     0.020743     2App    0.033779     6Ap     0.033779  
       7Ap     0.064738     3App    0.096189     8Ap     0.096189  
       9Ap     0.102367    10Ap     0.141528     4App    0.141528  
       5App    0.143918    11Ap     0.143918    12Ap     0.151646  
      13Ap     0.202859     6App    0.211156     7App    0.221255  
      14Ap     0.221255     8App    0.252438    15Ap     0.252438  
      16Ap     0.258949     9App    0.288265    17Ap     0.288265  
      18Ap     0.294606    19Ap     0.353518    10App    0.353518  
      20Ap     0.358134    21Ap     0.367063    11App    0.367063  
      22Ap     0.393880    12App    0.435968    23Ap     0.435968  
      24Ap     0.480200    13App    0.491742    25Ap     0.491742  
      14App    0.492921    15App    0.506137    26Ap     0.507750  
      16App    0.520489    27Ap     0.520489    28Ap     0.528209  
      17App    0.528209    18App    0.555454    29Ap     0.555454  
      30Ap     0.567331    31Ap     0.607201    19App    0.607201  
      32Ap     0.656150    33Ap     0.674978    20App    0.711411  
      34Ap     0.711411    21App    0.721733    35Ap     0.721733  
      36Ap     0.769326    37Ap     0.803787    22App    0.803787  
      23App    0.831362    24App    0.855664    38Ap     0.855664  
      39Ap     0.858850    40Ap     0.970383    25App    0.972877  
      41Ap     0.972877    26App    0.997535    42Ap     1.012733  
      43Ap     1.042056    27App    1.042056    28App    1.089559  
      44Ap     1.089559    45Ap     1.112413    29App    1.112413  
      46Ap     1.115291    47Ap     1.131655    30App    1.139816  
      48Ap     1.144712    31App    1.144712    32App    1.168377  
      49Ap     1.168377    33App    1.193166    50Ap     1.193166  
      34App    1.223529    51Ap     1.223529    52Ap     1.238002  
      53Ap     1.281389    35App    1.297153    36App    1.319386  
      54Ap     1.319386    55Ap     1.359763    37App    1.383824  
      56Ap     1.383824    57Ap     1.400203    38App    1.438793  
      58Ap     1.450753    39App    1.450753    59Ap     1.484725  
      40App    1.484725    60Ap     1.706650    61Ap     1.795441  
      41App    1.825757    62Ap     1.850865    42App    1.850865  
      43App    1.858490    63Ap     1.858490    64Ap     1.858672  
      44App    1.890861    65Ap     1.895159    45App    1.895159  
      66Ap     1.952297    46App    1.952297    67Ap     1.963226  
      47App    2.038721    68Ap     2.038721    69Ap     2.044333  
      70Ap     2.099944    48App    2.099944    49App    2.130824  
      71Ap     2.130824    50App    2.159862    72Ap     2.159862  
      73Ap     2.166056    74Ap     2.192119    51App    2.233824  
      52App    2.249925    75Ap     2.249925    76Ap     2.267254  
      77Ap     2.328330    53App    2.328330    54App    2.386029  
      78Ap     2.386029    79Ap     2.389703    55App    2.427896  
      80Ap     2.427896    56App    2.480003    81Ap     2.480003  
      57App    2.489995    82Ap     2.493007    58App    2.525925  
      83Ap     2.525925    84Ap     2.538890    59App    2.538890  
      85Ap     2.571636    60App    2.576010    86Ap     2.581403  
      61App    2.581403    62App    2.613755    87Ap     2.613755  
      88Ap     2.641602    63App    2.643143    89Ap     2.679319  
      90Ap     2.680915    64App    2.680915    91Ap     2.789515  
      65App    2.789515    66App    2.798412    67App    2.893840  
      92Ap     2.893840    93Ap     2.937227    68App    2.950425  
      94Ap     2.950425    95Ap     3.010220    69App    3.018828  
      96Ap     3.064145    70App    3.064145    97Ap     3.183059  
      71App    3.183059    72App    3.281662    98Ap     3.294147  
      99Ap     3.306863    73App    3.306863    74App    3.351404  
     100Ap     3.351404   101Ap     3.375377   102Ap     3.621075  
      75App    3.843544   103Ap     3.843544    76App    3.916706  
     104Ap     3.916706   105Ap     3.929195   106Ap     4.039031  
     107Ap     4.066879    77App    4.066879   108Ap     4.124455  
      78App    4.124455    79App    4.142207   109Ap     4.142247  
      80App    4.152978   110Ap     4.152978    81App    4.200249  
     111Ap     4.204962    82App    4.204962   112Ap     4.207982  
      83App    4.253211   113Ap     4.253211   114Ap     4.396845  
      84App    4.396845    85App    4.419369   115Ap     4.426721  
      86App    4.426721    87App    4.479981   116Ap     4.479981  
     117Ap     4.488187    88App    4.567727   118Ap     4.583338  
      89App    4.602348   119Ap     4.602348    90App    4.635373  
     120Ap     4.635373   121Ap     4.691079   122Ap     4.739368  
     123Ap     4.800459    91App    4.800459   124Ap     4.832457  
      92App    4.849139   125Ap     4.849139   126Ap     4.886746  
      93App    4.886746   127Ap     4.953093    94App    4.953093  
     128Ap     4.988841    95App    5.001733   129Ap     5.002397  
      96App    5.002397    97App    5.053698   130Ap     5.056164  
     131Ap     5.143235    98App    5.158144   132Ap     5.158144  
     133Ap     5.225013    99App    5.225013   100App    5.233118  
     134Ap     5.248982   135Ap     5.266527   101App    5.266527  
     136Ap     5.275228   102App    5.275228   137Ap     5.291243  
     103App    5.354639   104App    5.441356   138Ap     5.441356  
     139Ap     5.490685   105App    5.490685   140Ap     5.491621  
     141Ap     5.558905   106App    5.558905   142Ap     5.600522  
     107App    5.600522   108App    5.688599   109App    5.706272  
     110App    5.708011   143Ap     5.708011   111App    5.772334  
     144Ap     5.772334   145Ap     5.824516   146Ap     5.840157  
     112App    5.931397   113App    5.941888   147Ap     5.941888  
     148Ap     6.013924   149Ap     6.110417   114App    6.110417  
     150Ap     6.118075   115App    6.118075   151Ap     6.207141  
     116App    6.298632   152Ap     6.424430   117App    6.424430  
     153Ap     6.468033   118App    6.600135   154Ap     6.600135  
     119App    6.805443   155Ap     6.805443   156Ap     6.889484  
     120App    6.889484   157Ap     6.993631   158Ap     6.996782  
     121App    6.996782   122App    7.057873   123App    7.136204  
     159Ap     7.136204   160Ap     7.224617   161Ap     7.565462  
     124App    7.565462   162Ap     7.657325   163Ap     7.709620  
     125App    7.709620   126App    7.786790   164Ap     7.808702  
     127App    7.938756   165Ap     7.987934   128App    7.987934  
     129App    7.998189   166Ap     7.998189   167Ap     8.172952  
     130App    8.172952   168Ap     8.296642   169Ap     8.513475  
     170Ap     8.580324   131App    8.580324   171Ap     8.616696  
     132App    8.616696   133App    8.692729   172Ap     8.703041  
     173Ap     8.724178   134App    8.724178   135App    8.782399  
     174Ap     8.854561   136App    8.854561   175Ap     9.091403  
     137App    9.091403   176Ap     9.104148   177Ap     9.133709  
     138App    9.133709   178Ap     9.279960   179Ap     9.445216  
     139App    9.445216   140App    9.488800   180Ap     9.498943  
     141App    9.563267   181Ap     9.563267   182Ap     9.668855  
     183Ap     9.711520   142App    9.711520   184Ap     9.792637  
     143App    9.805048   185Ap     9.826122   144App    9.826122  
     145App    9.915313   146App   10.015270   186Ap    10.015270  
     187Ap    10.062516   188Ap    10.097268   189Ap    10.154213  
     147App   10.154213   148App   10.192434   190Ap    10.192434  
     191Ap    10.270274   149App   10.348760   192Ap    10.348760  
     150App   10.371502   193Ap    10.477231   151App   10.553408  
     194Ap    10.553408   195Ap    10.598154   152App   10.607980  
     196Ap    10.607980   197Ap    10.676382   153App   10.676382  
     154App   10.711348   198Ap    10.789419   155App   10.789419  
     199Ap    10.925845   156App   10.961668   200Ap    10.961668  
     157App   11.067421   201Ap    11.067421   158App   11.212756  
     202Ap    11.212756   203Ap    11.280488   204Ap    11.360633  
     159App   11.360633   205Ap    11.531386   160App   11.534391  
     206Ap    11.653922   161App   11.653922   162App   11.812513  
     163App   11.842780   207Ap    11.842780   164App   12.008312  
     208Ap    12.010663   209Ap    12.078880   165App   12.103362  
     210Ap    12.103362   211Ap    12.464048   166App   12.464048  
     212Ap    12.522517   213Ap    12.548294   167App   12.548294  
     214Ap    12.933110   168App   12.933110   215Ap    13.201599  
     169App   13.290354   216Ap    13.390566   170App   13.390566  
     217Ap    13.662549   171App   13.662549   218Ap    13.875054  
     172App   13.875054   173App   14.036490   219Ap    14.038623  
     220Ap    14.092488   174App   14.092488   221Ap    14.210957  
     222Ap    14.350912   175App   14.406057   223Ap    14.406057  
     176App   14.793508   224Ap    14.793508   177App   14.875257  
     225Ap    15.230222   178App   15.230222   226Ap    16.059427  
     179App   16.712772   227Ap    16.712772   228Ap    16.863901  
     180App   16.863901   181App   17.113494   229Ap    17.178790  
     182App   17.225258   230Ap    17.655258   183App   17.655258  
     231Ap    17.736433   184App   17.736433   185App   17.753853  
     232Ap    17.834463   186App   17.839705   233Ap    17.839705  
     234Ap    17.861255   235Ap    17.959439   187App   17.959439  
     236Ap    18.143878   188App   18.143878   189App   18.219212  
     190App   18.354040   237Ap    18.354040   238Ap    18.488399  
     191App   18.629611   239Ap    18.629611   240Ap    18.647289  
     241Ap    18.882934   192App   18.882934   193App   18.951221  
     242Ap    18.951221   243Ap    19.027170   194App   19.038721  
     244Ap    19.154412   245Ap    19.365343   195App   19.365343  
     196App   19.688841   246Ap    19.688841   197App   19.913851  
     247Ap    19.913851   248Ap    19.952483   198App   20.201015  
     249Ap    20.201015   250Ap    20.202232   199App   20.219704  
     200App   20.363717   251Ap    20.363717   252Ap    20.585664  
     253Ap    20.604520   201App   20.604520   202App   20.733711  
     254Ap    20.800643   203App   20.800643   255Ap    20.896721  
     204App   21.020855   256Ap    21.020855   205App   21.105485  
     257Ap    21.160376   206App   21.327416   258Ap    21.327416  
     207App   21.369578   259Ap    21.529128   208App   21.529128  
     260Ap    21.596505   261Ap    21.745403   209App   21.745403  
     262Ap    21.773061   263Ap    21.913437   210App   21.913437  
     211App   21.988090   264Ap    22.001307   212App   22.062198  
     265Ap    22.062198   266Ap    22.072420   267Ap    22.307426  
     213App   22.307426   268Ap    22.455313   214App   22.455313  
     215App   22.488610   269Ap    22.555246   270Ap    22.631260  
     216App   22.631260   271Ap    22.813776   217App   22.813776  
     218App   22.845196   219App   22.922066   272Ap    22.922066  
     273Ap    23.430627   220App   23.430627   274Ap    23.440713  
     275Ap    23.608996   276Ap    23.833788   221App   23.833788  
     277Ap    24.005291   222App   24.005291   278Ap    24.039636  
     223App   24.199632   279Ap    24.253853   224App   24.253853  
     280Ap    24.294235   225App   24.451267   281Ap    24.451267  
     226App   24.588354   282Ap    24.654113   227App   24.654113  
     283Ap    24.791020   228App   24.791020   284Ap    24.856724  
     285Ap    24.859003   229App   24.859003   230App   24.862550  
     286Ap    25.179088   287Ap    25.387017   231App   25.387017  
     232App   25.419554   288Ap    25.448996   289Ap    25.524519  
     233App   25.524519   290Ap    25.540022   291Ap    25.837725  
     234App   25.837725   235App   26.104045   292Ap    26.104045  
     236App   26.450051   293Ap    26.749484   294Ap    26.933542  
     237App   26.933542   295Ap    26.941941   296Ap    27.452711  
     238App   27.452711   297Ap    27.776320   239App   27.909657  
     298Ap    28.005833   240App   28.005833   299Ap    28.327864  
     241App   28.327864   242App   28.581019   300Ap    28.581019  
     301Ap    28.768808   302Ap    28.914366   243App   28.914366  
     244App   29.317967   303Ap    29.569501   245App   29.569501  
     304Ap    29.720811   246App   30.457810   305Ap    30.476237  
     247App   30.476238   306Ap    31.023633   248App   31.023633  
     307Ap    31.304043   308Ap    32.648606   249App   32.758611  
     309Ap    32.758611   310Ap    34.527623   250App   34.527623  
     311Ap    37.361948   312Ap    37.484688   251App   37.484688  
     252App   37.653516   313Ap    37.653516   253App   38.117810  
     314Ap    39.875781   315Ap    41.226533   254App   41.226533  
     316Ap    87.324748  

    Final Occupation by Irrep:
             Ap   App 
    DOCC [     4,    1 ]

  @RHF Final Energy:   -56.22495668068488

   => Energetics <=

    Nuclear Repulsion Energy =             11.9566989928546015
    One-Electron Energy =                 -99.6247641819084038
    Two-Electron Energy =                  31.4431085083689332
    Total Energy =                        -56.2249566806848691

Computation Completed


Properties will be evaluated at   0.000000,   0.000000,   0.000000 [a0]

Properties computed using the SCF density matrix

  Nuclear Dipole Moment: [e a0]
     X:    -0.0000      Y:     0.8792      Z:     0.0000

  Electronic Dipole Moment: [e a0]
     X:    -0.0000      Y:    -0.2444      Z:     0.0000

  Dipole Moment: [e a0]
     X:    -0.0000      Y:     0.6348      Z:     0.0000     Total:     0.6348

  Dipole Moment: [D]
     X:    -0.0000      Y:     1.6136      Z:     0.0000     Total:     1.6136


*** tstop() called on n412-047.vsc4.prov at Sat Jan 23 16:11:41 2021
Module time:
	user time   =    3138.32 seconds =      52.31 minutes
	system time =    1360.83 seconds =      22.68 minutes
	total time  =       6893 seconds =     114.88 minutes
Total time:
	user time   =    3138.32 seconds =      52.31 minutes
	system time =    1360.83 seconds =      22.68 minutes
	total time  =       6893 seconds =     114.88 minutes

*** tstart() called on n412-047.vsc4.prov
*** at Sat Jan 23 16:11:41 2021


	Wfn Parameters:
	--------------------
	Wavefunction         = CCSD_T
	Number of irreps     = 2
	Number of MOs        = 570
	Number of active MOs = 569
	AO-Basis             = NONE
	Semicanonical        = false
	Reference            = RHF
	Print Level          = 1

	IRREP	# MOs	# FZDC	# DOCC	# SOCC	# VIRT	# FZVR
	-----	-----	------	------	------	------	------
	 Ap	   316	    1	    3	    0	    312	    0
	 App	   254	    0	    1	    0	    253	    0
	Transforming integrals...
	IWL integrals will be deleted.
	(OO|OO)...
	Presorting SO-basis two-electron integrals.
	Sorting File: SO Ints (nn|nn) nbuckets = 1
	Constructing frozen core operators
	Starting first half-transformation.
	Sorting half-transformed integrals.
	First half integral transformation complete.
	Starting second half-transformation.
	Two-electron integral transformation complete.
	(OO|OV)...
	Starting second half-transformation.
	Two-electron integral transformation complete.
	(OO|VV)...
	Starting second half-transformation.
	Two-electron integral transformation complete.
	(OV|OO)...
	Starting first half-transformation.
	Sorting half-transformed integrals.
	First half integral transformation complete.
	Starting second half-transformation.
	Two-electron integral transformation complete.
	(OV|OV)...
	Starting second half-transformation.
	Two-electron integral transformation complete.
	(OV|VV)...
	Starting second half-transformation.
	Two-electron integral transformation complete.
	(VV|OO)...
	Starting first half-transformation.
	Sorting half-transformed integrals.
	First half integral transformation complete.
	Starting second half-transformation.
	Two-electron integral transformation complete.
	(VV|OV)...
	Starting second half-transformation.
	Two-electron integral transformation complete.
	(VV|VV)...
	Starting second half-transformation.
	Two-electron integral transformation complete.
	Frozen core energy     =    -47.87048119027300

	Size of irrep 0 of <ab|cd> integrals:  26034.791 (MW) / 208278.325 (MB)
	Size of irrep 1 of <ab|cd> integrals:  24923.568 (MW) / 199388.547 (MB)
	Total:                                 50958.359 (MW) / 407666.872 (MB)

	Size of irrep 0 of <ia|bc> integrals:    191.849 (MW) /   1534.790 (MB)
	Size of irrep 1 of <ia|bc> integrals:    169.081 (MW) /   1352.647 (MB)
	Total:                                   360.930 (MW) /   2887.437 (MB)

	Size of irrep 0 of tijab amplitudes:       1.614 (MW) /     12.908 (MB)
	Size of irrep 1 of tijab amplitudes:       0.947 (MW) /      7.578 (MB)
	Total:                                     2.561 (MW) /     20.486 (MB)

	Nuclear Rep. energy          =     11.95669899285460
	SCF energy                   =    -56.22495668068488
	One-electron energy          =    -34.96323922372498
	Two-electron energy          =     14.65206474045135
	Reference energy             =    -56.22495668069203

*** tstop() called on n412-047.vsc4.prov at Sat Jan 23 19:02:07 2021
Module time:
	user time   =    5592.32 seconds =      93.21 minutes
	system time =    1727.49 seconds =      28.79 minutes
	total time  =      10226 seconds =     170.43 minutes
Total time:
	user time   =    8730.65 seconds =     145.51 minutes
	system time =    3088.32 seconds =      51.47 minutes
	total time  =      17119 seconds =     285.32 minutes
            **************************
            *                        *
            *        CCENERGY        *
            *                        *
            **************************

    Nuclear Rep. energy (wfn)     =   11.956698992854601
    SCF energy          (wfn)     =  -56.224956680684876
    Reference energy    (file100) =  -56.224956680692031

    Input parameters:
    -----------------
    Wave function   =     CCSD_T
    Reference wfn   =     RHF
    Brueckner       =     No
    Memory (Mbytes) =     250000.0
    Maxiter         =     50
    R_Convergence   =     1.0e-07
    E_Convergence   =     1.0e-06
    Restart         =     Yes
    DIIS            =     Yes
    AO Basis        =     NONE
    ABCD            =     NEW
    Cache Level     =     2
    Cache Type      =     LOW
    Print Level     =     1
    Num. of threads =     48
    # Amps to Print =     10
    Print MP2 Amps? =     No
    Analyze T2 Amps =     No
    Print Pair Ener =     No
    Local CC        =     No
    SCS-MP2         =     False
    SCSN-MP2        =     False
    SCS-CCSD        =     False

MP2 correlation energy -0.2612096191206799
                Solving CC Amplitude Equations
                ------------------------------
  Iter             Energy              RMS        T1Diag      D1Diag    New D1Diag    D2Diag
  ----     ---------------------    ---------   ----------  ----------  ----------   --------
     0        -0.261209619120680    0.000e+00    0.000000    0.000000    0.000000    0.124410
     1        -0.261279004033975    3.414e-02    0.006852    0.012176    0.012176    0.126730
     2        -0.266753214079357    1.183e-02    0.006921    0.013018    0.013018    0.131470
     3        -0.267647885423543    4.194e-03    0.007799    0.015344    0.015344    0.132925
     4        -0.267594509632465    1.057e-03    0.007929    0.015729    0.015729    0.133158
     5        -0.267615686891888    4.283e-04    0.008005    0.016022    0.016022    0.133254
     6        -0.267622568939105    1.153e-04    0.008031    0.016105    0.016105    0.133271
     7        -0.267620336199975    4.438e-05    0.008039    0.016130    0.016130    0.133271
     8        -0.267619669537547    1.691e-05    0.008041    0.016139    0.016139    0.133272
     9        -0.267620003953198    6.791e-06    0.008042    0.016141    0.016141    0.133273
    10        -0.267619696081779    2.692e-06    0.008042    0.016141    0.016141    0.133272
    11        -0.267619769964950    9.317e-07    0.008041    0.016141    0.016141    0.133273
    12        -0.267619757547684    3.239e-07    0.008041    0.016141    0.016141    0.133273
    13        -0.267619757555815    9.318e-08    0.008041    0.016141    0.016141    0.133273

    Iterations converged.


    Largest TIA Amplitudes:
              2   8         0.0070511924
              2   2         0.0068645058
              2   7         0.0052161207
              2  17        -0.0051622636
              2  15        -0.0049652237
              1  44         0.0040094604
              3 342         0.0040094603
              1  26         0.0038598008
              3 329         0.0038598005
              2  31         0.0031945421

    Largest TIjAb Amplitudes:
      2   2  31  31        -0.0114151045
      3   3 329 329        -0.0106443368
      1   1  26  26        -0.0106443361
      3   3 321 321        -0.0090115884
      1   1  16  16        -0.0090115869
      2   2   8   8        -0.0088495943
      2   2  19  19        -0.0087560753
      1   1  14  14        -0.0087301344
      3   3 320 320        -0.0087301328
      2   2  52  52        -0.0086600438

    SCF energy       (wfn)                    =  -56.224956680684876
    Reference energy (file100)                =  -56.224956680692031

    Opposite-spin MP2 correlation energy      =   -0.206125931646167
    Same-spin MP2 correlation energy          =   -0.055083687474513
    Singles MP2 correlation energy            =   -0.000000000000000
    MP2 correlation energy                    =   -0.261209619120680
      * MP2 total energy                      =  -56.486166299812709

    Opposite-spin CCSD correlation energy     =   -0.217538914165889
    Same-spin CCSD correlation energy         =   -0.050080843389954
    Singles CCSD correlation energy           =    0.000000000000000
    CCSD correlation energy                   =   -0.267619757555815
      * CCSD total energy                     =  -56.492576438247845

            **************************
            *                        *
            *        CCTRIPLES       *
            *                        *
            **************************


    Wave function   =    CCSD_T
    Reference wfn   =      RHF

    Nuclear Rep. energy (wfn)                =   11.956698992854601
    SCF energy          (wfn)                =  -56.224956680684876
    Reference energy    (file100)            =  -56.224956680692031
    CCSD energy         (file100)            =   -0.267619757555815
    Total CCSD energy   (file100)            =  -56.492576438247845

    Number of ijk index combinations:               20
    Memory available in words        :     31250000000
    ~Words needed per explicit thread:       121485312
    Number of threads for explicit ijk threading:   48

    (T) energy                                =   -0.009234307948458
      * CCSD(T) total energy                  =  -56.501810746196306


    Psi4 stopped on: Saturday, 23 January 2021 08:09PM
    Psi4 wall time for execution: 5:52:45.71

*** Psi4 exiting successfully. Buy a developer a beer!
