
    -----------------------------------------------------------------------
          Psi4: An Open-Source Ab Initio Electronic Structure Package
                               Psi4 1.4a3.dev88 

                         Git: Rev {master} 262e345 


    D. G. A. Smith, L. A. Burns, A. C. Simmonett, R. M. Parrish,
    M. C. Schieber, R. Galvelis, P. Kraus, H. Kruse, R. Di Remigio,
    A. Alenaizan, A. M. James, S. Lehtola, J. P. Misiewicz, M. Scheurer,
    R. A. Shaw, J. B. Schriber, Y. Xie, Z. L. Glick, D. A. Sirianni,
    J. S. O'Brien, J. M. Waldrop, A. Kumar, E. G. Hohenstein,
    B. P. Pritchard, B. R. Brooks, H. F. Schaefer III, A. Yu. Sokolov,
    K. Patkowski, A. E. DePrince III, U. Bozkaya, R. A. King,
    F. A. Evangelista, J. M. Turney, T. D. Crawford, C. D. Sherrill,
    J. Chem. Phys. 152(18) 184108 (2020). https://doi.org/10.1063/5.0006002

                            Additional Code Authors
    E. T. Seidl, C. L. Janssen, E. F. Valeev, M. L. Leininger,
    J. F. Gonthier, R. M. Richard, H. R. McAlexander, M. Saitow, X. Wang,
    P. Verma, and M. H. Lechner

             Previous Authors, Complete List of Code Contributors,
                       and Citations for Specific Modules
    https://github.com/psi4/psi4/blob/master/codemeta.json
    https://github.com/psi4/psi4/graphs/contributors
    http://psicode.org/psi4manual/master/introduction.html#citing-psifour

    -----------------------------------------------------------------------


    Psi4 started on: Tuesday, 26 January 2021 06:32PM

    Process ID: 407094
    Host:       n412-039.vsc4.prov
    PSIDATADIR: /home/fs71337/gallo4/psi4/eri-6/psi4/build/stage/share/psi4
    Memory:     500.0 MiB
    Threads:    48
    
  ==> Input File <==

--------------------------------------------------------------------------
# Any line starting with the # character is a comment line
memory 250000 mb
molecule molecule{
0 1
N         -0.0000000000        0.0000000000        0.0674754640
H          0.9380664748        0.0000000000       -0.3125545110
H         -0.4690332374        0.8123893976       -0.3125545110
H         -0.4690332374       -0.8123893976       -0.3125545110
}

set {
  reference rhf
  basis aug-cc-pV(d+d)Z
  scf_type OUT_OF_CORE
  freeze_core true
}

energy('ccsd(t)')
--------------------------------------------------------------------------

  Memory set to 232.831 GiB by Python driver.

Scratch directory: /binfl/lv71337/airmler/temp/

*** tstart() called on n412-039.vsc4.prov
*** at Tue Jan 26 18:32:08 2021

   => Loading Basis Set <=

    Name: AUG-CC-PV(D+D)Z
    Role: ORBITAL
    Keyword: BASIS
    atoms 1   entry N          line   246 file /home/fs71337/gallo4/psi4/eri-6/psi4/build/stage/share/psi4/basis/aug-cc-pv_dpd_z.gbs 
    atoms 2-4 entry H          line    68 file /home/fs71337/gallo4/psi4/eri-6/psi4/build/stage/share/psi4/basis/aug-cc-pv_dpd_z.gbs 


         ---------------------------------------------------------
                                   SCF
               by Justin Turney, Rob Parrish, Andy Simmonett
                          and Daniel G. A. Smith
                              RHF Reference
                       48 Threads, 238418 MiB Core
         ---------------------------------------------------------

  ==> Geometry <==

    Molecular point group: cs
    Full point group: C3v

    Geometry (in Angstrom), charge = 0, multiplicity = 1:

       Center              X                  Y                   Z               Mass       
    ------------   -----------------  -----------------  -----------------  -----------------
         N            0.000000000000    -0.067483502299     0.000000000000    14.003074004430
         H           -0.469033237393     0.312546472701     0.812389397611     1.007825032230
         H           -0.469033237393     0.312546472701    -0.812389397611     1.007825032230
         H            0.938066474787     0.312546472701     0.000000000000     1.007825032230

  Running in cs symmetry.

  Rotational constants: A =      9.97846  B =      9.97846  C =      6.33611 [cm^-1]
  Rotational constants: A = 299146.83981  B = 299146.83980  C = 189951.86993 [MHz]
  Nuclear repulsion =   11.956698992854601

  Charge       = 0
  Multiplicity = 1
  Electrons    = 10
  Nalpha       = 5
  Nbeta        = 5

  ==> Algorithm <==

  SCF Algorithm Type is OUT_OF_CORE.
  DIIS enabled.
  MOM disabled.
  Fractional occupation disabled.
  Guess Type is SAD.
  Energy threshold   = 1.00e-08
  Density threshold  = 1.00e-08
  Integral threshold = 1.00e-12

  ==> Primary Basis <==

  Basis Set: AUG-CC-PV(D+D)Z
    Blend: AUG-CC-PV(D+D)Z
    Number of shells: 24
    Number of basis function: 50
    Number of Cartesian functions: 52
    Spherical Harmonics?: true
    Max angular momentum: 2

  ==> Integral Setup <==

  ==> DiskJK: Disk-Based J/K Matrices <==

    J tasked:                  Yes
    K tasked:                  Yes
    wK tasked:                  No
    Memory [MiB]:           178813
    Schwarz Cutoff:          1E-12

  Minimum eigenvalue in the overlap matrix is 1.7876008697E-03.
  Reciprocal condition number of the overlap matrix is 2.8836313851E-04.
    Using symmetric orthogonalization.

  ==> Pre-Iterations <==

  SCF Guess: Superposition of Atomic Densities via on-the-fly atomic UHF (no occupation information).


 WARNING: Atomic UHF is not converging! Try casting from a smaller basis or call Rob at CCMST.
   -------------------------
    Irrep   Nso     Nmo    
   -------------------------
     A'        32      32 
     A"        18      18 
   -------------------------
    Total      50      50
   -------------------------

  ==> Iterations <==

                        Total Energy        Delta E     RMS |[F,P]|

   @RHF iter SAD:   -53.97560766898997   -5.39756e+01   0.00000e+00 
   @RHF iter   1:   -55.92074725789174   -1.94514e+00   2.16644e-02 DIIS
   @RHF iter   2:   -56.11114791679756   -1.90401e-01   1.26038e-02 DIIS
   @RHF iter   3:   -56.20458146141542   -9.34335e-02   7.44530e-04 DIIS
   @RHF iter   4:   -56.20533496385963   -7.53502e-04   1.85943e-04 DIIS
   @RHF iter   5:   -56.20539933924520   -6.43754e-05   3.73826e-05 DIIS
   @RHF iter   6:   -56.20540301206539   -3.67282e-06   7.80378e-06 DIIS
   @RHF iter   7:   -56.20540317246833   -1.60403e-07   1.44104e-06 DIIS
   @RHF iter   8:   -56.20540317674106   -4.27273e-09   2.55044e-07 DIIS
   @RHF iter   9:   -56.20540317685833   -1.17268e-10   4.53893e-08 DIIS
   @RHF iter  10:   -56.20540317686201   -3.68772e-12   8.53360e-09 DIIS
  Energy and wave function converged.


  ==> Post-Iterations <==

    Orbital Energies [Eh]
    ---------------------

    Doubly Occupied:                                                      

       1Ap   -15.551575     2Ap    -1.144118     3Ap    -0.628872  
       1App   -0.628872     4Ap    -0.428710  

    Virtual:                                                              

       5Ap     0.035862     6Ap     0.059839     2App    0.059839  
       7Ap     0.150149     8Ap     0.197346     3App    0.201764  
       9Ap     0.201764    10Ap     0.293990     4App    0.293990  
      11Ap     0.339428     5App    0.343719    12Ap     0.343719  
      13Ap     0.473296     6App    0.527182     7App    0.533828  
      14Ap     0.533828    15Ap     0.616151    16Ap     0.639226  
       8App    0.639226     9App    0.711821    17Ap     0.711821  
      18Ap     0.837901    10App    0.917824    19Ap     0.917824  
      20Ap     1.139588    11App    1.218411    21Ap     1.218411  
      22Ap     1.362677    23Ap     1.814014    12App    1.814014  
      13App    1.944866    24Ap     2.065167    14App    2.065167  
      25Ap     2.094438    15App    2.334159    26Ap     2.334159  
      27Ap     2.374369    28Ap     2.413891    16App    2.413891  
      29Ap     2.653376    17App    2.908726    30Ap     2.908726  
      31Ap     3.122766    32Ap     3.529270    18App    3.529270  

    Final Occupation by Irrep:
             Ap   App 
    DOCC [     4,    1 ]

  @RHF Final Energy:   -56.20540317686201

   => Energetics <=

    Nuclear Repulsion Energy =             11.9566989928546015
    One-Electron Energy =                 -99.5599111158975347
    Two-Electron Energy =                  31.3978089461809233
    Total Energy =                        -56.2054031768620135

Computation Completed


Properties will be evaluated at   0.000000,   0.000000,   0.000000 [a0]

Properties computed using the SCF density matrix

  Nuclear Dipole Moment: [e a0]
     X:    -0.0000      Y:     0.8792      Z:     0.0000

  Electronic Dipole Moment: [e a0]
     X:    -0.0000      Y:    -0.2417      Z:     0.0000

  Dipole Moment: [e a0]
     X:    -0.0000      Y:     0.6375      Z:     0.0000     Total:     0.6375

  Dipole Moment: [D]
     X:    -0.0000      Y:     1.6203      Z:     0.0000     Total:     1.6203


*** tstop() called on n412-039.vsc4.prov at Tue Jan 26 18:32:10 2021
Module time:
	user time   =      18.31 seconds =       0.31 minutes
	system time =       1.04 seconds =       0.02 minutes
	total time  =          2 seconds =       0.03 minutes
Total time:
	user time   =      18.31 seconds =       0.31 minutes
	system time =       1.04 seconds =       0.02 minutes
	total time  =          2 seconds =       0.03 minutes

*** tstart() called on n412-039.vsc4.prov
*** at Tue Jan 26 18:32:10 2021


	Wfn Parameters:
	--------------------
	Wavefunction         = CCSD_T
	Number of irreps     = 2
	Number of MOs        = 50
	Number of active MOs = 49
	AO-Basis             = NONE
	Semicanonical        = false
	Reference            = RHF
	Print Level          = 1

	IRREP	# MOs	# FZDC	# DOCC	# SOCC	# VIRT	# FZVR
	-----	-----	------	------	------	------	------
	 Ap	   32	    1	    3	    0	    28	    0
	 App	   18	    0	    1	    0	    17	    0
	Transforming integrals...
	IWL integrals will be deleted.
	(OO|OO)...
	Presorting SO-basis two-electron integrals.
	Sorting File: SO Ints (nn|nn) nbuckets = 1
	Constructing frozen core operators
	Starting first half-transformation.
	Sorting half-transformed integrals.
	First half integral transformation complete.
	Starting second half-transformation.
	Two-electron integral transformation complete.
	(OO|OV)...
	Starting second half-transformation.
	Two-electron integral transformation complete.
	(OO|VV)...
	Starting second half-transformation.
	Two-electron integral transformation complete.
	(OV|OO)...
	Starting first half-transformation.
	Sorting half-transformed integrals.
	First half integral transformation complete.
	Starting second half-transformation.
	Two-electron integral transformation complete.
	(OV|OV)...
	Starting second half-transformation.
	Two-electron integral transformation complete.
	(OV|VV)...
	Starting second half-transformation.
	Two-electron integral transformation complete.
	(VV|OO)...
	Starting first half-transformation.
	Sorting half-transformed integrals.
	First half integral transformation complete.
	Starting second half-transformation.
	Two-electron integral transformation complete.
	(VV|OV)...
	Starting second half-transformation.
	Two-electron integral transformation complete.
	(VV|VV)...
	Starting second half-transformation.
	Two-electron integral transformation complete.
	Frozen core energy     =    -47.86909113142488

	Size of irrep 0 of <ab|cd> integrals:      1.151 (MW) /      9.211 (MB)
	Size of irrep 1 of <ab|cd> integrals:      0.906 (MW) /      7.250 (MB)
	Total:                                     2.058 (MW) /     16.461 (MB)

	Size of irrep 0 of <ia|bc> integrals:      0.108 (MW) /      0.867 (MB)
	Size of irrep 1 of <ia|bc> integrals:      0.075 (MW) /      0.602 (MB)
	Total:                                     0.184 (MW) /      1.469 (MB)

	Size of irrep 0 of tijab amplitudes:       0.011 (MW) /      0.086 (MB)
	Size of irrep 1 of tijab amplitudes:       0.006 (MW) /      0.046 (MB)
	Total:                                     0.016 (MW) /      0.132 (MB)

	Nuclear Rep. energy          =     11.95669899285460
	SCF energy                   =    -56.20540317686201
	One-electron energy          =    -34.92487877554515
	Two-electron energy          =     14.63186773725323
	Reference energy             =    -56.20540317686221

*** tstop() called on n412-039.vsc4.prov at Tue Jan 26 18:32:11 2021
Module time:
	user time   =       0.19 seconds =       0.00 minutes
	system time =       0.17 seconds =       0.00 minutes
	total time  =          1 seconds =       0.02 minutes
Total time:
	user time   =      18.50 seconds =       0.31 minutes
	system time =       1.21 seconds =       0.02 minutes
	total time  =          3 seconds =       0.05 minutes
            **************************
            *                        *
            *        CCENERGY        *
            *                        *
            **************************

    Nuclear Rep. energy (wfn)     =   11.956698992854601
    SCF energy          (wfn)     =  -56.205403176862013
    Reference energy    (file100) =  -56.205403176862205

    Input parameters:
    -----------------
    Wave function   =     CCSD_T
    Reference wfn   =     RHF
    Brueckner       =     No
    Memory (Mbytes) =     250000.0
    Maxiter         =     50
    R_Convergence   =     1.0e-07
    E_Convergence   =     1.0e-06
    Restart         =     Yes
    DIIS            =     Yes
    AO Basis        =     NONE
    ABCD            =     NEW
    Cache Level     =     2
    Cache Type      =     LOW
    Print Level     =     1
    Num. of threads =     48
    # Amps to Print =     10
    Print MP2 Amps? =     No
    Analyze T2 Amps =     No
    Print Pair Ener =     No
    Local CC        =     No
    SCS-MP2         =     False
    SCSN-MP2        =     False
    SCS-CCSD        =     False

MP2 correlation energy -0.1993378499846827
                Solving CC Amplitude Equations
                ------------------------------
  Iter             Energy              RMS        T1Diag      D1Diag    New D1Diag    D2Diag
  ----     ---------------------    ---------   ----------  ----------  ----------   --------
     0        -0.199337849984683    0.000e+00    0.000000    0.000000    0.000000    0.118484
     1        -0.208850781496871    3.623e-02    0.007338    0.016806    0.016806    0.125649
     2        -0.213510447004621    1.213e-02    0.008282    0.019039    0.019039    0.131156
     3        -0.214361486723511    4.290e-03    0.009368    0.022137    0.022137    0.132554
     4        -0.214348217726895    1.104e-03    0.009562    0.022755    0.022755    0.132878
     5        -0.214360188044544    3.745e-04    0.009646    0.023054    0.023054    0.132969
     6        -0.214361032369375    1.134e-04    0.009673    0.023151    0.023151    0.132982
     7        -0.214359613576254    4.187e-05    0.009679    0.023172    0.023172    0.132983
     8        -0.214359431505423    1.797e-05    0.009682    0.023181    0.023181    0.132984
     9        -0.214359394996070    5.963e-06    0.009683    0.023183    0.023183    0.132984
    10        -0.214359297630407    1.994e-06    0.009682    0.023182    0.023182    0.132984
    11        -0.214359366278895    6.372e-07    0.009682    0.023181    0.023181    0.132984
    12        -0.214359380595706    1.656e-07    0.009682    0.023181    0.023181    0.132984
    13        -0.214359386400399    4.678e-08    0.009682    0.023181    0.023181    0.132984

    Iterations converged.


    Largest TIA Amplitudes:
              2   2         0.0171580860
              2   8        -0.0122863377
              1  23         0.0069018994
              3  42         0.0069018992
              2   6         0.0053470670
              2   3        -0.0039236755
              2   0        -0.0037342851
              1  12         0.0035554977
              3  35         0.0035554972
              0   3         0.0035077089

    Largest TIjAb Amplitudes:
      2   2  17  17        -0.0294145470
      1   1   5   5        -0.0242718957
      3   3  30  30        -0.0242718950
      3   3  35  35        -0.0242054558
      1   1  12  12        -0.0242054558
      2   2   8   8        -0.0233787336
      2   2  13  13        -0.0208051103
      1   1   5  12        -0.0200196544
      1   1  12   5        -0.0200196544
      3   3  30  35        -0.0200196543

    SCF energy       (wfn)                    =  -56.205403176862013
    Reference energy (file100)                =  -56.205403176862205

    Opposite-spin MP2 correlation energy      =   -0.153220232354685
    Same-spin MP2 correlation energy          =   -0.046117617629998
    Singles MP2 correlation energy            =   -0.000000000000000
    MP2 correlation energy                    =   -0.199337849984683
      * MP2 total energy                      =  -56.404741026846885

    Opposite-spin CCSD correlation energy     =   -0.172350352148536
    Same-spin CCSD correlation energy         =   -0.042009034251863
    Singles CCSD correlation energy           =    0.000000000000000
    CCSD correlation energy                   =   -0.214359386400399
      * CCSD total energy                     =  -56.419762563262601

            **************************
            *                        *
            *        CCTRIPLES       *
            *                        *
            **************************


    Wave function   =    CCSD_T
    Reference wfn   =      RHF

    Nuclear Rep. energy (wfn)                =   11.956698992854601
    SCF energy          (wfn)                =  -56.205403176862013
    Reference energy    (file100)            =  -56.205403176862205
    CCSD energy         (file100)            =   -0.214359386400399
    Total CCSD energy   (file100)            =  -56.419762563262601

    Number of ijk index combinations:               20
    Memory available in words        :     31250000000
    ~Words needed per explicit thread:           87808
    Number of threads for explicit ijk threading:   48

    (T) energy                                =   -0.005457468710076
      * CCSD(T) total energy                  =  -56.425220031972678


    Psi4 stopped on: Tuesday, 26 January 2021 06:32PM
    Psi4 wall time for execution: 0:00:05.42

*** Psi4 exiting successfully. Buy a developer a beer!
