
    -----------------------------------------------------------------------
          Psi4: An Open-Source Ab Initio Electronic Structure Package
                               Psi4 1.4a3.dev88 

                         Git: Rev {master} 262e345 


    D. G. A. Smith, L. A. Burns, A. C. Simmonett, R. M. Parrish,
    M. C. Schieber, R. Galvelis, P. Kraus, H. Kruse, R. Di Remigio,
    A. Alenaizan, A. M. James, S. Lehtola, J. P. Misiewicz, M. Scheurer,
    R. A. Shaw, J. B. Schriber, Y. Xie, Z. L. Glick, D. A. Sirianni,
    J. S. O'Brien, J. M. Waldrop, A. Kumar, E. G. Hohenstein,
    B. P. Pritchard, B. R. Brooks, H. F. Schaefer III, A. Yu. Sokolov,
    K. Patkowski, A. E. DePrince III, U. Bozkaya, R. A. King,
    F. A. Evangelista, J. M. Turney, T. D. Crawford, C. D. Sherrill,
    J. Chem. Phys. 152(18) 184108 (2020). https://doi.org/10.1063/5.0006002

                            Additional Code Authors
    E. T. Seidl, C. L. Janssen, E. F. Valeev, M. L. Leininger,
    J. F. Gonthier, R. M. Richard, H. R. McAlexander, M. Saitow, X. Wang,
    P. Verma, and M. H. Lechner

             Previous Authors, Complete List of Code Contributors,
                       and Citations for Specific Modules
    https://github.com/psi4/psi4/blob/master/codemeta.json
    https://github.com/psi4/psi4/graphs/contributors
    http://psicode.org/psi4manual/master/introduction.html#citing-psifour

    -----------------------------------------------------------------------


    Psi4 started on: Wednesday, 20 January 2021 09:07PM

    Process ID: 454959
    Host:       l43
    PSIDATADIR: /home/fs71337/gallo4/psi4/psi4/build/stage/share/psi4
    Memory:     500.0 MiB
    Threads:    48
    
  ==> Input File <==

--------------------------------------------------------------------------
# Any line starting with the # character is a comment line
memory 250000 mb
molecule molecule{
0 1
N         -0.0000000000        0.0000000000        0.0674754640
H          0.9380664748        0.0000000000       -0.3125545110
H         -0.4690332374        0.8123893976       -0.3125545110
H         -0.4690332374       -0.8123893976       -0.3125545110
}

set {
  reference rhf
  basis aug-cc-pV(Q+d)Z
  scf_type OUT_OF_CORE
  freeze_core true
}

energy('ccsd(t)')
--------------------------------------------------------------------------

  Memory set to 232.831 GiB by Python driver.

Scratch directory: /tmp/

*** tstart() called on l43
*** at Wed Jan 20 21:07:46 2021

   => Loading Basis Set <=

    Name: AUG-CC-PV(Q+D)Z
    Role: ORBITAL
    Keyword: BASIS
    atoms 1   entry N          line   391 file /home/fs71337/gallo4/psi4/psi4/build/stage/share/psi4/basis/aug-cc-pv_qpd_z.gbs 
    atoms 2-4 entry H          line    68 file /home/fs71337/gallo4/psi4/psi4/build/stage/share/psi4/basis/aug-cc-pv_qpd_z.gbs 


         ---------------------------------------------------------
                                   SCF
               by Justin Turney, Rob Parrish, Andy Simmonett
                          and Daniel G. A. Smith
                              RHF Reference
                       48 Threads, 238418 MiB Core
         ---------------------------------------------------------

  ==> Geometry <==

    Molecular point group: cs
    Full point group: C3v

    Geometry (in Angstrom), charge = 0, multiplicity = 1:

       Center              X                  Y                   Z               Mass       
    ------------   -----------------  -----------------  -----------------  -----------------
         N            0.000000000000    -0.067483502299     0.000000000000    14.003074004430
         H           -0.469033237393     0.312546472701     0.812389397611     1.007825032230
         H           -0.469033237393     0.312546472701    -0.812389397611     1.007825032230
         H            0.938066474787     0.312546472701     0.000000000000     1.007825032230

  Running in cs symmetry.

  Rotational constants: A =      9.97846  B =      9.97846  C =      6.33611 [cm^-1]
  Rotational constants: A = 299146.83981  B = 299146.83980  C = 189951.86993 [MHz]
  Nuclear repulsion =   11.956698992854601

  Charge       = 0
  Multiplicity = 1
  Electrons    = 10
  Nalpha       = 5
  Nbeta        = 5

  ==> Algorithm <==

  SCF Algorithm Type is OUT_OF_CORE.
  DIIS enabled.
  MOM disabled.
  Fractional occupation disabled.
  Guess Type is SAD.
  Energy threshold   = 1.00e-08
  Density threshold  = 1.00e-08
  Integral threshold = 1.00e-12

  ==> Primary Basis <==

  Basis Set: AUG-CC-PV(Q+D)Z
    Blend: AUG-CC-PV(Q+D)Z
    Number of shells: 62
    Number of basis function: 218
    Number of Cartesian functions: 270
    Spherical Harmonics?: true
    Max angular momentum: 4

  ==> Integral Setup <==

  ==> DiskJK: Disk-Based J/K Matrices <==

    J tasked:                  Yes
    K tasked:                  Yes
    wK tasked:                  No
    Memory [MiB]:           178813
    Schwarz Cutoff:          1E-12

  Minimum eigenvalue in the overlap matrix is 4.8467471454E-05.
  Reciprocal condition number of the overlap matrix is 5.5416120854E-06.
    Using symmetric orthogonalization.

  ==> Pre-Iterations <==

  SCF Guess: Superposition of Atomic Densities via on-the-fly atomic UHF (no occupation information).


 WARNING: Atomic UHF is not converging! Try casting from a smaller basis or call Rob at CCMST.

 WARNING: Atomic UHF is not converging! Try casting from a smaller basis or call Rob at CCMST.
   -------------------------
    Irrep   Nso     Nmo    
   -------------------------
     A'       126     126 
     A"        92      92 
   -------------------------
    Total     218     218
   -------------------------

  ==> Iterations <==

                        Total Energy        Delta E     RMS |[F,P]|

   @RHF iter SAD:   -50.43375281718565   -5.04338e+01   0.00000e+00 
   @RHF iter   1:   -55.74540697247505   -5.31165e+00   6.78610e-03 DIIS
   @RHF iter   2:   -56.05021866507270   -3.04812e-01   4.05269e-03 DIIS
   @RHF iter   3:   -56.22203407687481   -1.71815e-01   2.93346e-04 DIIS
   @RHF iter   4:   -56.22369698420045   -1.66291e-03   8.41795e-05 DIIS
   @RHF iter   5:   -56.22395495200379   -2.57968e-04   2.01057e-05 DIIS
   @RHF iter   6:   -56.22396998543751   -1.50334e-05   3.85736e-06 DIIS
   @RHF iter   7:   -56.22397047027029   -4.84833e-07   6.39771e-07 DIIS
   @RHF iter   8:   -56.22397048551588   -1.52456e-08   1.33855e-07 DIIS
   @RHF iter   9:   -56.22397048634140   -8.25523e-10   3.05780e-08 DIIS
   @RHF iter  10:   -56.22397048638859   -4.71942e-11   5.49105e-09 DIIS
  Energy and wave function converged.


  ==> Post-Iterations <==

    Orbital Energies [Eh]
    ---------------------

    Doubly Occupied:                                                      

       1Ap   -15.540123     2Ap    -1.142155     1App   -0.628933  
       3Ap    -0.628933     4Ap    -0.429539  

    Virtual:                                                              

       5Ap     0.026575     2App    0.043752     6Ap     0.043752  
       7Ap     0.097728     8Ap     0.132252     9Ap     0.139406  
       3App    0.139406     4App    0.183794    10Ap     0.183794  
      11Ap     0.188674     5App    0.188674    12Ap     0.209773  
       6App    0.283736    13Ap     0.293066    14Ap     0.297733  
       7App    0.297733    15Ap     0.354691    16Ap     0.382462  
       8App    0.382462     9App    0.389731    17Ap     0.389731  
      18Ap     0.422486    10App    0.474173    19Ap     0.474173  
      11App    0.558868    20Ap     0.558868    21Ap     0.559640  
      22Ap     0.594666    12App    0.682840    23Ap     0.682840  
      24Ap     0.698653    13App    0.701381    14App    0.717811  
      25Ap     0.717811    15App    0.751008    16App    0.780655  
      26Ap     0.780655    27Ap     0.782560    28Ap     0.830570  
      17App    0.830570    29Ap     0.851131    18App    0.857369  
      30Ap     0.857369    31Ap     0.872470    19App    0.872470  
      32Ap     0.978850    33Ap     1.015425    20App    1.015425  
      34Ap     1.134138    35Ap     1.222698    21App    1.222698  
      36Ap     1.354750    22App    1.355354    37Ap     1.355354  
      38Ap     1.372647    23App    1.375727    39Ap     1.450697  
      24App    1.450697    25App    1.518078    26App    1.537517  
      40Ap     1.537517    41Ap     1.576636    42Ap     1.603062  
      27App    1.660583    43Ap     1.660583    28App    1.698357  
      44Ap     1.698357    45Ap     1.733107    46Ap     1.749477  
      29App    1.749477    47Ap     1.815506    30App    1.828646  
      48Ap     1.828646    31App    1.850884    32App    1.897317  
      49Ap     1.897317    50Ap     1.986850    33App    1.986850  
      34App    2.019129    51Ap     2.019129    52Ap     2.036383  
      35App    2.060452    53Ap     2.099759    54Ap     2.113833  
      36App    2.113833    55Ap     2.198463    37App    2.271091  
      56Ap     2.271091    38App    2.284343    57Ap     2.411245  
      39App    2.411245    58Ap     2.778203    40App    2.896458  
      59Ap     2.896458    60Ap     2.925759    41App    2.936696  
      61Ap     2.936696    42App    2.940793    43App    3.001559  
      62Ap     3.001559    63Ap     3.036386    44App    3.036386  
      64Ap     3.066383    45App    3.111006    65Ap     3.140698  
      46App    3.196041    66Ap     3.196041    67Ap     3.267651  
      47App    3.267651    68Ap     3.403649    48App    3.403649  
      69Ap     3.466630    49App    3.542477    70Ap     3.542477  
      71Ap     3.609291    50App    3.710149    72Ap     3.898660  
      51App    3.914150    73Ap     3.914150    74Ap     4.142119  
      52App    4.142119    75Ap     4.152663    53App    4.182710  
      76Ap     4.182710    54App    4.220228    77Ap     4.229017  
      78Ap     4.299932    55App    4.378367    79Ap     4.378367  
      56App    4.717806    80Ap     4.717806    81Ap     4.960132  
      57App    4.960132    82Ap     5.073641    58App    5.185983  
      83Ap     5.185983    59App    5.347906    84Ap     5.347906  
      60App    5.461645    85Ap     5.643860    61App    6.829192  
      86Ap     6.829192    62App    6.895979    63App    6.933154  
      87Ap     6.933154    88Ap     7.015556    64App    7.380414  
      65App    7.407655    89Ap     7.407655    66App    7.425604  
      90Ap     7.425604    91Ap     7.600086    67App    7.680467  
      68App    7.709266    92Ap     7.709266    93Ap     7.865542  
      69App    7.865542    94Ap     7.944494    70App    7.944494  
      95Ap     7.976090    96Ap     8.206674    71App    8.320315  
      97Ap     8.320315    98Ap     8.341097    99Ap     8.518702  
      72App    8.575691   100Ap     8.575691    73App    8.658993  
     101Ap     8.658993   102Ap     8.870846    74App    8.898961  
     103Ap     8.898961   104Ap     8.945429    75App    8.992252  
      76App    8.997015   105Ap     8.997015    77App    9.003594  
     106Ap     9.210162    78App    9.295564   107Ap     9.295564  
     108Ap     9.436163    79App    9.436163   109Ap     9.507252  
      80App    9.507252   110Ap     9.566159    81App    9.773746  
     111Ap     9.805872    82App    9.924209   112Ap     9.924209  
      83App   10.110569   113Ap    10.110569   114Ap    10.125289  
     115Ap    10.287263    84App   10.287263    85App   10.549758  
     116Ap    10.549758   117Ap    10.789617    86App   10.860541  
      87App   10.988240   118Ap    10.988240   119Ap    11.724164  
     120Ap    12.196537    88App   12.196537   121Ap    12.261354  
      89App   12.354165   122Ap    12.354165    90App   13.051410  
      91App   13.114459   123Ap    13.114459   124Ap    14.705723  
      92App   15.044796   125Ap    15.044796   126Ap    36.633529  

    Final Occupation by Irrep:
             Ap   App 
    DOCC [     4,    1 ]

  @RHF Final Energy:   -56.22397048638859

   => Energetics <=

    Nuclear Repulsion Energy =             11.9566989928546015
    One-Electron Energy =                 -99.6219739986230337
    Two-Electron Energy =                  31.4413045193798375
    Total Energy =                        -56.2239704863885947

Computation Completed


Properties will be evaluated at   0.000000,   0.000000,   0.000000 [a0]

Properties computed using the SCF density matrix

  Nuclear Dipole Moment: [e a0]
     X:    -0.0000      Y:     0.8792      Z:     0.0000

  Electronic Dipole Moment: [e a0]
     X:     0.0000      Y:    -0.2448      Z:     0.0000

  Dipole Moment: [e a0]
     X:     0.0000      Y:     0.6344      Z:     0.0000     Total:     0.6344

  Dipole Moment: [D]
     X:     0.0000      Y:     1.6125      Z:     0.0000     Total:     1.6125


*** tstop() called on l43 at Wed Jan 20 21:08:51 2021
Module time:
	user time   =      59.80 seconds =       1.00 minutes
	system time =      12.85 seconds =       0.21 minutes
	total time  =         65 seconds =       1.08 minutes
Total time:
	user time   =      59.80 seconds =       1.00 minutes
	system time =      12.85 seconds =       0.21 minutes
	total time  =         65 seconds =       1.08 minutes

*** tstart() called on l43
*** at Wed Jan 20 21:08:51 2021


	Wfn Parameters:
	--------------------
	Wavefunction         = CCSD_T
	Number of irreps     = 2
	Number of MOs        = 218
	Number of active MOs = 217
	AO-Basis             = NONE
	Semicanonical        = false
	Reference            = RHF
	Print Level          = 1

	IRREP	# MOs	# FZDC	# DOCC	# SOCC	# VIRT	# FZVR
	-----	-----	------	------	------	------	------
	 Ap	   126	    1	    3	    0	    122	    0
	 App	   92	    0	    1	    0	    91	    0
	Transforming integrals...
	IWL integrals will be deleted.
	(OO|OO)...
	Presorting SO-basis two-electron integrals.
	Sorting File: SO Ints (nn|nn) nbuckets = 1
	Constructing frozen core operators
	Starting first half-transformation.
	Sorting half-transformed integrals.
	First half integral transformation complete.
	Starting second half-transformation.
	Two-electron integral transformation complete.
	(OO|OV)...
	Starting second half-transformation.
	Two-electron integral transformation complete.
	(OO|VV)...
	Starting second half-transformation.
	Two-electron integral transformation complete.
	(OV|OO)...
	Starting first half-transformation.
	Sorting half-transformed integrals.
	First half integral transformation complete.
	Starting second half-transformation.
	Two-electron integral transformation complete.
	(OV|OV)...
	Starting second half-transformation.
	Two-electron integral transformation complete.
	(OV|VV)...
	Starting second half-transformation.
	Two-electron integral transformation complete.
	(VV|OO)...
	Starting first half-transformation.
	Sorting half-transformed integrals.
	First half integral transformation complete.
	Starting second half-transformation.
	Two-electron integral transformation complete.
	(VV|OV)...
	Starting second half-transformation.
	Two-electron integral transformation complete.
	(VV|VV)...
	Starting second half-transformation.
	Two-electron integral transformation complete.
	Frozen core energy     =    -47.87035458600983

	Size of irrep 0 of <ab|cd> integrals:    536.617 (MW) /   4292.938 (MB)
	Size of irrep 1 of <ab|cd> integrals:    493.018 (MW) /   3944.141 (MB)
	Total:                                  1029.635 (MW) /   8237.079 (MB)

	Size of irrep 0 of <ia|bc> integrals:     10.586 (MW) /     84.691 (MB)
	Size of irrep 1 of <ia|bc> integrals:      8.771 (MW) /     70.165 (MB)
	Total:                                    19.357 (MW) /    154.856 (MB)

	Size of irrep 0 of tijab amplitudes:       0.232 (MW) /      1.853 (MB)
	Size of irrep 1 of tijab amplitudes:       0.133 (MW) /      1.066 (MB)
	Total:                                     0.365 (MW) /      2.919 (MB)

	Nuclear Rep. energy          =     11.95669899285460
	SCF energy                   =    -56.22397048638859
	One-electron energy          =    -34.96151165951346
	Two-electron energy          =     14.65119676627969
	Reference energy             =    -56.22397048638899

*** tstop() called on l43 at Wed Jan 20 21:10:34 2021
Module time:
	user time   =      62.99 seconds =       1.05 minutes
	system time =      39.54 seconds =       0.66 minutes
	total time  =        103 seconds =       1.72 minutes
Total time:
	user time   =     122.79 seconds =       2.05 minutes
	system time =      52.39 seconds =       0.87 minutes
	total time  =        168 seconds =       2.80 minutes
            **************************
            *                        *
            *        CCENERGY        *
            *                        *
            **************************

    Nuclear Rep. energy (wfn)     =   11.956698992854601
    SCF energy          (wfn)     =  -56.223970486388595
    Reference energy    (file100) =  -56.223970486388993

    Input parameters:
    -----------------
    Wave function   =     CCSD_T
    Reference wfn   =     RHF
    Brueckner       =     No
    Memory (Mbytes) =     250000.0
    Maxiter         =     50
    R_Convergence   =     1.0e-07
    E_Convergence   =     1.0e-06
    Restart         =     Yes
    DIIS            =     Yes
    AO Basis        =     NONE
    ABCD            =     NEW
    Cache Level     =     2
    Cache Type      =     LOW
    Print Level     =     1
    Num. of threads =     48
    # Amps to Print =     10
    Print MP2 Amps? =     No
    Analyze T2 Amps =     No
    Print Pair Ener =     No
    Local CC        =     No
    SCS-MP2         =     False
    SCSN-MP2        =     False
    SCS-CCSD        =     False

MP2 correlation energy -0.2537955923711486
                Solving CC Amplitude Equations
                ------------------------------
  Iter             Energy              RMS        T1Diag      D1Diag    New D1Diag    D2Diag
  ----     ---------------------    ---------   ----------  ----------  ----------   --------
     0        -0.253795592371149    0.000e+00    0.000000    0.000000    0.000000    0.124035
     1        -0.256781470022572    3.418e-02    0.006761    0.012630    0.012630    0.127285
     2        -0.261965588161473    1.166e-02    0.006944    0.013567    0.013567    0.132012
     3        -0.262821922923465    4.132e-03    0.007832    0.015969    0.015969    0.133406
     4        -0.262782352203841    1.034e-03    0.007975    0.016386    0.016386    0.133654
     5        -0.262802563484465    4.073e-04    0.008053    0.016682    0.016682    0.133747
     6        -0.262806304375524    1.100e-04    0.008080    0.016768    0.016768    0.133761
     7        -0.262804385800769    4.045e-05    0.008086    0.016790    0.016790    0.133762
     8        -0.262804102405697    1.622e-05    0.008089    0.016799    0.016799    0.133762
     9        -0.262804239207032    6.031e-06    0.008089    0.016801    0.016801    0.133763
    10        -0.262804028150051    2.312e-06    0.008089    0.016800    0.016800    0.133763
    11        -0.262804099977705    8.271e-07    0.008089    0.016800    0.016800    0.133763
    12        -0.262804093497832    2.478e-07    0.008089    0.016800    0.016800    0.133763
    13        -0.262804096670895    6.990e-08    0.008089    0.016800    0.016800    0.133763

    Iterations converged.


    Largest TIA Amplitudes:
              2   2        -0.0091361381
              2   8        -0.0073773575
              2   7        -0.0069705760
              3 146         0.0045459246
              1  35         0.0045459245
              3 136         0.0040671298
              1  21         0.0040671296
              2  16         0.0039233388
              2  27         0.0034894514
              2  53         0.0033991801

    Largest TIjAb Amplitudes:
      1   1  12  12        -0.0167965376
      3   3 129 129        -0.0167965283
      3   3 136 136        -0.0130081380
      1   1  21  21        -0.0130081112
      2   2  33  33        -0.0125153878
      2   2   8   8        -0.0124023011
      2   2  19  19        -0.0123831714
      2   2   8  19         0.0117456635
      2   2  19   8         0.0117456635
      2   2  27  27        -0.0116671113

    SCF energy       (wfn)                    =  -56.223970486388595
    Reference energy (file100)                =  -56.223970486388993

    Opposite-spin MP2 correlation energy      =   -0.199223125564524
    Same-spin MP2 correlation energy          =   -0.054572466806625
    Singles MP2 correlation energy            =   -0.000000000000000
    MP2 correlation energy                    =   -0.253795592371149
      * MP2 total energy                      =  -56.477766078760141

    Opposite-spin CCSD correlation energy     =   -0.213133211105450
    Same-spin CCSD correlation energy         =   -0.049670885565457
    Singles CCSD correlation energy           =    0.000000000000000
    CCSD correlation energy                   =   -0.262804096670895
      * CCSD total energy                     =  -56.486774583059891

            **************************
            *                        *
            *        CCTRIPLES       *
            *                        *
            **************************


    Wave function   =    CCSD_T
    Reference wfn   =      RHF

    Nuclear Rep. energy (wfn)                =   11.956698992854601
    SCF energy          (wfn)                =  -56.223970486388595
    Reference energy    (file100)            =  -56.223970486388993
    CCSD energy         (file100)            =   -0.262804096670895
    Total CCSD energy   (file100)            =  -56.486774583059891

    Number of ijk index combinations:               20
    Memory available in words        :     31250000000
    ~Words needed per explicit thread:         7263392
    Number of threads for explicit ijk threading:   48

    (T) energy                                =   -0.008954981636679
      * CCSD(T) total energy                  =  -56.495729564696568


    Psi4 stopped on: Wednesday, 20 January 2021 09:11PM
    Psi4 wall time for execution: 0:03:44.68

*** Psi4 exiting successfully. Buy a developer a beer!
