
    -----------------------------------------------------------------------
          Psi4: An Open-Source Ab Initio Electronic Structure Package
                               Psi4 1.4a3.dev88 

                         Git: Rev {master} 262e345 


    D. G. A. Smith, L. A. Burns, A. C. Simmonett, R. M. Parrish,
    M. C. Schieber, R. Galvelis, P. Kraus, H. Kruse, R. Di Remigio,
    A. Alenaizan, A. M. James, S. Lehtola, J. P. Misiewicz, M. Scheurer,
    R. A. Shaw, J. B. Schriber, Y. Xie, Z. L. Glick, D. A. Sirianni,
    J. S. O'Brien, J. M. Waldrop, A. Kumar, E. G. Hohenstein,
    B. P. Pritchard, B. R. Brooks, H. F. Schaefer III, A. Yu. Sokolov,
    K. Patkowski, A. E. DePrince III, U. Bozkaya, R. A. King,
    F. A. Evangelista, J. M. Turney, T. D. Crawford, C. D. Sherrill,
    J. Chem. Phys. 152(18) 184108 (2020). https://doi.org/10.1063/5.0006002

                            Additional Code Authors
    E. T. Seidl, C. L. Janssen, E. F. Valeev, M. L. Leininger,
    J. F. Gonthier, R. M. Richard, H. R. McAlexander, M. Saitow, X. Wang,
    P. Verma, and M. H. Lechner

             Previous Authors, Complete List of Code Contributors,
                       and Citations for Specific Modules
    https://github.com/psi4/psi4/blob/master/codemeta.json
    https://github.com/psi4/psi4/graphs/contributors
    http://psicode.org/psi4manual/master/introduction.html#citing-psifour

    -----------------------------------------------------------------------


    Psi4 started on: Tuesday, 26 January 2021 06:13PM

    Process ID: 398447
    Host:       n412-039.vsc4.prov
    PSIDATADIR: /home/fs71337/gallo4/psi4/eri-6/psi4/build/stage/share/psi4
    Memory:     500.0 MiB
    Threads:    48
    
  ==> Input File <==

--------------------------------------------------------------------------
# Any line starting with the # character is a comment line
memory 250000 mb
molecule molecule{
-1 2
O          0.0000000000        0.0000000000        0.0000000000
}

set {
  reference uhf
  basis aug-cc-pV(d+d)Z
  scf_type OUT_OF_CORE
  freeze_core true
}

energy('ccsd(t)')
--------------------------------------------------------------------------

  Memory set to 232.831 GiB by Python driver.

Scratch directory: /binfl/lv71337/airmler/temp/

*** tstart() called on n412-039.vsc4.prov
*** at Tue Jan 26 18:13:31 2021

   => Loading Basis Set <=

    Name: AUG-CC-PV(D+D)Z
    Role: ORBITAL
    Keyword: BASIS
    atoms 1 entry O          line   282 file /home/fs71337/gallo4/psi4/eri-6/psi4/build/stage/share/psi4/basis/aug-cc-pv_dpd_z.gbs 


         ---------------------------------------------------------
                                   SCF
               by Justin Turney, Rob Parrish, Andy Simmonett
                          and Daniel G. A. Smith
                              UHF Reference
                       48 Threads, 238418 MiB Core
         ---------------------------------------------------------

  ==> Geometry <==

    Molecular point group: d2h
    Geometry (in Angstrom), charge = -1, multiplicity = 2:

       Center              X                  Y                   Z               Mass       
    ------------   -----------------  -----------------  -----------------  -----------------
         O            0.000000000000     0.000000000000     0.000000000000    15.994914619570

  Running in d2h symmetry.

  Rotational constants: A = ************  B = ************  C = ************ [cm^-1]
  Rotational constants: A = ************  B = ************  C = ************ [MHz]
  Nuclear repulsion =    0.000000000000000

  Charge       = -1
  Multiplicity = 2
  Electrons    = 9
  Nalpha       = 5
  Nbeta        = 4

  ==> Algorithm <==

  SCF Algorithm Type is OUT_OF_CORE.
  DIIS enabled.
  MOM disabled.
  Fractional occupation disabled.
  Guess Type is CORE.
  Energy threshold   = 1.00e-08
  Density threshold  = 1.00e-08
  Integral threshold = 1.00e-12

  ==> Primary Basis <==

  Basis Set: AUG-CC-PV(D+D)Z
    Blend: AUG-CC-PV(D+D)Z
    Number of shells: 9
    Number of basis function: 23
    Number of Cartesian functions: 25
    Spherical Harmonics?: true
    Max angular momentum: 2

  ==> Integral Setup <==

  ==> DiskJK: Disk-Based J/K Matrices <==

    J tasked:                  Yes
    K tasked:                  Yes
    wK tasked:                  No
    Memory [MiB]:           178813
    Schwarz Cutoff:          1E-12

  Minimum eigenvalue in the overlap matrix is 9.3337677806E-02.
  Reciprocal condition number of the overlap matrix is 4.2180797029E-02.
    Using symmetric orthogonalization.

  ==> Pre-Iterations <==

  SCF Guess: Core (One-Electron) Hamiltonian.

   -------------------------------------------------------
    Irrep   Nso     Nmo     Nalpha   Nbeta   Ndocc  Nsocc
   -------------------------------------------------------
     Ag         8       8       2       2       2       0
     B1g        2       2       0       0       0       0
     B2g        2       2       0       0       0       0
     B3g        2       2       0       0       0       0
     Au         0       0       0       0       0       0
     B1u        3       3       1       1       1       0
     B2u        3       3       1       1       1       0
     B3u        3       3       1       0       0       1
   -------------------------------------------------------
    Total      23      23       5       4       4       1
   -------------------------------------------------------

  ==> Iterations <==

                        Total Energy        Delta E     RMS |[F,P]|

    Occupation by irrep:
             Ag   B1g   B2g   B3g    Au   B1u   B2u   B3u 
    DOCC [     2,    0,    0,    0,    0,    1,    0,    1 ]
    SOCC [     0,    0,    0,    0,    0,    0,    1,    0 ]

   @UHF iter   1:   -70.21744635093940   -7.02174e+01   2.25880e-01 DIIS
    Occupation by irrep:
             Ag   B1g   B2g   B3g    Au   B1u   B2u   B3u 
    DOCC [     2,    0,    0,    0,    0,    1,    1,    0 ]
    SOCC [     0,    0,    0,    0,    0,    0,    0,    1 ]

   @UHF iter   2:   -68.68912996427082    1.52832e+00   1.98314e-01 DIIS
   @UHF iter   3:   -74.22240648328750   -5.53328e+00   1.08550e-01 DIIS
   @UHF iter   4:   -74.70026395978931   -4.77857e-01   3.61663e-02 DIIS
   @UHF iter   5:   -74.77580913445323   -7.55452e-02   4.17324e-03 DIIS
   @UHF iter   6:   -74.77670263748868   -8.93503e-04   3.02671e-03 DIIS
   @UHF iter   7:   -74.77718188996313   -4.79252e-04   8.30360e-04 DIIS
   @UHF iter   8:   -74.77731983626028   -1.37946e-04   3.71351e-04 DIIS
   @UHF iter   9:   -74.77737156868849   -5.17324e-05   9.20335e-05 DIIS
   @UHF iter  10:   -74.77737342784351   -1.85916e-06   6.33838e-05 DIIS
   @UHF iter  11:   -74.77737379642251   -3.68579e-07   1.34329e-05 DIIS
   @UHF iter  12:   -74.77737382062359   -2.42011e-08   4.33380e-06 DIIS
   @UHF iter  13:   -74.77737382789708   -7.27348e-09   1.01618e-06 DIIS
   @UHF iter  14:   -74.77737382798584   -8.87610e-11   5.90453e-08 DIIS
   @UHF iter  15:   -74.77737382798648   -6.39488e-13   1.82321e-08 DIIS
   @UHF iter  16:   -74.77737382798655   -7.10543e-14   4.97104e-09 DIIS
  Energy and wave function converged.


  ==> Post-Iterations <==

   @Spin Contamination Metric:   1.857381675E-02
   @S^2 Expected:                7.500000000E-01
   @S^2 Observed:                7.685738167E-01
   @S   Expected:                5.000000000E-01
   @S   Observed:                5.000000000E-01

    Orbital Energies [Eh]
    ---------------------

    Alpha Occupied:                                                       

       1Ag   -20.236740     2Ag    -0.911338     1B3u   -0.235136  
       1B2u   -0.143642     1B1u   -0.143642  

    Alpha Virtual:                                                        

       2B3u    0.418979     2B2u    0.437878     2B1u    0.437878  
       3Ag     0.452796     4Ag     1.285941     1B2g    1.295724  
       1B1g    1.295724     1B3g    1.325468     5Ag     1.325468  
       3B3u    1.645972     3B2u    1.706184     3B1u    1.706184  
       6Ag     2.132584     7Ag     3.864164     2B1g    3.882099  
       2B2g    3.882099     2B3g    3.939012     8Ag     3.939012  

    Beta Occupied:                                                        

       1Ag   -20.195301     2Ag    -0.733121     1B2u   -0.079050  
       1B1u   -0.079050  

    Beta Virtual:                                                         

       1B3u    0.354847     2B2u    0.447764     2B1u    0.447764  
       3Ag     0.460243     2B3u    0.600601     1B3g    1.323841  
       4Ag     1.323841     1B2g    1.335421     1B1g    1.335421  
       5Ag     1.340264     3B2u    1.740300     3B1u    1.740300  
       3B3u    1.825221     6Ag     2.184005     2B3g    3.966263  
       7Ag     3.966263     2B2g    3.982946     2B1g    3.982946  
       8Ag     3.989331  

    Final Occupation by Irrep:
             Ag   B1g   B2g   B3g    Au   B1u   B2u   B3u 
    DOCC [     2,    0,    0,    0,    0,    1,    1,    0 ]
    SOCC [     0,    0,    0,    0,    0,    0,    0,    1 ]

  @UHF Final Energy:   -74.77737382798655

   => Energetics <=

    Nuclear Repulsion Energy =              0.0000000000000000
    One-Electron Energy =                -106.7977283136307278
    Two-Electron Energy =                  32.0203544856441766
    Total Energy =                        -74.7773738279865512

  UHF NO Occupations:
  HONO-2 :    1B1u 1.9962840
  HONO-1 :    1B2u 1.9962840
  HONO-0 :    1B3u 1.0000000
  LUNO+0 :    2B2u 0.0037160
  LUNO+1 :    2B1u 0.0037160
  LUNO+2 :    3 Ag 0.0018700
  LUNO+3 :    4 Ag 0.0000004


Computation Completed


Properties will be evaluated at   0.000000,   0.000000,   0.000000 [a0]

Properties computed using the SCF density matrix

  Nuclear Dipole Moment: [e a0]
     X:     0.0000      Y:     0.0000      Z:     0.0000

  Electronic Dipole Moment: [e a0]
     X:     0.0000      Y:     0.0000      Z:     0.0000

  Dipole Moment: [e a0]
     X:     0.0000      Y:     0.0000      Z:     0.0000     Total:     0.0000

  Dipole Moment: [D]
     X:     0.0000      Y:     0.0000      Z:     0.0000     Total:     0.0000


*** tstop() called on n412-039.vsc4.prov at Tue Jan 26 18:13:31 2021
Module time:
	user time   =       6.72 seconds =       0.11 minutes
	system time =       0.22 seconds =       0.00 minutes
	total time  =          0 seconds =       0.00 minutes
Total time:
	user time   =       6.72 seconds =       0.11 minutes
	system time =       0.22 seconds =       0.00 minutes
	total time  =          0 seconds =       0.00 minutes

*** tstart() called on n412-039.vsc4.prov
*** at Tue Jan 26 18:13:31 2021


	Wfn Parameters:
	--------------------
	Wavefunction         = CCSD_T
	Number of irreps     = 8
	Number of MOs        = 23
	Number of active MOs = 22
	AO-Basis             = NONE
	Semicanonical        = false
	Reference            = UHF
	Print Level          = 1

	IRREP	# MOs	# FZDC	# DOCC	# SOCC	# VIRT	# FZVR
	-----	-----	------	------	------	------	------
	 Ag	   8	    1	    1	    0	    6	    0
	 B1g	   2	    0	    0	    0	    2	    0
	 B2g	   2	    0	    0	    0	    2	    0
	 B3g	   2	    0	    0	    0	    2	    0
	 Au	   0	    0	    0	    0	    0	    0
	 B1u	   3	    0	    1	    0	    2	    0
	 B2u	   3	    0	    1	    0	    2	    0
	 B3u	   3	    0	    0	    1	    2	    0
	Transforming integrals...
	IWL integrals will be deleted.
	(OO|OO)...
	Presorting SO-basis two-electron integrals.
	Sorting File: SO Ints (nn|nn) nbuckets = 1
	Constructing frozen core operators
	Starting AA/AB first half-transformation.
	Sorting AA/AB half-transformed integrals.
	Starting BB first half-transformation.
	Sorting BB half-transformed integrals.
	First half integral transformation complete.
	Starting AA second half-transformation.
	Starting AB second half-transformation.
	Starting BB second half-transformation.
	Two-electron integral transformation complete.
	(OO|OV)...
	Starting AA second half-transformation.
	Starting AB second half-transformation.
	Starting BB second half-transformation.
	Two-electron integral transformation complete.
	(OO|VV)...
	Starting AA second half-transformation.
	Starting AB second half-transformation.
	Starting BB second half-transformation.
	Two-electron integral transformation complete.
	(OV|OO)...
	Starting AA/AB first half-transformation.
	Sorting AA/AB half-transformed integrals.
	Starting BB first half-transformation.
	Sorting BB half-transformed integrals.
	First half integral transformation complete.
	Starting AA second half-transformation.
	Starting AB second half-transformation.
	Starting BB second half-transformation.
	Two-electron integral transformation complete.
	(OV|OV)...
	Starting AA second half-transformation.
	Starting AB second half-transformation.
	Starting BB second half-transformation.
	Two-electron integral transformation complete.
	(OV|VV)...
	Starting AA second half-transformation.
	Starting AB second half-transformation.
	Starting BB second half-transformation.
	Two-electron integral transformation complete.
	(VV|OO)...
	Starting AA/AB first half-transformation.
	Sorting AA/AB half-transformed integrals.
	Starting BB first half-transformation.
	Sorting BB half-transformed integrals.
	First half integral transformation complete.
	Starting AA second half-transformation.
	Starting AB second half-transformation.
	Starting BB second half-transformation.
	Two-electron integral transformation complete.
	(VV|OV)...
	Starting AA second half-transformation.
	Starting AB second half-transformation.
	Starting BB second half-transformation.
	Two-electron integral transformation complete.
	(VV|VV)...
	Starting AA second half-transformation.
	Starting AB second half-transformation.
	Starting BB second half-transformation.
	Two-electron integral transformation complete.
	Frozen core energy     =    -59.10525267292677

	Size of irrep 0 of <AB|CD> integrals:      0.000 (MW) /      0.004 (MB)
	Size of irrep 1 of <AB|CD> integrals:      0.000 (MW) /      0.003 (MB)
	Size of irrep 2 of <AB|CD> integrals:      0.000 (MW) /      0.003 (MB)
	Size of irrep 3 of <AB|CD> integrals:      0.000 (MW) /      0.003 (MB)
	Size of irrep 4 of <AB|CD> integrals:      0.000 (MW) /      0.001 (MB)
	Size of irrep 5 of <AB|CD> integrals:      0.000 (MW) /      0.003 (MB)
	Size of irrep 6 of <AB|CD> integrals:      0.000 (MW) /      0.003 (MB)
	Size of irrep 7 of <AB|CD> integrals:      0.000 (MW) /      0.003 (MB)
	Total:                                     0.003 (MW) /      0.024 (MB)

	Size of irrep 0 of <ab|cd> integrals:      0.001 (MW) /      0.004 (MB)
	Size of irrep 1 of <ab|cd> integrals:      0.000 (MW) /      0.004 (MB)
	Size of irrep 2 of <ab|cd> integrals:      0.000 (MW) /      0.004 (MB)
	Size of irrep 3 of <ab|cd> integrals:      0.000 (MW) /      0.003 (MB)
	Size of irrep 4 of <ab|cd> integrals:      0.000 (MW) /      0.002 (MB)
	Size of irrep 5 of <ab|cd> integrals:      0.000 (MW) /      0.004 (MB)
	Size of irrep 6 of <ab|cd> integrals:      0.000 (MW) /      0.004 (MB)
	Size of irrep 7 of <ab|cd> integrals:      0.001 (MW) /      0.005 (MB)
	Total:                                     0.004 (MW) /      0.030 (MB)

	Size of irrep 0 of <Ab|Cd> integrals:      0.004 (MW) /      0.031 (MB)
	Size of irrep 1 of <Ab|Cd> integrals:      0.002 (MW) /      0.014 (MB)
	Size of irrep 2 of <Ab|Cd> integrals:      0.002 (MW) /      0.014 (MB)
	Size of irrep 3 of <Ab|Cd> integrals:      0.002 (MW) /      0.013 (MB)
	Size of irrep 4 of <Ab|Cd> integrals:      0.001 (MW) /      0.005 (MB)
	Size of irrep 5 of <Ab|Cd> integrals:      0.002 (MW) /      0.014 (MB)
	Size of irrep 6 of <Ab|Cd> integrals:      0.002 (MW) /      0.014 (MB)
	Size of irrep 7 of <Ab|Cd> integrals:      0.002 (MW) /      0.017 (MB)
	Total:                                     0.015 (MW) /      0.122 (MB)

	Size of irrep 0 of <IA|BC> integrals:      0.001 (MW) /      0.006 (MB)
	Size of irrep 1 of <IA|BC> integrals:      0.000 (MW) /      0.002 (MB)
	Size of irrep 2 of <IA|BC> integrals:      0.000 (MW) /      0.002 (MB)
	Size of irrep 3 of <IA|BC> integrals:      0.000 (MW) /      0.002 (MB)
	Size of irrep 4 of <IA|BC> integrals:      0.000 (MW) /      0.001 (MB)
	Size of irrep 5 of <IA|BC> integrals:      0.000 (MW) /      0.004 (MB)
	Size of irrep 6 of <IA|BC> integrals:      0.000 (MW) /      0.004 (MB)
	Size of irrep 7 of <IA|BC> integrals:      0.000 (MW) /      0.004 (MB)
	Total:                                     0.003 (MW) /      0.024 (MB)

	Size of irrep 0 of <ia|bc> integrals:      0.001 (MW) /      0.005 (MB)
	Size of irrep 1 of <ia|bc> integrals:      0.000 (MW) /      0.002 (MB)
	Size of irrep 2 of <ia|bc> integrals:      0.000 (MW) /      0.002 (MB)
	Size of irrep 3 of <ia|bc> integrals:      0.000 (MW) /      0.002 (MB)
	Size of irrep 4 of <ia|bc> integrals:      0.000 (MW) /      0.001 (MB)
	Size of irrep 5 of <ia|bc> integrals:      0.000 (MW) /      0.004 (MB)
	Size of irrep 6 of <ia|bc> integrals:      0.000 (MW) /      0.004 (MB)
	Size of irrep 7 of <ia|bc> integrals:      0.000 (MW) /      0.003 (MB)
	Total:                                     0.003 (MW) /      0.021 (MB)

	Size of irrep 0 of <Ia|Bc> integrals:      0.001 (MW) /      0.006 (MB)
	Size of irrep 1 of <Ia|Bc> integrals:      0.000 (MW) /      0.002 (MB)
	Size of irrep 2 of <Ia|Bc> integrals:      0.000 (MW) /      0.002 (MB)
	Size of irrep 3 of <Ia|Bc> integrals:      0.000 (MW) /      0.002 (MB)
	Size of irrep 4 of <Ia|Bc> integrals:      0.000 (MW) /      0.001 (MB)
	Size of irrep 5 of <Ia|Bc> integrals:      0.001 (MW) /      0.004 (MB)
	Size of irrep 6 of <Ia|Bc> integrals:      0.001 (MW) /      0.004 (MB)
	Size of irrep 7 of <Ia|Bc> integrals:      0.001 (MW) /      0.005 (MB)
	Total:                                     0.003 (MW) /      0.027 (MB)

	Size of irrep 0 of <iA|bC> integrals:      0.001 (MW) /      0.005 (MB)
	Size of irrep 1 of <iA|bC> integrals:      0.000 (MW) /      0.001 (MB)
	Size of irrep 2 of <iA|bC> integrals:      0.000 (MW) /      0.001 (MB)
	Size of irrep 3 of <iA|bC> integrals:      0.000 (MW) /      0.002 (MB)
	Size of irrep 4 of <iA|bC> integrals:      0.000 (MW) /      0.001 (MB)
	Size of irrep 5 of <iA|bC> integrals:      0.000 (MW) /      0.003 (MB)
	Size of irrep 6 of <iA|bC> integrals:      0.000 (MW) /      0.003 (MB)
	Size of irrep 7 of <iA|bC> integrals:      0.000 (MW) /      0.002 (MB)
	Total:                                     0.002 (MW) /      0.019 (MB)

	Size of irrep 0 of tIjAb amplitudes:       0.000 (MW) /      0.001 (MB)
	Size of irrep 1 of tIjAb amplitudes:       0.000 (MW) /      0.000 (MB)
	Size of irrep 2 of tIjAb amplitudes:       0.000 (MW) /      0.000 (MB)
	Size of irrep 3 of tIjAb amplitudes:       0.000 (MW) /      0.001 (MB)
	Size of irrep 4 of tIjAb amplitudes:       0.000 (MW) /      0.000 (MB)
	Size of irrep 5 of tIjAb amplitudes:       0.000 (MW) /      0.001 (MB)
	Size of irrep 6 of tIjAb amplitudes:       0.000 (MW) /      0.001 (MB)
	Size of irrep 7 of tIjAb amplitudes:       0.000 (MW) /      0.000 (MB)
	Total:                                     0.001 (MW) /      0.005 (MB)

	Nuclear Rep. energy          =      0.00000000000000
	SCF energy                   =    -74.77737382798655
	One-electron energy          =    -29.01926302933843
	Two-electron (AA) energy     =      3.59704445534206
	Two-electron (BB) energy     =      1.63390942444402
	Two-electron (AB) energy     =      8.11618799449254
	Two-electron energy          =     13.34714187427862
	Reference energy             =    -74.77737382798657

*** tstop() called on n412-039.vsc4.prov at Tue Jan 26 18:13:32 2021
Module time:
	user time   =       0.03 seconds =       0.00 minutes
	system time =       0.07 seconds =       0.00 minutes
	total time  =          1 seconds =       0.02 minutes
Total time:
	user time   =       6.75 seconds =       0.11 minutes
	system time =       0.29 seconds =       0.00 minutes
	total time  =          1 seconds =       0.02 minutes
            **************************
            *                        *
            *        CCENERGY        *
            *                        *
            **************************

    Nuclear Rep. energy (wfn)     =    0.000000000000000
    SCF energy          (wfn)     =  -74.777373827986551
    Reference energy    (file100) =  -74.777373827986565

    Input parameters:
    -----------------
    Wave function   =     CCSD_T
    Reference wfn   =     UHF
    Brueckner       =     No
    Memory (Mbytes) =     250000.0
    Maxiter         =     50
    R_Convergence   =     1.0e-07
    E_Convergence   =     1.0e-06
    Restart         =     Yes
    DIIS            =     Yes
    AO Basis        =     NONE
    ABCD            =     NEW
    Cache Level     =     2
    Cache Type      =     LRU
    Print Level     =     1
    Num. of threads =     48
    # Amps to Print =     10
    Print MP2 Amps? =     No
    Analyze T2 Amps =     No
    Print Pair Ener =     No
    Local CC        =     No
    SCS-MP2         =     False
    SCSN-MP2        =     False
    SCS-CCSD        =     False

MP2 correlation energy -0.1762372355141461
                Solving CC Amplitude Equations
                ------------------------------
  Iter             Energy              RMS        T1Diag      D1Diag    New D1Diag    D2Diag
  ----     ---------------------    ---------   ----------  ----------  ----------   --------
     0        -0.176237235514146    0.000e+00    0.000000    0.000000    0.000000    0.000000
     1        -0.179202965774194    8.366e-02    0.028694    0.000000    0.000000    0.000000
     2        -0.184164257150587    2.677e-02    0.027115    0.000000    0.000000    0.000000
     3        -0.186312773194562    1.671e-02    0.034762    0.000000    0.000000    0.000000
     4        -0.186244096454207    5.085e-03    0.036117    0.000000    0.000000    0.000000
     5        -0.186318416449686    2.691e-03    0.036415    0.000000    0.000000    0.000000
     6        -0.186428192979486    9.958e-04    0.036400    0.000000    0.000000    0.000000
     7        -0.186438107809643    2.810e-04    0.036348    0.000000    0.000000    0.000000
     8        -0.186438998761941    1.103e-04    0.036353    0.000000    0.000000    0.000000
     9        -0.186437834573575    4.840e-05    0.036352    0.000000    0.000000    0.000000
    10        -0.186438059953063    1.206e-05    0.036352    0.000000    0.000000    0.000000
    11        -0.186438029219917    4.270e-06    0.036354    0.000000    0.000000    0.000000
    12        -0.186438179202324    1.191e-06    0.036353    0.000000    0.000000    0.000000
    13        -0.186438175611536    5.068e-07    0.036353    0.000000    0.000000    0.000000
    14        -0.186438176455282    1.712e-07    0.036353    0.000000    0.000000    0.000000
    15        -0.186438177067837    5.886e-08    0.036353    0.000000    0.000000    0.000000

    Iterations converged.


    Largest TIA Amplitudes:
              1  12        -0.0502527233
              2  14        -0.0502527233
              3  16        -0.0411943835
              0   0        -0.0135167160
              0   1        -0.0027878926
              0   3        -0.0013876364
              1  13         0.0012017510
              2  15         0.0012017497
              0   4        -0.0006234508
              3  17        -0.0003303544

    Largest Tia Amplitudes:
              2  14        -0.0312530901
              1  12        -0.0312530898
              1  13         0.0102631638
              2  15         0.0102631634
              0   2         0.0073068130
              0   0        -0.0066365948
              0   3        -0.0054714895
              0   5        -0.0040055540

    Largest TIJAB Amplitudes:
      2   1  14  12        -0.0231956110
      3   2  17  15        -0.0216362748
      3   1  17  13        -0.0216362747
      2   1  15  13        -0.0204278722
      3   1  16  12        -0.0202654891
      3   2  16  14        -0.0202654877
      2   1  10   2        -0.0183844141
      3   1  17  12        -0.0171355841
      3   2  17  14        -0.0171355833
      2   1  15  12        -0.0159563690

    Largest Tijab Amplitudes:
      2   1  14  12        -0.0342144997
      2   1  10   1        -0.0193483087
      2   1  15  13        -0.0186812623
      2   1  15  12        -0.0175730678
      2   1  14  13        -0.0175730677
      1   0  17   8         0.0134191354
      2   0  17   6         0.0134191354
      1   0  12   0        -0.0112418753
      2   0  14   0        -0.0112418752
      2   0  15   3         0.0103453721

    Largest TIjAb Amplitudes:
      1   1  12  12        -0.0528274980
      2   2  14  14        -0.0528274937
      2   2  15  15        -0.0397337593
      1   1  13  13        -0.0397337589
      1   2  12  14        -0.0373409864
      2   1  14  12        -0.0373409840
      1   1  13  12        -0.0335496641
      2   2  15  14        -0.0335496637
      3   1  12  17        -0.0318763073
      3   2  14  17        -0.0318763053

    SCF energy       (wfn)                    =  -74.777373827986551
    Reference energy (file100)                =  -74.777373827986565

    Opposite-spin MP2 correlation energy      =   -0.130442735851467
    Same-spin MP2 correlation energy          =   -0.045794499662679
    Singles MP2 correlation energy            =   -0.000000000000000
    MP2 correlation energy                    =   -0.176237235514146
      * MP2 total energy                      =  -74.953611063500716

    Opposite-spin CCSD correlation energy     =   -0.145310521097546
    Same-spin CCSD correlation energy         =   -0.041127655970290
    Singles CCSD correlation energy           =   -0.000000000000000
    CCSD correlation energy                   =   -0.186438177067837
      * CCSD total energy                     =  -74.963812005054407

            **************************
            *                        *
            *        CCTRIPLES       *
            *                        *
            **************************


    Wave function   =    CCSD_T
    Reference wfn   =      UHF

    Nuclear Rep. energy (wfn)                =    0.000000000000000
    SCF energy          (wfn)                =  -74.777373827986551
    Reference energy    (file100)            =  -74.777373827986565
    CCSD energy         (file100)            =   -0.186438177067837
    Total CCSD energy   (file100)            =  -74.963812005054407

    Number of ijk index combinations:
    Spin Case AAA:                                   4
    Spin Case BBB:                                   1
    Spin Case AAB:                                  18
    Spin Case ABB:                                  12
    AAA (T) energy                             =   -0.000133877110795
    BBB (T) energy                             =   -0.000043424119925
    AAB (T) energy                             =   -0.003005524336994
    ABB (T) energy                             =   -0.002286215405830
    (T) energy                                   =   -0.005469040973544
      * CCSD(T) total energy                     =  -74.969281046027945


    Psi4 stopped on: Tuesday, 26 January 2021 06:13PM
    Psi4 wall time for execution: 0:00:05.84

*** Psi4 exiting successfully. Buy a developer a beer!
