
    -----------------------------------------------------------------------
          Psi4: An Open-Source Ab Initio Electronic Structure Package
                               Psi4 1.2a1.dev938 

                         Git: Rev {HEAD} fc51d9a dirty


    R. M. Parrish, L. A. Burns, D. G. A. Smith, A. C. Simmonett,
    A. E. DePrince III, E. G. Hohenstein, U. Bozkaya, A. Yu. Sokolov,
    R. Di Remigio, R. M. Richard, J. F. Gonthier, A. M. James,
    H. R. McAlexander, A. Kumar, M. Saitow, X. Wang, B. P. Pritchard,
    P. Verma, H. F. Schaefer III, K. Patkowski, R. A. King, E. F. Valeev,
    F. A. Evangelista, J. M. Turney, T. D. Crawford, and C. D. Sherrill,
    J. Chem. Theory Comput. 13(7) pp 3185--3197 (2017).
    (doi: 10.1021/acs.jctc.7b00174)

    -----------------------------------------------------------------------


    Psi4 started on: Thursday, 20 August 2020 07:56PM

    Process ID: 423031
    PSIDATADIR: /home/irmler/Programs/psi4/beforeGrueneis3/stage/usr/local/psi4/share/psi4
    Memory:     500.0 MiB
    Threads:    4
    
  ==> Input File <==

--------------------------------------------------------------------------
# Any line starting with the # character is a comment line
memory 250000 mb
molecule molecule{
1 3
P          0.0000000000        0.0000000000        0.0000000000
}

set {
  reference uhf
  basis aug-cc-pv(d+d)z
  scf_type OUT_OF_CORE
  freeze_core true
}

energy('ccsd')
--------------------------------------------------------------------------

  Memory set to 232.831 GiB by Python driver.

*** tstart() called on cqc05
*** at Thu Aug 20 19:56:18 2020

   => Loading Basis Set <=

    Name: AUG-CC-PV(D+D)Z
    Role: ORBITAL
    Keyword: BASIS
    atoms 1 entry P          line   656 file /home/irmler/Programs/psi4/beforeGrueneis3/stage/usr/local/psi4/share/psi4/basis/aug-cc-pv_dpd_z.gbs 


         ---------------------------------------------------------
                                   SCF
            by Justin Turney, Rob Parrish, Andy Simmonett
                             and Daniel Smith
                              UHF Reference
                        4 Threads, 238418 MiB Core
         ---------------------------------------------------------

  ==> Geometry <==

    Molecular point group: d2h
    Geometry (in Angstrom), charge = 1, multiplicity = 3:

       Center              X                  Y                   Z               Mass       
    ------------   -----------------  -----------------  -----------------  -----------------
           P          0.000000000000     0.000000000000     0.000000000000    30.973761629000

  Running in d2h symmetry.

  Rotational constants: A = ************  B = ************  C = ************ [cm^-1]
  Rotational constants: A = ************  B = ************  C = ************ [MHz]
  Nuclear repulsion =    0.000000000000000

  Charge       = 1
  Multiplicity = 3
  Electrons    = 14
  Nalpha       = 8
  Nbeta        = 6

  ==> Algorithm <==

  SCF Algorithm Type is OUT_OF_CORE.
  DIIS enabled.
  MOM disabled.
  Fractional occupation disabled.
  Guess Type is GWH.
  Energy threshold   = 1.00e-08
  Density threshold  = 1.00e-08
  Integral threshold = 0.00e+00

  ==> Primary Basis <==

  Basis Set: AUG-CC-PV(D+D)Z
    Blend: AUG-CC-PV(D+D)Z
    Number of shells: 12
    Number of basis function: 32
    Number of Cartesian functions: 35
    Spherical Harmonics?: true
    Max angular momentum: 2

  ==> Pre-Iterations <==

   -------------------------------------------------------
    Irrep   Nso     Nmo     Nalpha   Nbeta   Ndocc  Nsocc
   -------------------------------------------------------
     Ag        11      11       0       0       0       0
     B1g        3       3       0       0       0       0
     B2g        3       3       0       0       0       0
     B3g        3       3       0       0       0       0
     Au         0       0       0       0       0       0
     B1u        4       4       0       0       0       0
     B2u        4       4       0       0       0       0
     B3u        4       4       0       0       0       0
   -------------------------------------------------------
    Total      32      32       8       6       6       2
   -------------------------------------------------------

  ==> Integral Setup <==

  ==> DiskJK: Disk-Based J/K Matrices <==

    J tasked:                  Yes
    K tasked:                  Yes
    wK tasked:                  No
    Memory (MB):            178813
    Schwarz Cutoff:          1E-12

  Minimum eigenvalue in the overlap matrix is 4.4370143584E-02.
  Using Symmetric Orthogonalization.

  SCF Guess: Generalized Wolfsberg-Helmholtz.

  ==> Iterations <==

                        Total Energy        Delta E     RMS |[F,P]|

    Occupation by irrep:
             Ag   B1g   B2g   B3g    Au   B1u   B2u   B3u 
    DOCC [     3,    0,    0,    0,    0,    1,    1,    1 ]
    SOCC [     0,    0,    0,    0,    0,    1,    0,    1 ]

   @UHF iter   1:  -333.58324362364658   -3.33583e+02   2.26068e-01 
   @UHF iter   2:  -339.80239636371516   -6.21915e+00   8.18080e-02 DIIS
   @UHF iter   3:  -340.32445556869050   -5.22059e-01   1.07230e-02 DIIS
   @UHF iter   4:  -340.34322576306761   -1.87702e-02   3.14043e-03 DIIS
   @UHF iter   5:  -340.34477484080458   -1.54908e-03   5.58090e-04 DIIS
   @UHF iter   6:  -340.34482305374735   -4.82129e-05   5.73635e-05 DIIS
   @UHF iter   7:  -340.34482348115182   -4.27404e-07   6.53567e-06 DIIS
   @UHF iter   8:  -340.34482348661049   -5.45867e-09   4.08945e-07 DIIS
   @UHF iter   9:  -340.34482348662732   -1.68257e-11   5.29649e-08 DIIS
   @UHF iter  10:  -340.34482348662777   -4.54747e-13   9.39629e-09 DIIS

  ==> Post-Iterations <==

   @Spin Contamination Metric:   1.225797517E-02
   @S^2 Expected:                2.000000000E+00
   @S^2 Observed:                2.012257975E+00
   @S   Expected:                1.000000000E+00
   @S   Observed:                1.000000000E+00

    Orbital Energies (a.u.)
    -----------------------

    Alpha Occupied:                                                       

       1Ag   -80.395731     2Ag    -7.926593     1B3u   -5.826304  
       1B1u   -5.826304     1B2u   -5.811843     3Ag    -1.139177  
       2B1u   -0.724613     2B3u   -0.724613  

    Alpha Virtual:                                                        

       2B2u   -0.341057     4Ag    -0.105682     3B3u   -0.065511  
       3B1u   -0.065511     3B2u   -0.061725     5Ag     0.002102  
       1B2g    0.002102     1B3g    0.015686     1B1g    0.015686  
       6Ag     0.021790     4B1u    0.388063     4B3u    0.388063  
       4B2u    0.413260     7Ag     0.424490     8Ag     0.506447  
       2B2g    0.506447     2B3g    0.515109     2B1g    0.515109  
       9Ag     0.519438    10Ag     3.924103     3B1g    3.929913  
       3B3g    3.929913    11Ag     3.947293     3B2g    3.947293  

    Beta Occupied:                                                        

       1Ag   -80.379955     2Ag    -7.908820     1B2u   -5.804033  
       1B1u   -5.783653     1B3u   -5.783653     3Ag    -0.935692  

    Beta Virtual:                                                         

       2B2u   -0.311041     2B3u   -0.253348     2B1u   -0.253348  
       4Ag    -0.094677     3B2u   -0.058569     3B3u   -0.046072  
       3B1u   -0.046072     5Ag     0.049301     1B1g    0.055993  
       1B3g    0.055993     1B2g    0.078837     6Ag     0.078837  
       4B2u    0.426432     7Ag     0.459887     4B3u    0.465047  
       4B1u    0.465047     8Ag     0.558939     2B1g    0.568379  
       2B3g    0.568379     2B2g    0.605477     9Ag     0.605477  
      10Ag     3.931055     3B3g    3.939392     3B1g    3.939392  
       3B2g    3.964429    11Ag     3.964429  

    Final Occupation by Irrep:
             Ag   B1g   B2g   B3g    Au   B1u   B2u   B3u 
    DOCC [     3,    0,    0,    0,    0,    1,    1,    1 ]
    SOCC [     0,    0,    0,    0,    0,    1,    0,    1 ]

  Energy converged.

  @UHF Final Energy:  -340.34482348662777

   => Energetics <=

    Nuclear Repulsion Energy =              0.0000000000000000
    One-Electron Energy =                -465.7186643006079976
    Two-Electron Energy =                 125.3738408139802232
    PCM Polarization Energy =               0.0000000000000000
    Total Energy =                       -340.3448234866277744

    Alert: EFP and PCM quantities not currently incorporated into SCF psivars.
  UHF NO Occupations:
  HONO-2 :    3 Ag 1.9938541
  HONO-1 :    2B1u 1.0000000
  HONO-0 :    2B3u 1.0000000
  LUNO+0 :    4 Ag 0.0061459
  LUNO+1 :    3B3u 0.0000009
  LUNO+2 :    3B1u 0.0000009
  LUNO+3 :    2B2u 0.0000001



Properties will be evaluated at   0.000000,   0.000000,   0.000000 Bohr

Properties computed using the SCF density matrix

  Nuclear Dipole Moment: (a.u.)
     X:     0.0000      Y:     0.0000      Z:     0.0000

  Electronic Dipole Moment: (a.u.)
     X:     0.0000      Y:     0.0000      Z:     0.0000

  Dipole Moment: (a.u.)
     X:     0.0000      Y:     0.0000      Z:     0.0000     Total:     0.0000

  Dipole Moment: (Debye)
     X:     0.0000      Y:     0.0000      Z:     0.0000     Total:     0.0000


*** tstop() called on cqc05 at Thu Aug 20 19:56:18 2020
Module time:
	user time   =       0.27 seconds =       0.00 minutes
	system time =       0.01 seconds =       0.00 minutes
	total time  =          0 seconds =       0.00 minutes
Total time:
	user time   =       0.27 seconds =       0.00 minutes
	system time =       0.01 seconds =       0.00 minutes
	total time  =          0 seconds =       0.00 minutes

*** tstart() called on cqc05
*** at Thu Aug 20 19:56:18 2020


	Wfn Parameters:
	--------------------
	Wavefunction         = CCSD
	Number of irreps     = 8
	Number of MOs        = 32
	Number of active MOs = 27
	AO-Basis             = NONE
	Semicanonical        = false
	Reference            = UHF
	Print Level          = 1

	IRREP	# MOs	# FZDC	# DOCC	# SOCC	# VIRT	# FZVR
	-----	-----	------	------	------	------	------
	 Ag	   11	    2	    1	    0	    8	    0
	 B1g	   3	    0	    0	    0	    3	    0
	 B2g	   3	    0	    0	    0	    3	    0
	 B3g	   3	    0	    0	    0	    3	    0
	 Au	   0	    0	    0	    0	    0	    0
	 B1u	   4	    1	    0	    1	    2	    0
	 B2u	   4	    1	    0	    0	    3	    0
	 B3u	   4	    1	    0	    1	    2	    0
	Transforming integrals...
	IWL integrals will be deleted.
	(OO|OO)...
	Presorting SO-basis two-electron integrals.
	Sorting File: SO Ints (nn|nn) nbuckets = 1
	Transforming the one-electron integrals and constructing Fock matrices
	Starting AA/AB first half-transformation.
	Sorting AA/AB half-transformed integrals.
	Starting BB first half-transformation.
	Sorting BB half-transformed integrals.
	First half integral transformation complete.
	Starting AA second half-transformation.
	Starting AB second half-transformation.
	Starting BB second half-transformation.
	Two-electron integral transformation complete.
	(OO|OV)...
	Starting AA second half-transformation.
	Starting AB second half-transformation.
	Starting BB second half-transformation.
	Two-electron integral transformation complete.
	(OO|VV)...
	Starting AA second half-transformation.
	Starting AB second half-transformation.
	Starting BB second half-transformation.
	Two-electron integral transformation complete.
	(OV|OO)...
	Starting AA/AB first half-transformation.
	Sorting AA/AB half-transformed integrals.
	Starting BB first half-transformation.
	Sorting BB half-transformed integrals.
	First half integral transformation complete.
	Starting AA second half-transformation.
	Starting AB second half-transformation.
	Starting BB second half-transformation.
	Two-electron integral transformation complete.
	(OV|OV)...
	Starting AA second half-transformation.
	Starting AB second half-transformation.
	Starting BB second half-transformation.
	Two-electron integral transformation complete.
	(OV|VV)...
	Starting AA second half-transformation.
	Starting AB second half-transformation.
	Starting BB second half-transformation.
	Two-electron integral transformation complete.
	(VV|OO)...
	Starting AA/AB first half-transformation.
	Sorting AA/AB half-transformed integrals.
	Starting BB first half-transformation.
	Sorting BB half-transformed integrals.
	First half integral transformation complete.
	Starting AA second half-transformation.
	Starting AB second half-transformation.
	Starting BB second half-transformation.
	Two-electron integral transformation complete.
	(VV|OV)...
	Starting AA second half-transformation.
	Starting AB second half-transformation.
	Starting BB second half-transformation.
	Two-electron integral transformation complete.
	(VV|VV)...
	Starting AA second half-transformation.
	Starting AB second half-transformation.
	Starting BB second half-transformation.
	Two-electron integral transformation complete.
	Frozen core energy     =   -334.35648078649785

	Size of irrep 0 of <AB|CD> integrals:      0.002 (MW) /      0.014 (MB)
	Size of irrep 1 of <AB|CD> integrals:      0.002 (MW) /      0.012 (MB)
	Size of irrep 2 of <AB|CD> integrals:      0.001 (MW) /      0.011 (MB)
	Size of irrep 3 of <AB|CD> integrals:      0.002 (MW) /      0.012 (MB)
	Size of irrep 4 of <AB|CD> integrals:      0.000 (MW) /      0.004 (MB)
	Size of irrep 5 of <AB|CD> integrals:      0.001 (MW) /      0.008 (MB)
	Size of irrep 6 of <AB|CD> integrals:      0.001 (MW) /      0.010 (MB)
	Size of irrep 7 of <AB|CD> integrals:      0.001 (MW) /      0.008 (MB)
	Total:                                     0.010 (MW) /      0.079 (MB)

	Size of irrep 0 of <ab|cd> integrals:      0.002 (MW) /      0.017 (MB)
	Size of irrep 1 of <ab|cd> integrals:      0.002 (MW) /      0.014 (MB)
	Size of irrep 2 of <ab|cd> integrals:      0.002 (MW) /      0.014 (MB)
	Size of irrep 3 of <ab|cd> integrals:      0.002 (MW) /      0.014 (MB)
	Size of irrep 4 of <ab|cd> integrals:      0.001 (MW) /      0.006 (MB)
	Size of irrep 5 of <ab|cd> integrals:      0.002 (MW) /      0.014 (MB)
	Size of irrep 6 of <ab|cd> integrals:      0.002 (MW) /      0.014 (MB)
	Size of irrep 7 of <ab|cd> integrals:      0.002 (MW) /      0.014 (MB)
	Total:                                     0.013 (MW) /      0.107 (MB)

	Size of irrep 0 of <Ab|Cd> integrals:      0.013 (MW) /      0.100 (MB)
	Size of irrep 1 of <Ab|Cd> integrals:      0.007 (MW) /      0.052 (MB)
	Size of irrep 2 of <Ab|Cd> integrals:      0.006 (MW) /      0.049 (MB)
	Size of irrep 3 of <Ab|Cd> integrals:      0.007 (MW) /      0.052 (MB)
	Size of irrep 4 of <Ab|Cd> integrals:      0.002 (MW) /      0.018 (MB)
	Size of irrep 5 of <Ab|Cd> integrals:      0.005 (MW) /      0.043 (MB)
	Size of irrep 6 of <Ab|Cd> integrals:      0.006 (MW) /      0.049 (MB)
	Size of irrep 7 of <Ab|Cd> integrals:      0.005 (MW) /      0.043 (MB)
	Total:                                     0.051 (MW) /      0.406 (MB)

	Size of irrep 0 of <IA|BC> integrals:      0.001 (MW) /      0.010 (MB)
	Size of irrep 1 of <IA|BC> integrals:      0.000 (MW) /      0.004 (MB)
	Size of irrep 2 of <IA|BC> integrals:      0.001 (MW) /      0.004 (MB)
	Size of irrep 3 of <IA|BC> integrals:      0.000 (MW) /      0.004 (MB)
	Size of irrep 4 of <IA|BC> integrals:      0.000 (MW) /      0.002 (MB)
	Size of irrep 5 of <IA|BC> integrals:      0.001 (MW) /      0.006 (MB)
	Size of irrep 6 of <IA|BC> integrals:      0.001 (MW) /      0.005 (MB)
	Size of irrep 7 of <IA|BC> integrals:      0.001 (MW) /      0.006 (MB)
	Total:                                     0.005 (MW) /      0.042 (MB)

	Size of irrep 0 of <ia|bc> integrals:      0.001 (MW) /      0.008 (MB)
	Size of irrep 1 of <ia|bc> integrals:      0.000 (MW) /      0.002 (MB)
	Size of irrep 2 of <ia|bc> integrals:      0.000 (MW) /      0.002 (MB)
	Size of irrep 3 of <ia|bc> integrals:      0.000 (MW) /      0.002 (MB)
	Size of irrep 4 of <ia|bc> integrals:      0.000 (MW) /      0.000 (MB)
	Size of irrep 5 of <ia|bc> integrals:      0.000 (MW) /      0.002 (MB)
	Size of irrep 6 of <ia|bc> integrals:      0.000 (MW) /      0.002 (MB)
	Size of irrep 7 of <ia|bc> integrals:      0.000 (MW) /      0.002 (MB)
	Total:                                     0.002 (MW) /      0.020 (MB)

	Size of irrep 0 of <Ia|Bc> integrals:      0.002 (MW) /      0.013 (MB)
	Size of irrep 1 of <Ia|Bc> integrals:      0.000 (MW) /      0.004 (MB)
	Size of irrep 2 of <Ia|Bc> integrals:      0.001 (MW) /      0.006 (MB)
	Size of irrep 3 of <Ia|Bc> integrals:      0.000 (MW) /      0.004 (MB)
	Size of irrep 4 of <Ia|Bc> integrals:      0.000 (MW) /      0.002 (MB)
	Size of irrep 5 of <Ia|Bc> integrals:      0.001 (MW) /      0.008 (MB)
	Size of irrep 6 of <Ia|Bc> integrals:      0.001 (MW) /      0.006 (MB)
	Size of irrep 7 of <Ia|Bc> integrals:      0.001 (MW) /      0.008 (MB)
	Total:                                     0.006 (MW) /      0.050 (MB)

	Size of irrep 0 of <iA|bC> integrals:      0.001 (MW) /      0.007 (MB)
	Size of irrep 1 of <iA|bC> integrals:      0.000 (MW) /      0.002 (MB)
	Size of irrep 2 of <iA|bC> integrals:      0.000 (MW) /      0.002 (MB)
	Size of irrep 3 of <iA|bC> integrals:      0.000 (MW) /      0.002 (MB)
	Size of irrep 4 of <iA|bC> integrals:      0.000 (MW) /      0.000 (MB)
	Size of irrep 5 of <iA|bC> integrals:      0.000 (MW) /      0.001 (MB)
	Size of irrep 6 of <iA|bC> integrals:      0.000 (MW) /      0.002 (MB)
	Size of irrep 7 of <iA|bC> integrals:      0.000 (MW) /      0.001 (MB)
	Total:                                     0.002 (MW) /      0.017 (MB)

	Size of irrep 0 of tIjAb amplitudes:       0.000 (MW) /      0.001 (MB)
	Size of irrep 1 of tIjAb amplitudes:       0.000 (MW) /      0.000 (MB)
	Size of irrep 2 of tIjAb amplitudes:       0.000 (MW) /      0.000 (MB)
	Size of irrep 3 of tIjAb amplitudes:       0.000 (MW) /      0.000 (MB)
	Size of irrep 4 of tIjAb amplitudes:       0.000 (MW) /      0.000 (MB)
	Size of irrep 5 of tIjAb amplitudes:       0.000 (MW) /      0.001 (MB)
	Size of irrep 6 of tIjAb amplitudes:       0.000 (MW) /      0.000 (MB)
	Size of irrep 7 of tIjAb amplitudes:       0.000 (MW) /      0.001 (MB)
	Total:                                     0.000 (MW) /      0.002 (MB)

	Nuclear Rep. energy          =      0.00000000000000
	SCF energy                   =   -340.34482348662777
	One-electron energy          =     -8.45259167023733
	Two-electron (AA) energy     =      1.08005411705525
	Two-electron (BB) energy     =      0.00000000000000
	Two-electron (AB) energy     =      1.38419485305239
	Two-electron energy          =      2.46424897010764
	Reference energy             =   -340.34482348662755

*** tstop() called on cqc05 at Thu Aug 20 19:56:19 2020
Module time:
	user time   =       0.05 seconds =       0.00 minutes
	system time =       0.05 seconds =       0.00 minutes
	total time  =          1 seconds =       0.02 minutes
Total time:
	user time   =       0.32 seconds =       0.01 minutes
	system time =       0.06 seconds =       0.00 minutes
	total time  =          1 seconds =       0.02 minutes

*** tstart() called on cqc05
*** at Thu Aug 20 19:56:19 2020

            **************************
            *                        *
            *        CCENERGY        *
            *                        *
            **************************

    Nuclear Rep. energy (wfn)     =    0.000000000000000
    SCF energy          (wfn)     = -340.344823486627774
    Reference energy    (file100) = -340.344823486627547

    Input parameters:
    -----------------
    Wave function   =     CCSD
    Reference wfn   =     UHF
    Brueckner       =     No
    Memory (Mbytes) =     250000.0
    Maxiter         =     50
    R_Convergence   =     1.0e-07
    E_Convergence   =     1.0e-06
    Restart         =     Yes
    DIIS            =     Yes
    AO Basis        =     NONE
    ABCD            =     NEW
    Cache Level     =     2
    Cache Type      =     LRU
    Print Level     =     1
    Num. of threads =     4
    # Amps to Print =     10
    Print MP2 Amps? =     No
    Analyze T2 Amps =     No
    Print Pair Ener =     No
    Local CC        =     No
    SCS-MP2         =     False
    SCSN-MP2        =     False
    SCS-CCSD        =     False

MP2 correlation energy -0.0512218733927106
                Solving CC Amplitude Equations
                ------------------------------
  Iter             Energy              RMS        T1Diag      D1Diag    New D1Diag    D2Diag
  ----     ---------------------    ---------   ----------  ----------  ----------   --------
     0        -0.051221873392711    0.000e+00    0.000000    0.000000    0.000000    0.000000
     1        -0.065894360866662    5.432e-02    0.005775    0.000000    0.000000    0.000000
     2        -0.072589638362847    2.112e-02    0.011072    0.000000    0.000000    0.000000
     3        -0.072925978028415    5.094e-03    0.012792    0.000000    0.000000    0.000000
     4        -0.073054453688591    8.671e-04    0.012912    0.000000    0.000000    0.000000
     5        -0.073003523189950    1.846e-04    0.012898    0.000000    0.000000    0.000000
     6        -0.073025475315992    5.267e-05    0.012915    0.000000    0.000000    0.000000
     7        -0.073021334143136    1.128e-05    0.012914    0.000000    0.000000    0.000000
     8        -0.073021760359621    1.600e-06    0.012914    0.000000    0.000000    0.000000
     9        -0.073021749151636    2.724e-07    0.012914    0.000000    0.000000    0.000000
    10        -0.073021751394871    7.301e-08    0.012914    0.000000    0.000000    0.000000
    10        -0.073021751394871    7.301e-08    0.012914    0.000000    0.000000    0.000000

    Iterations converged.


    CCSD corr. energy   =   -0.073021751394871
    PPL corr. energy    =    0.022660208976441
    OS PPL corr. energy =    0.020586365920605
    SS PPL corr. energy =    0.002073843055836
    Largest TIA Amplitudes:
              0   2        -0.0202283904
              0   5         0.0138779890
              0   3         0.0031940926
              0   0        -0.0024640716
              2  23         0.0008750521
              1  18         0.0008750317
              2  22         0.0006002726
              1  17         0.0006002562
              0   6         0.0000471359
              0   1         0.0000000233

    Largest Tia Amplitudes:
              0   0        -0.0059047525
              0   3         0.0034080028
              0   4        -0.0004553323
              0   1         0.0002866197
              0   6         0.0000956482
              0   2        -0.0000000227
              0   5        -0.0000000145

    Largest TIJAB Amplitudes:
      2   1  11   1        -0.0465455774
      2   1  12   1        -0.0273907635
      2   1  11   4        -0.0273907635
      2   0  19   8        -0.0241405227
      1   0  19  14        -0.0241405224
      2   1  12   4        -0.0235375263
      2   1  23  18        -0.0217372022
      2   1  14   8         0.0215081114
      2   0  19   9        -0.0160711564
      1   0  19  15        -0.0160711554

    Largest TIjAb Amplitudes:
      0   0  19  20        -0.1445270496
      2   0   8  20         0.0700379904
      1   0  14  20         0.0700379897
      2   0   1  23        -0.0650996354
      1   0  11  23         0.0650996309
      2   0  11  17         0.0650996278
      1   0   1  17         0.0650996232
      2   0   9  20         0.0530560106
      1   0  15  20         0.0530560089
      2   0   4  23        -0.0455580122

    SCF energy       (wfn)                    = -340.344823486627774
    Reference energy (file100)                = -340.344823486627547

    Opposite-spin MP2 correlation energy      =   -0.042653660936153
    Same-spin MP2 correlation energy          =   -0.008568212456557
    MP2 correlation energy                    =   -0.051221873392711
      * MP2 total energy                      = -340.396045360020253

    Opposite-spin CCSD correlation energy     =   -0.063239384245571
    Same-spin CCSD correlation energy         =   -0.009782367439001
    CCSD correlation energy                   =   -0.073021751394871
      * CCSD total energy                     = -340.417845238022437


*** tstop() called on cqc05 at Thu Aug 20 19:56:20 2020
Module time:
	user time   =       0.15 seconds =       0.00 minutes
	system time =       0.12 seconds =       0.00 minutes
	total time  =          1 seconds =       0.02 minutes
Total time:
	user time   =       0.47 seconds =       0.01 minutes
	system time =       0.18 seconds =       0.00 minutes
	total time  =          2 seconds =       0.03 minutes

*** Psi4 exiting successfully. Buy a developer a beer!
