
    -----------------------------------------------------------------------
          Psi4: An Open-Source Ab Initio Electronic Structure Package
                               Psi4 1.2a1.dev938 

                         Git: Rev {HEAD} fc51d9a dirty


    R. M. Parrish, L. A. Burns, D. G. A. Smith, A. C. Simmonett,
    A. E. DePrince III, E. G. Hohenstein, U. Bozkaya, A. Yu. Sokolov,
    R. Di Remigio, R. M. Richard, J. F. Gonthier, A. M. James,
    H. R. McAlexander, A. Kumar, M. Saitow, X. Wang, B. P. Pritchard,
    P. Verma, H. F. Schaefer III, K. Patkowski, R. A. King, E. F. Valeev,
    F. A. Evangelista, J. M. Turney, T. D. Crawford, and C. D. Sherrill,
    J. Chem. Theory Comput. 13(7) pp 3185--3197 (2017).
    (doi: 10.1021/acs.jctc.7b00174)

    -----------------------------------------------------------------------


    Psi4 started on: Thursday, 20 August 2020 08:11PM

    Process ID: 424102
    PSIDATADIR: /home/irmler/Programs/psi4/beforeGrueneis3/stage/usr/local/psi4/share/psi4
    Memory:     500.0 MiB
    Threads:    4
    
  ==> Input File <==

--------------------------------------------------------------------------
# Any line starting with the # character is a comment line
memory 250000 mb
molecule molecule{
1 3
P          0.0000000000        0.0000000000        0.0000000000
}

set {
  reference uhf
  basis aug-cc-pv(t+d)z
  scf_type OUT_OF_CORE
  freeze_core true
}

energy('ccsd')
--------------------------------------------------------------------------

  Memory set to 232.831 GiB by Python driver.

*** tstart() called on cqc05
*** at Thu Aug 20 20:11:01 2020

   => Loading Basis Set <=

    Name: AUG-CC-PV(T+D)Z
    Role: ORBITAL
    Keyword: BASIS
    atoms 1 entry P          line   844 file /home/irmler/Programs/psi4/beforeGrueneis3/stage/usr/local/psi4/share/psi4/basis/aug-cc-pv_tpd_z.gbs 


         ---------------------------------------------------------
                                   SCF
            by Justin Turney, Rob Parrish, Andy Simmonett
                             and Daniel Smith
                              UHF Reference
                        4 Threads, 238418 MiB Core
         ---------------------------------------------------------

  ==> Geometry <==

    Molecular point group: d2h
    Geometry (in Angstrom), charge = 1, multiplicity = 3:

       Center              X                  Y                   Z               Mass       
    ------------   -----------------  -----------------  -----------------  -----------------
           P          0.000000000000     0.000000000000     0.000000000000    30.973761629000

  Running in d2h symmetry.

  Rotational constants: A = ************  B = ************  C = ************ [cm^-1]
  Rotational constants: A = ************  B = ************  C = ************ [MHz]
  Nuclear repulsion =    0.000000000000000

  Charge       = 1
  Multiplicity = 3
  Electrons    = 14
  Nalpha       = 8
  Nbeta        = 6

  ==> Algorithm <==

  SCF Algorithm Type is OUT_OF_CORE.
  DIIS enabled.
  MOM disabled.
  Fractional occupation disabled.
  Guess Type is GWH.
  Energy threshold   = 1.00e-08
  Density threshold  = 1.00e-08
  Integral threshold = 0.00e+00

  ==> Primary Basis <==

  Basis Set: AUG-CC-PV(T+D)Z
    Blend: AUG-CC-PV(T+D)Z
    Number of shells: 17
    Number of basis function: 55
    Number of Cartesian functions: 65
    Spherical Harmonics?: true
    Max angular momentum: 3

  ==> Pre-Iterations <==

   -------------------------------------------------------
    Irrep   Nso     Nmo     Nalpha   Nbeta   Ndocc  Nsocc
   -------------------------------------------------------
     Ag        14      14       0       0       0       0
     B1g        4       4       0       0       0       0
     B2g        4       4       0       0       0       0
     B3g        4       4       0       0       0       0
     Au         2       2       0       0       0       0
     B1u        9       9       0       0       0       0
     B2u        9       9       0       0       0       0
     B3u        9       9       0       0       0       0
   -------------------------------------------------------
    Total      55      55       8       6       6       2
   -------------------------------------------------------

  ==> Integral Setup <==

  ==> DiskJK: Disk-Based J/K Matrices <==

    J tasked:                  Yes
    K tasked:                  Yes
    wK tasked:                  No
    Memory (MB):            178813
    Schwarz Cutoff:          1E-12

  Minimum eigenvalue in the overlap matrix is 1.2437712170E-02.
  Using Symmetric Orthogonalization.

  SCF Guess: Generalized Wolfsberg-Helmholtz.

  ==> Iterations <==

                        Total Energy        Delta E     RMS |[F,P]|

   @UHF iter   1:  -339.49758796360067   -3.39498e+02   1.30259e-01 
   @UHF iter   2:  -340.33602993111504   -8.38442e-01   9.34176e-03 DIIS
   @UHF iter   3:  -340.35134025225813   -1.53103e-02   2.34463e-03 DIIS
   @UHF iter   4:  -340.35215147510530   -8.11223e-04   5.49055e-04 DIIS
   @UHF iter   5:  -340.35227065411277   -1.19179e-04   9.84941e-05 DIIS
   @UHF iter   6:  -340.35227453387165   -3.87976e-06   8.25103e-06 DIIS
   @UHF iter   7:  -340.35227455420483   -2.03332e-08   1.04481e-06 DIIS
   @UHF iter   8:  -340.35227455456049   -3.55669e-10   2.35436e-07 DIIS
   @UHF iter   9:  -340.35227455458011   -1.96110e-11   2.40170e-08 DIIS
   @UHF iter  10:  -340.35227455458011    0.00000e+00   2.16059e-09 DIIS

  ==> Post-Iterations <==

   @Spin Contamination Metric:   1.332102383E-02
   @S^2 Expected:                2.000000000E+00
   @S^2 Observed:                2.013321024E+00
   @S   Expected:                1.000000000E+00
   @S   Observed:                1.000000000E+00

    Orbital Energies (a.u.)
    -----------------------

    Alpha Occupied:                                                       

       1Ag   -80.390004     2Ag    -7.923149     1B1u   -5.823109  
       1B3u   -5.823109     1B2u   -5.807192     3Ag    -1.138076  
       2B1u   -0.725018     2B3u   -0.725018  

    Alpha Virtual:                                                        

       2B2u   -0.339551     4Ag    -0.107853     3B1u   -0.070860  
       3B3u   -0.070860     3B2u   -0.067890     1B2g   -0.029537  
       5Ag    -0.029537     1B3g   -0.021360     1B1g   -0.021360  
       6Ag    -0.017920     4B3u    0.236835     4B1u    0.236835  
       4B2u    0.253479     7Ag     0.261733     2B2g    0.261733  
       2B3g    0.275393     2B1g    0.275393     8Ag     0.281029  
       9Ag     0.323701     5B2u    0.382435     5B3u    0.383634  
       5B1u    0.383634     6B2u    0.387565     1Au     0.387565  
       6B1u    0.394475     6B3u    0.394475    10Ag     1.229705  
       3B3g    1.232623     3B1g    1.232623     3B2g    1.241548  
      11Ag     1.241548     7B2u    1.518592     7B3u    1.520303  
       7B1u    1.520303     8B2u    1.525328     2Au     1.525328  
       8B1u    1.533326     8B3u    1.533326     9B3u    1.919685  
       9B1u    1.919685     9B2u    1.929954    12Ag     2.961075  
      13Ag     5.795323     4B1g    5.800397     4B3g    5.800397  
       4B2g    5.815776    14Ag     5.815776  

    Beta Occupied:                                                        

       1Ag   -80.373781     2Ag    -7.905320     1B2u   -5.799167  
       1B1u   -5.778949     1B3u   -5.778949     3Ag    -0.934465  

    Beta Virtual:                                                         

       2B2u   -0.311493     2B1u   -0.252377     2B3u   -0.252377  
       4Ag    -0.098202     3B2u   -0.065508     3B1u   -0.054960  
       3B3u   -0.054960     5Ag    -0.001031     1B3g    0.003188  
       1B1g    0.003188     6Ag     0.018206     1B2g    0.018206  
       4B2u    0.263035     4B3u    0.295987     4B1u    0.295987  
       7Ag     0.319370     2B3g    0.328446     2B1g    0.328446  
       8Ag     0.355188     9Ag     0.361946     2B2g    0.361946  
       5B2u    0.393740     5B3u    0.396539     5B1u    0.396539  
       6B2u    0.405010     1Au     0.405010     6B1u    0.420210  
       6B3u    0.420210    10Ag     1.252348     3B3g    1.262757  
       3B1g    1.262757     3B2g    1.297914    11Ag     1.297914  
       7B2u    1.550118     7B3u    1.556232     7B1u    1.556232  
       8B2u    1.574781     2Au     1.574781     8B1u    1.606950  
       8B3u    1.606950     9B2u    1.942030     9B3u    1.987546  
       9B1u    1.987546    12Ag     2.993535    13Ag     5.803145  
       4B1g    5.810904     4B3g    5.810904     4B2g    5.834762  
      14Ag     5.834762  

    Final Occupation by Irrep:
             Ag   B1g   B2g   B3g    Au   B1u   B2u   B3u 
    DOCC [     3,    0,    0,    0,    0,    1,    1,    1 ]
    SOCC [     0,    0,    0,    0,    0,    1,    0,    1 ]

  Energy converged.

  @UHF Final Energy:  -340.35227455458011

   => Energetics <=

    Nuclear Repulsion Energy =              0.0000000000000000
    One-Electron Energy =                -465.7792436437404149
    Two-Electron Energy =                 125.4269690891603091
    Total Energy =                       -340.3522745545801058


  UHF NO Occupations:
  HONO-2 :    3 Ag 1.9933278
  HONO-1 :    2B3u 1.0000000
  HONO-0 :    2B1u 1.0000000
  LUNO+0 :    4 Ag 0.0066722
  LUNO+1 :    3B3u 0.0000049
  LUNO+2 :    3B1u 0.0000049
  LUNO+3 :    2B2u 0.0000004



Properties will be evaluated at   0.000000,   0.000000,   0.000000 Bohr

Properties computed using the SCF density matrix

  Nuclear Dipole Moment: (a.u.)
     X:     0.0000      Y:     0.0000      Z:     0.0000

  Electronic Dipole Moment: (a.u.)
     X:     0.0000      Y:     0.0000      Z:     0.0000

  Dipole Moment: (a.u.)
     X:     0.0000      Y:     0.0000      Z:     0.0000     Total:     0.0000

  Dipole Moment: (Debye)
     X:     0.0000      Y:     0.0000      Z:     0.0000     Total:     0.0000


*** tstop() called on cqc05 at Thu Aug 20 20:11:01 2020
Module time:
	user time   =       0.54 seconds =       0.01 minutes
	system time =       0.02 seconds =       0.00 minutes
	total time  =          0 seconds =       0.00 minutes
Total time:
	user time   =       0.54 seconds =       0.01 minutes
	system time =       0.02 seconds =       0.00 minutes
	total time  =          0 seconds =       0.00 minutes

*** tstart() called on cqc05
*** at Thu Aug 20 20:11:01 2020


	Wfn Parameters:
	--------------------
	Wavefunction         = CCSD
	Number of irreps     = 8
	Number of MOs        = 55
	Number of active MOs = 50
	AO-Basis             = NONE
	Semicanonical        = false
	Reference            = UHF
	Print Level          = 1

	IRREP	# MOs	# FZDC	# DOCC	# SOCC	# VIRT	# FZVR
	-----	-----	------	------	------	------	------
	 Ag	   14	    2	    1	    0	    11	    0
	 B1g	   4	    0	    0	    0	    4	    0
	 B2g	   4	    0	    0	    0	    4	    0
	 B3g	   4	    0	    0	    0	    4	    0
	 Au	   2	    0	    0	    0	    2	    0
	 B1u	   9	    1	    0	    1	    7	    0
	 B2u	   9	    1	    0	    0	    8	    0
	 B3u	   9	    1	    0	    1	    7	    0
	Transforming integrals...
	IWL integrals will be deleted.
	(OO|OO)...
	Presorting SO-basis two-electron integrals.
	Sorting File: SO Ints (nn|nn) nbuckets = 1
	Transforming the one-electron integrals and constructing Fock matrices
	Starting AA/AB first half-transformation.
	Sorting AA/AB half-transformed integrals.
	Starting BB first half-transformation.
	Sorting BB half-transformed integrals.
	First half integral transformation complete.
	Starting AA second half-transformation.
	Starting AB second half-transformation.
	Starting BB second half-transformation.
	Two-electron integral transformation complete.
	(OO|OV)...
	Starting AA second half-transformation.
	Starting AB second half-transformation.
	Starting BB second half-transformation.
	Two-electron integral transformation complete.
	(OO|VV)...
	Starting AA second half-transformation.
	Starting AB second half-transformation.
	Starting BB second half-transformation.
	Two-electron integral transformation complete.
	(OV|OO)...
	Starting AA/AB first half-transformation.
	Sorting AA/AB half-transformed integrals.
	Starting BB first half-transformation.
	Sorting BB half-transformed integrals.
	First half integral transformation complete.
	Starting AA second half-transformation.
	Starting AB second half-transformation.
	Starting BB second half-transformation.
	Two-electron integral transformation complete.
	(OV|OV)...
	Starting AA second half-transformation.
	Starting AB second half-transformation.
	Starting BB second half-transformation.
	Two-electron integral transformation complete.
	(OV|VV)...
	Starting AA second half-transformation.
	Starting AB second half-transformation.
	Starting BB second half-transformation.
	Two-electron integral transformation complete.
	(VV|OO)...
	Starting AA/AB first half-transformation.
	Sorting AA/AB half-transformed integrals.
	Starting BB first half-transformation.
	Sorting BB half-transformed integrals.
	First half integral transformation complete.
	Starting AA second half-transformation.
	Starting AB second half-transformation.
	Starting BB second half-transformation.
	Two-electron integral transformation complete.
	(VV|OV)...
	Starting AA second half-transformation.
	Starting AB second half-transformation.
	Starting BB second half-transformation.
	Two-electron integral transformation complete.
	(VV|VV)...
	Starting AA second half-transformation.
	Starting AB second half-transformation.
	Starting BB second half-transformation.
	Two-electron integral transformation complete.
	Frozen core energy     =   -334.36082494433629

	Size of irrep 0 of <AB|CD> integrals:      0.021 (MW) /      0.166 (MB)
	Size of irrep 1 of <AB|CD> integrals:      0.017 (MW) /      0.135 (MB)
	Size of irrep 2 of <AB|CD> integrals:      0.016 (MW) /      0.125 (MB)
	Size of irrep 3 of <AB|CD> integrals:      0.017 (MW) /      0.135 (MB)
	Size of irrep 4 of <AB|CD> integrals:      0.012 (MW) /      0.097 (MB)
	Size of irrep 5 of <AB|CD> integrals:      0.021 (MW) /      0.168 (MB)
	Size of irrep 6 of <AB|CD> integrals:      0.023 (MW) /      0.185 (MB)
	Size of irrep 7 of <AB|CD> integrals:      0.021 (MW) /      0.168 (MB)
	Total:                                     0.147 (MW) /      1.179 (MB)

	Size of irrep 0 of <ab|cd> integrals:      0.025 (MW) /      0.200 (MB)
	Size of irrep 1 of <ab|cd> integrals:      0.020 (MW) /      0.157 (MB)
	Size of irrep 2 of <ab|cd> integrals:      0.020 (MW) /      0.157 (MB)
	Size of irrep 3 of <ab|cd> integrals:      0.020 (MW) /      0.157 (MB)
	Size of irrep 4 of <ab|cd> integrals:      0.014 (MW) /      0.111 (MB)
	Size of irrep 5 of <ab|cd> integrals:      0.026 (MW) /      0.205 (MB)
	Size of irrep 6 of <ab|cd> integrals:      0.026 (MW) /      0.205 (MB)
	Size of irrep 7 of <ab|cd> integrals:      0.026 (MW) /      0.205 (MB)
	Total:                                     0.174 (MW) /      1.396 (MB)

	Size of irrep 0 of <Ab|Cd> integrals:      0.122 (MW) /      0.974 (MB)
	Size of irrep 1 of <Ab|Cd> integrals:      0.073 (MW) /      0.583 (MB)
	Size of irrep 2 of <Ab|Cd> integrals:      0.070 (MW) /      0.558 (MB)
	Size of irrep 3 of <Ab|Cd> integrals:      0.073 (MW) /      0.583 (MB)
	Size of irrep 4 of <Ab|Cd> integrals:      0.052 (MW) /      0.416 (MB)
	Size of irrep 5 of <Ab|Cd> integrals:      0.093 (MW) /      0.744 (MB)
	Size of irrep 6 of <Ab|Cd> integrals:      0.097 (MW) /      0.779 (MB)
	Size of irrep 7 of <Ab|Cd> integrals:      0.093 (MW) /      0.744 (MB)
	Total:                                     0.673 (MW) /      5.381 (MB)

	Size of irrep 0 of <IA|BC> integrals:      0.008 (MW) /      0.067 (MB)
	Size of irrep 1 of <IA|BC> integrals:      0.004 (MW) /      0.029 (MB)
	Size of irrep 2 of <IA|BC> integrals:      0.004 (MW) /      0.036 (MB)
	Size of irrep 3 of <IA|BC> integrals:      0.004 (MW) /      0.029 (MB)
	Size of irrep 4 of <IA|BC> integrals:      0.002 (MW) /      0.018 (MB)
	Size of irrep 5 of <IA|BC> integrals:      0.006 (MW) /      0.051 (MB)
	Size of irrep 6 of <IA|BC> integrals:      0.005 (MW) /      0.039 (MB)
	Size of irrep 7 of <IA|BC> integrals:      0.006 (MW) /      0.051 (MB)
	Total:                                     0.040 (MW) /      0.320 (MB)

	Size of irrep 0 of <ia|bc> integrals:      0.004 (MW) /      0.032 (MB)
	Size of irrep 1 of <ia|bc> integrals:      0.001 (MW) /      0.009 (MB)
	Size of irrep 2 of <ia|bc> integrals:      0.001 (MW) /      0.009 (MB)
	Size of irrep 3 of <ia|bc> integrals:      0.001 (MW) /      0.009 (MB)
	Size of irrep 4 of <ia|bc> integrals:      0.000 (MW) /      0.004 (MB)
	Size of irrep 5 of <ia|bc> integrals:      0.003 (MW) /      0.020 (MB)
	Size of irrep 6 of <ia|bc> integrals:      0.003 (MW) /      0.020 (MB)
	Size of irrep 7 of <ia|bc> integrals:      0.003 (MW) /      0.020 (MB)
	Total:                                     0.016 (MW) /      0.124 (MB)

	Size of irrep 0 of <Ia|Bc> integrals:      0.009 (MW) /      0.075 (MB)
	Size of irrep 1 of <Ia|Bc> integrals:      0.004 (MW) /      0.030 (MB)
	Size of irrep 2 of <Ia|Bc> integrals:      0.005 (MW) /      0.042 (MB)
	Size of irrep 3 of <Ia|Bc> integrals:      0.004 (MW) /      0.030 (MB)
	Size of irrep 4 of <Ia|Bc> integrals:      0.002 (MW) /      0.018 (MB)
	Size of irrep 5 of <Ia|Bc> integrals:      0.007 (MW) /      0.056 (MB)
	Size of irrep 6 of <Ia|Bc> integrals:      0.005 (MW) /      0.040 (MB)
	Size of irrep 7 of <Ia|Bc> integrals:      0.007 (MW) /      0.056 (MB)
	Total:                                     0.044 (MW) /      0.349 (MB)

	Size of irrep 0 of <iA|bC> integrals:      0.004 (MW) /      0.031 (MB)
	Size of irrep 1 of <iA|bC> integrals:      0.001 (MW) /      0.009 (MB)
	Size of irrep 2 of <iA|bC> integrals:      0.001 (MW) /      0.008 (MB)
	Size of irrep 3 of <iA|bC> integrals:      0.001 (MW) /      0.009 (MB)
	Size of irrep 4 of <iA|bC> integrals:      0.000 (MW) /      0.004 (MB)
	Size of irrep 5 of <iA|bC> integrals:      0.002 (MW) /      0.017 (MB)
	Size of irrep 6 of <iA|bC> integrals:      0.002 (MW) /      0.020 (MB)
	Size of irrep 7 of <iA|bC> integrals:      0.002 (MW) /      0.017 (MB)
	Total:                                     0.014 (MW) /      0.114 (MB)

	Size of irrep 0 of tIjAb amplitudes:       0.000 (MW) /      0.003 (MB)
	Size of irrep 1 of tIjAb amplitudes:       0.000 (MW) /      0.000 (MB)
	Size of irrep 2 of tIjAb amplitudes:       0.000 (MW) /      0.000 (MB)
	Size of irrep 3 of tIjAb amplitudes:       0.000 (MW) /      0.000 (MB)
	Size of irrep 4 of tIjAb amplitudes:       0.000 (MW) /      0.000 (MB)
	Size of irrep 5 of tIjAb amplitudes:       0.000 (MW) /      0.002 (MB)
	Size of irrep 6 of tIjAb amplitudes:       0.000 (MW) /      0.000 (MB)
	Size of irrep 7 of tIjAb amplitudes:       0.000 (MW) /      0.002 (MB)
	Total:                                     0.001 (MW) /      0.008 (MB)

	Nuclear Rep. energy          =      0.00000000000000
	SCF energy                   =   -340.35227455458011
	One-electron energy          =     -8.46032217981094
	Two-electron (AA) energy     =      1.08208600995632
	Two-electron (BB) energy     =      0.00000000000000
	Two-electron (AB) energy     =      1.38678655960992
	Two-electron energy          =      2.46887256956624
	Reference energy             =   -340.35227455458102

*** tstop() called on cqc05 at Thu Aug 20 20:11:01 2020
Module time:
	user time   =       0.12 seconds =       0.00 minutes
	system time =       0.08 seconds =       0.00 minutes
	total time  =          0 seconds =       0.00 minutes
Total time:
	user time   =       0.66 seconds =       0.01 minutes
	system time =       0.10 seconds =       0.00 minutes
	total time  =          0 seconds =       0.00 minutes

*** tstart() called on cqc05
*** at Thu Aug 20 20:11:01 2020

            **************************
            *                        *
            *        CCENERGY        *
            *                        *
            **************************

    Nuclear Rep. energy (wfn)     =    0.000000000000000
    SCF energy          (wfn)     = -340.352274554580106
    Reference energy    (file100) = -340.352274554581015

    Input parameters:
    -----------------
    Wave function   =     CCSD
    Reference wfn   =     UHF
    Brueckner       =     No
    Memory (Mbytes) =     250000.0
    Maxiter         =     50
    R_Convergence   =     1.0e-07
    E_Convergence   =     1.0e-06
    Restart         =     Yes
    DIIS            =     Yes
    AO Basis        =     NONE
    ABCD            =     NEW
    Cache Level     =     2
    Cache Type      =     LRU
    Print Level     =     1
    Num. of threads =     4
    # Amps to Print =     10
    Print MP2 Amps? =     No
    Analyze T2 Amps =     No
    Print Pair Ener =     No
    Local CC        =     No
    SCS-MP2         =     False
    SCSN-MP2        =     False
    SCS-CCSD        =     False

MP2 correlation energy -0.0628848886575879
                Solving CC Amplitude Equations
                ------------------------------
  Iter             Energy              RMS        T1Diag      D1Diag    New D1Diag    D2Diag
  ----     ---------------------    ---------   ----------  ----------  ----------   --------
     0        -0.062884888657588    0.000e+00    0.000000    0.000000    0.000000    0.000000
     1        -0.076714838342633    5.103e-02    0.007077    0.000000    0.000000    0.000000
     2        -0.082689399580393    2.010e-02    0.012621    0.000000    0.000000    0.000000
     3        -0.083081217993198    4.808e-03    0.014133    0.000000    0.000000    0.000000
     4        -0.083146008368634    9.617e-04    0.014281    0.000000    0.000000    0.000000
     5        -0.083125257063822    1.815e-04    0.014260    0.000000    0.000000    0.000000
     6        -0.083135804240594    4.161e-05    0.014270    0.000000    0.000000    0.000000
     7        -0.083133145295816    8.959e-06    0.014270    0.000000    0.000000    0.000000
     8        -0.083133454992513    1.484e-06    0.014270    0.000000    0.000000    0.000000
     9        -0.083133458229944    3.106e-07    0.014270    0.000000    0.000000    0.000000
    10        -0.083133459403430    7.727e-08    0.014270    0.000000    0.000000    0.000000
    10        -0.083133459403430    7.727e-08    0.014270    0.000000    0.000000    0.000000

    Iterations converged.


    CCSD corr. energy   =   -0.083133459403430
    PPL corr. energy    =    0.028699385452317
    OS PPL corr. energy =    0.025885403624338
    SS PPL corr. energy =    0.002813981827979
    Largest TIA Amplitudes:
              0   2        -0.0169913076
              0   4        -0.0168286298
              0   5         0.0061905233
              0   6        -0.0045093166
              1  26         0.0034914067
              2  41         0.0034914067
              1  27         0.0032006443
              2  42         0.0032006443
              0   0        -0.0030701197
              1  29         0.0024106605

    Largest Tia Amplitudes:
              0   0        -0.0077171390
              0   4         0.0053315327
              0   3        -0.0029794076
              0   1         0.0026520448
              0   8         0.0009988250
              0   6         0.0005997389
              0   9        -0.0000607958

    Largest TIJAB Amplitudes:
      2   1  15   1        -0.0364885516
      2   1  16   3        -0.0329082168
      2   1  15   3        -0.0322914066
      2   1  16   1        -0.0322914066
      1   0  32  20        -0.0205297911
      2   0  32  12        -0.0205297911
      1   0  32  19        -0.0202269455
      2   0  32  11        -0.0202269455
      2   1  20  12         0.0175121463
      2   1  41  26        -0.0173732871

    Largest TIjAb Amplitudes:
      0   0  32  33        -0.1416557111
      1   0  20  33         0.0636681190
      2   0  12  33         0.0636681190
      1   0  19  33         0.0576693736
      2   0  11  33         0.0576693736
      1   0   1  25         0.0554820099
      1   0  15  41         0.0554820099
      2   0   1  41        -0.0554820099
      2   0  15  25         0.0554820099
      1   0   3  25         0.0546947337

    SCF energy       (wfn)                    = -340.352274554580106
    Reference energy (file100)                = -340.352274554581015

    Opposite-spin MP2 correlation energy      =   -0.052271070577373
    Same-spin MP2 correlation energy          =   -0.010613818080215
    MP2 correlation energy                    =   -0.062884888657588
      * MP2 total energy                      = -340.415159443238622

    Opposite-spin CCSD correlation energy     =   -0.070937596820210
    Same-spin CCSD correlation energy         =   -0.012195862716821
    CCSD correlation energy                   =   -0.083133459403430
      * CCSD total energy                     = -340.435408013984443


*** tstop() called on cqc05 at Thu Aug 20 20:11:02 2020
Module time:
	user time   =       0.15 seconds =       0.00 minutes
	system time =       0.14 seconds =       0.00 minutes
	total time  =          1 seconds =       0.02 minutes
Total time:
	user time   =       0.81 seconds =       0.01 minutes
	system time =       0.24 seconds =       0.00 minutes
	total time  =          1 seconds =       0.02 minutes

*** Psi4 exiting successfully. Buy a developer a beer!
