
    -----------------------------------------------------------------------
          Psi4: An Open-Source Ab Initio Electronic Structure Package
                               Psi4 1.2a1.dev939 

                         Git: Rev {HEAD} fa1ec19 


    R. M. Parrish, L. A. Burns, D. G. A. Smith, A. C. Simmonett,
    A. E. DePrince III, E. G. Hohenstein, U. Bozkaya, A. Yu. Sokolov,
    R. Di Remigio, R. M. Richard, J. F. Gonthier, A. M. James,
    H. R. McAlexander, A. Kumar, M. Saitow, X. Wang, B. P. Pritchard,
    P. Verma, H. F. Schaefer III, K. Patkowski, R. A. King, E. F. Valeev,
    F. A. Evangelista, J. M. Turney, T. D. Crawford, and C. D. Sherrill,
    J. Chem. Theory Comput. 13(7) pp 3185--3197 (2017).
    (doi: 10.1021/acs.jctc.7b00174)

    -----------------------------------------------------------------------


    Psi4 started on: Friday, 26 April 2019 03:33PM

    Process ID:  26225
    PSIDATADIR: /home/grueneis/src/psi4/objdir/stage/usr/local/psi4/share/psi4
    Memory:     500.0 MiB
    Threads:    1
    
  ==> Input File <==

--------------------------------------------------------------------------
# Any line starting with the # character is a comment line

memory 32000 mb

molecule molecule {
0 1
Cl         0.0000000000        0.0000000000        0.9943524372
Cl         0.0000000000        0.0000000000       -0.9943524372
}

set {
  reference rhf
  basis aug-cc-pv(D+d)z
  scf_type OUT_OF_CORE
  freeze_core true
}

energy('ccsd')
--------------------------------------------------------------------------

  Memory set to  29.802 GiB by Python driver.

*** tstart() called on cqc01
*** at Fri Apr 26 15:33:17 2019

   => Loading Basis Set <=

    Name: AUG-CC-PV(D+D)Z
    Role: ORBITAL
    Keyword: BASIS
    atoms 1-2 entry CL         line   792 file /home/grueneis/src/psi4/objdir/stage/usr/local/psi4/share/psi4/basis/aug-cc-pv_dpd_z.gbs 


         ---------------------------------------------------------
                                   SCF
            by Justin Turney, Rob Parrish, Andy Simmonett
                             and Daniel Smith
                              RHF Reference
                        1 Threads,  30517 MiB Core
         ---------------------------------------------------------

  ==> Geometry <==

    Molecular point group: d2h
    Full point group: D_inf_h

    Geometry (in Angstrom), charge = 0, multiplicity = 1:

       Center              X                  Y                   Z               Mass       
    ------------   -----------------  -----------------  -----------------  -----------------
          CL          0.000000000000     0.000000000000     0.994352437200    34.968852682000
          CL          0.000000000000     0.000000000000    -0.994352437200    34.968852682000

  Running in d2h symmetry.

  Rotational constants: A = ************  B =      0.24378  C =      0.24378 [cm^-1]
  Rotational constants: A = ************  B =   7308.44750  C =   7308.44750 [MHz]
  Nuclear repulsion =   76.900406516401887

  Charge       = 0
  Multiplicity = 1
  Electrons    = 34
  Nalpha       = 17
  Nbeta        = 17

  ==> Algorithm <==

  SCF Algorithm Type is OUT_OF_CORE.
  DIIS enabled.
  MOM disabled.
  Fractional occupation disabled.
  Guess Type is SAD.
  Energy threshold   = 1.00e-08
  Density threshold  = 1.00e-08
  Integral threshold = 0.00e+00

  ==> Primary Basis <==

  Basis Set: AUG-CC-PV(D+D)Z
    Blend: AUG-CC-PV(D+D)Z
    Number of shells: 24
    Number of basis function: 64
    Number of Cartesian functions: 70
    Spherical Harmonics?: true
    Max angular momentum: 2

  ==> Pre-Iterations <==

   -------------------------------------------------------
    Irrep   Nso     Nmo     Nalpha   Nbeta   Ndocc  Nsocc
   -------------------------------------------------------
     Ag        15      15       0       0       0       0
     B1g        3       3       0       0       0       0
     B2g        7       7       0       0       0       0
     B3g        7       7       0       0       0       0
     Au         3       3       0       0       0       0
     B1u       15      15       0       0       0       0
     B2u        7       7       0       0       0       0
     B3u        7       7       0       0       0       0
   -------------------------------------------------------
    Total      64      64      17      17      17       0
   -------------------------------------------------------

  ==> Integral Setup <==

  ==> DiskJK: Disk-Based J/K Matrices <==

    J tasked:                  Yes
    K tasked:                  Yes
    wK tasked:                  No
    Memory (MB):             22888
    Schwarz Cutoff:          1E-12

  Minimum eigenvalue in the overlap matrix is 2.9660917588E-03.
  Using Symmetric Orthogonalization.

  SCF Guess: Superposition of Atomic Densities via on-the-fly atomic UHF.

  ==> Iterations <==

                        Total Energy        Delta E     RMS |[F,P]|

   @RHF iter   0:  -919.31300326311020   -9.19313e+02   7.12841e-02 
   @RHF iter   1:  -918.94447354917668    3.68530e-01   8.51886e-03 
   @RHF iter   2:  -918.96614458505189   -2.16710e-02   4.12026e-03 DIIS
   @RHF iter   3:  -918.96987958585544   -3.73500e-03   6.00804e-04 DIIS
   @RHF iter   4:  -918.97018714729370   -3.07561e-04   1.27016e-04 DIIS
   @RHF iter   5:  -918.97020140204904   -1.42548e-05   1.42505e-05 DIIS
   @RHF iter   6:  -918.97020152878702   -1.26738e-07   2.53384e-06 DIIS
   @RHF iter   7:  -918.97020153251481   -3.72779e-09   3.47250e-07 DIIS
   @RHF iter   8:  -918.97020153262008   -1.05274e-10   4.96724e-08 DIIS
   @RHF iter   9:  -918.97020153262190   -1.81899e-12   6.95375e-09 DIIS

  ==> Post-Iterations <==

    Orbital Energies (a.u.)
    -----------------------

    Doubly Occupied:                                                      

       1Ag  -104.898128     1B1u -104.898127     2Ag   -10.621811  
       2B1u  -10.621698     3Ag    -8.090216     3B1u   -8.089953  
       1B2u   -8.084740     1B3u   -8.084740     1B3g   -8.084733  
       1B2g   -8.084733     4Ag    -1.224343     4B1u   -1.018920  
       5Ag    -0.602282     2B3u   -0.571388     2B2u   -0.571388  
       2B2g   -0.445875     2B3g   -0.445875  

    Virtual:                                                              

       5B1u    0.020596     6B1u    0.120404     6Ag     0.123192  
       3B3u    0.132693     3B2u    0.132693     7Ag     0.156120  
       3B3g    0.162300     3B2g    0.162300     7B1u    0.296757  
       4B2u    0.381865     4B3u    0.381865     8Ag     0.383354  
       1B1g    0.383354     9Ag     0.499780     8B1u    0.518499  
       1Au     0.518499     4B3g    0.672026     4B2g    0.672026  
       9B1u    0.706089     5B3u    0.871842     5B2u    0.871842  
      10B1u    0.957695     5B2g    0.986640     5B3g    0.986640  
      10Ag     1.027340    11Ag     1.151225     2B1g    1.243262  
      12Ag     1.243262     6B2u    1.254713     6B3u    1.254713  
       2Au     1.292898    11B1u    1.292898    13Ag     1.293653  
       6B3g    1.345459     6B2g    1.345459    12B1u    1.429730  
      13B1u    1.841919    14Ag     5.811403     7B2u    5.864743  
       7B3u    5.864743    15Ag     5.912846     3B1g    5.912846  
      14B1u    5.942316     3Au     5.942316     7B3g    5.994342  
       7B2g    5.994342    15B1u    6.128059  

    Final Occupation by Irrep:
             Ag   B1g   B2g   B3g    Au   B1u   B2u   B3u 
    DOCC [     5,    0,    2,    2,    0,    4,    2,    2 ]

  Energy converged.

  @RHF Final Energy:  -918.97020153262190

   => Energetics <=

    Nuclear Repulsion Energy =             76.9004065164018868
    One-Electron Energy =               -1422.8633159339260601
    Two-Electron Energy =                 426.9927078849022450
    Total Energy =                       -918.9702015326217861



Properties will be evaluated at   0.000000,   0.000000,   0.000000 Bohr

Properties computed using the SCF density matrix

  Nuclear Dipole Moment: (a.u.)
     X:     0.0000      Y:     0.0000      Z:     0.0000

  Electronic Dipole Moment: (a.u.)
     X:     0.0000      Y:     0.0000      Z:     0.0000

  Dipole Moment: (a.u.)
     X:     0.0000      Y:     0.0000      Z:     0.0000     Total:     0.0000

  Dipole Moment: (Debye)
     X:     0.0000      Y:     0.0000      Z:     0.0000     Total:     0.0000


*** tstop() called on cqc01 at Fri Apr 26 15:33:19 2019
Module time:
	user time   =       1.23 seconds =       0.02 minutes
	system time =       0.46 seconds =       0.01 minutes
	total time  =          2 seconds =       0.03 minutes
Total time:
	user time   =       1.23 seconds =       0.02 minutes
	system time =       0.46 seconds =       0.01 minutes
	total time  =          2 seconds =       0.03 minutes

*** tstart() called on cqc01
*** at Fri Apr 26 15:33:19 2019


	Wfn Parameters:
	--------------------
	Wavefunction         = CCSD
	Number of irreps     = 8
	Number of MOs        = 64
	Number of active MOs = 54
	AO-Basis             = NONE
	Semicanonical        = false
	Reference            = RHF
	Print Level          = 1

	IRREP	# MOs	# FZDC	# DOCC	# SOCC	# VIRT	# FZVR
	-----	-----	------	------	------	------	------
	 Ag	   15	    3	    2	    0	    10	    0
	 B1g	   3	    0	    0	    0	    3	    0
	 B2g	   7	    1	    1	    0	    5	    0
	 B3g	   7	    1	    1	    0	    5	    0
	 Au	   3	    0	    0	    0	    3	    0
	 B1u	   15	    3	    1	    0	    11	    0
	 B2u	   7	    1	    1	    0	    5	    0
	 B3u	   7	    1	    1	    0	    5	    0
	Transforming integrals...
	IWL integrals will be deleted.
	(OO|OO)...
	Presorting SO-basis two-electron integrals.
	Sorting File: SO Ints (nn|nn) nbuckets = 1
	Transforming the one-electron integrals and constructing Fock matrices
	Starting first half-transformation.
	Sorting half-transformed integrals.
	First half integral transformation complete.
	Starting second half-transformation.
	Two-electron integral transformation complete.
	(OO|OV)...
	Starting second half-transformation.
	Two-electron integral transformation complete.
	(OO|VV)...
	Starting second half-transformation.
	Two-electron integral transformation complete.
	(OV|OO)...
	Starting first half-transformation.
	Sorting half-transformed integrals.
	First half integral transformation complete.
	Starting second half-transformation.
	Two-electron integral transformation complete.
	(OV|OV)...
	Starting second half-transformation.
	Two-electron integral transformation complete.
	(OV|VV)...
	Starting second half-transformation.
	Two-electron integral transformation complete.
	(VV|OO)...
	Starting first half-transformation.
	Sorting half-transformed integrals.
	First half integral transformation complete.
	Starting second half-transformation.
	Two-electron integral transformation complete.
	(VV|OV)...
	Starting second half-transformation.
	Two-electron integral transformation complete.
	(VV|VV)...
	Starting second half-transformation.
	Two-electron integral transformation complete.
	Frozen core energy     =   -953.33817921795549

	Size of irrep 0 of <ab|cd> integrals:      0.115 (MW) /      0.919 (MB)
	Size of irrep 1 of <ab|cd> integrals:      0.051 (MW) /      0.409 (MB)
	Size of irrep 2 of <ab|cd> integrals:      0.073 (MW) /      0.583 (MB)
	Size of irrep 3 of <ab|cd> integrals:      0.073 (MW) /      0.583 (MB)
	Size of irrep 4 of <ab|cd> integrals:      0.051 (MW) /      0.409 (MB)
	Size of irrep 5 of <ab|cd> integrals:      0.114 (MW) /      0.914 (MB)
	Size of irrep 6 of <ab|cd> integrals:      0.073 (MW) /      0.583 (MB)
	Size of irrep 7 of <ab|cd> integrals:      0.073 (MW) /      0.583 (MB)
	Total:                                     0.623 (MW) /      4.983 (MB)

	Size of irrep 0 of <ia|bc> integrals:      0.017 (MW) /      0.138 (MB)
	Size of irrep 1 of <ia|bc> integrals:      0.007 (MW) /      0.052 (MB)
	Size of irrep 2 of <ia|bc> integrals:      0.011 (MW) /      0.091 (MB)
	Size of irrep 3 of <ia|bc> integrals:      0.011 (MW) /      0.091 (MB)
	Size of irrep 4 of <ia|bc> integrals:      0.007 (MW) /      0.052 (MB)
	Size of irrep 5 of <ia|bc> integrals:      0.018 (MW) /      0.141 (MB)
	Size of irrep 6 of <ia|bc> integrals:      0.011 (MW) /      0.091 (MB)
	Size of irrep 7 of <ia|bc> integrals:      0.011 (MW) /      0.091 (MB)
	Total:                                     0.093 (MW) /      0.747 (MB)

	Size of irrep 0 of tijab amplitudes:       0.003 (MW) /      0.024 (MB)
	Size of irrep 1 of tijab amplitudes:       0.001 (MW) /      0.007 (MB)
	Size of irrep 2 of tijab amplitudes:       0.002 (MW) /      0.013 (MB)
	Size of irrep 3 of tijab amplitudes:       0.002 (MW) /      0.013 (MB)
	Size of irrep 4 of tijab amplitudes:       0.001 (MW) /      0.007 (MB)
	Size of irrep 5 of tijab amplitudes:       0.003 (MW) /      0.022 (MB)
	Size of irrep 6 of tijab amplitudes:       0.002 (MW) /      0.013 (MB)
	Size of irrep 7 of tijab amplitudes:       0.002 (MW) /      0.013 (MB)
	Total:                                     0.014 (MW) /      0.112 (MB)

	Nuclear Rep. energy          =     76.90040651640189
	SCF energy                   =   -918.97020153262190
	One-electron energy          =    -75.30471456862500
	Two-electron energy          =     32.77228573755639
	Reference energy             =   -918.97020153262224

*** tstop() called on cqc01 at Fri Apr 26 15:33:20 2019
Module time:
	user time   =       0.09 seconds =       0.00 minutes
	system time =       0.06 seconds =       0.00 minutes
	total time  =          1 seconds =       0.02 minutes
Total time:
	user time   =       1.32 seconds =       0.02 minutes
	system time =       0.52 seconds =       0.01 minutes
	total time  =          3 seconds =       0.05 minutes

*** tstart() called on cqc01
*** at Fri Apr 26 15:33:20 2019

            **************************
            *                        *
            *        CCENERGY        *
            *                        *
            **************************

    Nuclear Rep. energy (wfn)     =   76.900406516401887
    SCF energy          (wfn)     = -918.970201532621900
    Reference energy    (file100) = -918.970201532622241

    Input parameters:
    -----------------
    Wave function   =     CCSD
    Reference wfn   =     RHF
    Brueckner       =     No
    Memory (Mbytes) =     32000.0
    Maxiter         =     50
    R_Convergence   =     1.0e-07
    E_Convergence   =     1.0e-06
    Restart         =     Yes
    DIIS            =     Yes
    AO Basis        =     NONE
    ABCD            =     NEW
    Cache Level     =     2
    Cache Type      =     LOW
    Print Level     =     1
    Num. of threads =     1
    # Amps to Print =     10
    Print MP2 Amps? =     No
    Analyze T2 Amps =     No
    Print Pair Ener =     No
    Local CC        =     No
    SCS-MP2         =     False
    SCSN-MP2        =     False
    SCS-CCSD        =     False

MP2 correlation energy -0.2998748290912859
                Solving CC Amplitude Equations
                ------------------------------
  Iter             Energy              RMS        T1Diag      D1Diag    New D1Diag    D2Diag
  ----     ---------------------    ---------   ----------  ----------  ----------   --------
     0        -0.299874829091280    0.000e+00    0.000000    0.000000    0.000000    0.146489
     1        -0.358462825555831    2.383e-01    0.013724    0.035016    0.035016    0.189882
     2        -0.330465942055086    3.730e-02    0.009617    0.025484    0.025484    0.177323
     3        -0.328566813362667    6.598e-03    0.009531    0.025077    0.025077    0.174185
     4        -0.328401058726082    1.722e-03    0.009279    0.024486    0.024486    0.173359
     5        -0.328187552374477    4.938e-04    0.009218    0.024344    0.024344    0.172961
     6        -0.328206676933332    1.143e-04    0.009206    0.024311    0.024311    0.172922
     7        -0.328211275693357    3.931e-05    0.009204    0.024304    0.024304    0.172918
     8        -0.328208935554140    1.628e-05    0.009204    0.024302    0.024302    0.172916
     9        -0.328209678321077    5.581e-06    0.009204    0.024302    0.024302    0.172918
    10        -0.328209755362679    1.655e-06    0.009204    0.024302    0.024302    0.172919
    11        -0.328209755546156    4.889e-07    0.009204    0.024302    0.024302    0.172919
    12        -0.328209758291526    1.353e-07    0.009204    0.024302    0.024302    0.172919
    13        -0.328209755835911    3.704e-08    0.009204    0.024302    0.024302    0.172919
    13        -0.328209755835911    3.704e-08    0.009204    0.024302    0.024302    0.172919

    Iterations converged.


    CCSD corr. energy   =   -0.328209755835911
    PPL corr. energy    =    0.075561599748266
    OS PPL corr. energy =    0.060767627157985
    SS PPL corr. energy =    0.014793972590281
    Largest TIA Amplitudes:
              1   3         0.0170960432
              5  38        -0.0113082485
              6  43        -0.0113082043
              1   5        -0.0108928930
              1   4         0.0101303483
              4  30         0.0091705174
              1   1        -0.0078751354
              5  37         0.0072750490
              6  42         0.0072749974
              4  33        -0.0055466768

    Largest TIjAb Amplitudes:
      1   1  26  26        -0.0972099341
      1   1  26  27         0.0629499253
      1   1  27  26         0.0629499253
      1   1  27  27        -0.0432052226
      3   3  26  26        -0.0387921606
      2   2  26  26        -0.0387921558
      3   3  38  38        -0.0358079933
      2   2  43  43        -0.0358079883
      1   3  26  38         0.0319210126
      3   1  38  26         0.0319210126

    SCF energy       (wfn)                    = -918.970201532621900
    Reference energy (file100)                = -918.970201532622241

    Opposite-spin MP2 correlation energy      =   -0.220296625992611
    Same-spin MP2 correlation energy          =   -0.079578203098670
    MP2 correlation energy                    =   -0.299874829091286
      * MP2 total energy                      = -919.270076361713564

    Opposite-spin CCSD correlation energy     =   -0.252938159728374
    Same-spin CCSD correlation energy         =   -0.075271595088726
    CCSD correlation energy                   =   -0.328209755835911
      * CCSD total energy                     = -919.298411288458169


*** tstop() called on cqc01 at Fri Apr 26 15:33:24 2019
Module time:
	user time   =       0.40 seconds =       0.01 minutes
	system time =       1.25 seconds =       0.02 minutes
	total time  =          4 seconds =       0.07 minutes
Total time:
	user time   =       1.72 seconds =       0.03 minutes
	system time =       1.77 seconds =       0.03 minutes
	total time  =          7 seconds =       0.12 minutes

*** Psi4 exiting successfully. Buy a developer a beer!
