
    -----------------------------------------------------------------------
          Psi4: An Open-Source Ab Initio Electronic Structure Package
                               Psi4 1.4a3.dev88 

                         Git: Rev {master} 262e345 


    D. G. A. Smith, L. A. Burns, A. C. Simmonett, R. M. Parrish,
    M. C. Schieber, R. Galvelis, P. Kraus, H. Kruse, R. Di Remigio,
    A. Alenaizan, A. M. James, S. Lehtola, J. P. Misiewicz, M. Scheurer,
    R. A. Shaw, J. B. Schriber, Y. Xie, Z. L. Glick, D. A. Sirianni,
    J. S. O'Brien, J. M. Waldrop, A. Kumar, E. G. Hohenstein,
    B. P. Pritchard, B. R. Brooks, H. F. Schaefer III, A. Yu. Sokolov,
    K. Patkowski, A. E. DePrince III, U. Bozkaya, R. A. King,
    F. A. Evangelista, J. M. Turney, T. D. Crawford, C. D. Sherrill,
    J. Chem. Phys. 152(18) 184108 (2020). https://doi.org/10.1063/5.0006002

                            Additional Code Authors
    E. T. Seidl, C. L. Janssen, E. F. Valeev, M. L. Leininger,
    J. F. Gonthier, R. M. Richard, H. R. McAlexander, M. Saitow, X. Wang,
    P. Verma, and M. H. Lechner

             Previous Authors, Complete List of Code Contributors,
                       and Citations for Specific Modules
    https://github.com/psi4/psi4/blob/master/codemeta.json
    https://github.com/psi4/psi4/graphs/contributors
    http://psicode.org/psi4manual/master/introduction.html#citing-psifour

    -----------------------------------------------------------------------


    Psi4 started on: Thursday, 21 January 2021 05:57PM

    Process ID: 446064
    Host:       n412-045.vsc4.prov
    PSIDATADIR: /home/fs71337/gallo4/psi4/psi4/build/stage/share/psi4
    Memory:     500.0 MiB
    Threads:    48
    
  ==> Input File <==

--------------------------------------------------------------------------
# Any line starting with the # character is a comment line
memory 250000 mb
molecule molecule{
0 1
F          0.0000000000        0.0000000000       -0.0464431179
H          0.0000000000        0.0000000000        0.8753944384
}

set {
  reference rhf
  basis aug-cc-pV(5+d)Z
  scf_type OUT_OF_CORE
  freeze_core true
}

energy('ccsd(t)')
--------------------------------------------------------------------------

  Memory set to 232.831 GiB by Python driver.

Scratch directory: /binfl/lv71337/airmler/temp/

*** tstart() called on n412-045.vsc4.prov
*** at Thu Jan 21 17:57:03 2021

   => Loading Basis Set <=

    Name: AUG-CC-PV(5+D)Z
    Role: ORBITAL
    Keyword: BASIS
    atoms 1 entry F          line   645 file /home/fs71337/gallo4/psi4/psi4/build/stage/share/psi4/basis/aug-cc-pv_5pd_z.gbs 
    atoms 2 entry H          line    69 file /home/fs71337/gallo4/psi4/psi4/build/stage/share/psi4/basis/aug-cc-pv_5pd_z.gbs 


         ---------------------------------------------------------
                                   SCF
               by Justin Turney, Rob Parrish, Andy Simmonett
                          and Daniel G. A. Smith
                              RHF Reference
                       48 Threads, 238418 MiB Core
         ---------------------------------------------------------

  ==> Geometry <==

    Molecular point group: c2v
    Full point group: C_inf_v

    Geometry (in Angstrom), charge = 0, multiplicity = 1:

       Center              X                  Y                   Z               Mass       
    ------------   -----------------  -----------------  -----------------  -----------------
         F            0.000000000000     0.000000000000    -0.046438086971    18.998403162730
         H            0.000000000000     0.000000000000     0.875399469329     1.007825032230

  Running in c2v symmetry.

  Rotational constants: A = ************  B =     20.72768  C =     20.72768 [cm^-1]
  Rotational constants: A = ************  B = 621400.18987  C = 621400.18987 [MHz]
  Nuclear repulsion =    5.166414476695584

  Charge       = 0
  Multiplicity = 1
  Electrons    = 10
  Nalpha       = 5
  Nbeta        = 5

  ==> Algorithm <==

  SCF Algorithm Type is OUT_OF_CORE.
  DIIS enabled.
  MOM disabled.
  Fractional occupation disabled.
  Guess Type is SAD.
  Energy threshold   = 1.00e-08
  Density threshold  = 1.00e-08
  Integral threshold = 1.00e-12

  ==> Primary Basis <==

  Basis Set: AUG-CC-PV(5+D)Z
    Blend: AUG-CC-PV(5+D)Z
    Number of shells: 47
    Number of basis function: 207
    Number of Cartesian functions: 287
    Spherical Harmonics?: true
    Max angular momentum: 5

  ==> Integral Setup <==

  ==> DiskJK: Disk-Based J/K Matrices <==

    J tasked:                  Yes
    K tasked:                  Yes
    wK tasked:                  No
    Memory [MiB]:           178813
    Schwarz Cutoff:          1E-12

  Minimum eigenvalue in the overlap matrix is 1.9298930260E-05.
  Reciprocal condition number of the overlap matrix is 3.0332834154E-06.
    Using symmetric orthogonalization.

  ==> Pre-Iterations <==

  SCF Guess: Superposition of Atomic Densities via on-the-fly atomic UHF (no occupation information).


 WARNING: Atomic UHF is not converging! Try casting from a smaller basis or call Rob at CCMST.

 WARNING: Atomic UHF is not converging! Try casting from a smaller basis or call Rob at CCMST.
   -------------------------
    Irrep   Nso     Nmo    
   -------------------------
     A1        77      77 
     A2        30      30 
     B1        50      50 
     B2        50      50 
   -------------------------
    Total     207     207
   -------------------------

  ==> Iterations <==

                        Total Energy        Delta E     RMS |[F,P]|

   @RHF iter SAD:   -14.07087114710261   -1.40709e+01   0.00000e+00 
    Occupation by irrep:
             A1    A2    B1    B2 
    DOCC [     4,    0,    0,    1 ]

   @RHF iter   1:   -96.81374932430020   -8.27429e+01   3.39639e-02 DIIS
    Occupation by irrep:
             A1    A2    B1    B2 
    DOCC [     3,    0,    1,    1 ]

   @RHF iter   2:   -91.95983118534951    4.85392e+00   2.83026e-02 DIIS
   @RHF iter   3:   -99.42587792037554   -7.46605e+00   1.37155e-02 DIIS
   @RHF iter   4:  -100.03119963157307   -6.05322e-01   3.00907e-03 DIIS
   @RHF iter   5:  -100.07013214014756   -3.89325e-02   1.61790e-04 DIIS
   @RHF iter   6:  -100.07030070862594   -1.68568e-04   5.55943e-05 DIIS
   @RHF iter   7:  -100.07031346627700   -1.27577e-05   1.23666e-05 DIIS
   @RHF iter   8:  -100.07031447249274   -1.00622e-06   1.65813e-06 DIIS
   @RHF iter   9:  -100.07031450461447   -3.21217e-08   2.70659e-07 DIIS
   @RHF iter  10:  -100.07031450498485   -3.70378e-10   4.43357e-08 DIIS
   @RHF iter  11:  -100.07031450499538   -1.05302e-11   4.77148e-09 DIIS
  Energy and wave function converged.


  ==> Post-Iterations <==

    Orbital Energies [Eh]
    ---------------------

    Doubly Occupied:                                                      

       1A1   -26.294741     2A1    -1.599293     3A1    -0.766325  
       1B2    -0.649900     1B1    -0.649900  

    Virtual:                                                              

       4A1     0.023392     5A1     0.097753     2B2     0.133425  
       2B1     0.133425     6A1     0.138405     3B2     0.189455  
       3B1     0.189455     7A1     0.199535     8A1     0.314764  
       9A1     0.415320     1A2     0.466545    10A1     0.466545  
       4B2     0.480504     4B1     0.480504    11A1     0.531383  
       5B2     0.613645     5B1     0.613645     2A2     0.617268  
      12A1     0.617268     6B1     0.623878     6B2     0.623878  
      13A1     0.632840    14A1     0.730858    15A1     0.998330  
       7B2     1.033797     7B1     1.033797     8B1     1.138649  
       8B2     1.138649    16A1     1.219629     9B1     1.241001  
       9B2     1.241001    17A1     1.253856     3A2     1.254751  
      18A1     1.254751    19A1     1.509819     4A2     1.509819  
      10B1     1.527783    10B2     1.527783    20A1     1.531901  
      11B2     1.563366    11B1     1.563366    21A1     1.657556  
      22A1     1.662210     5A2     1.662210    12B2     1.816469  
      12B1     1.816469    23A1     2.014776    13B2     2.133256  
      13B1     2.133256    24A1     2.308951    14B2     2.453914  
      14B1     2.453914    25A1     2.488530     6A2     2.488530  
      26A1     2.848329    27A1     2.862461     7A2     2.862461  
      15B2     2.976613    15B1     2.976613    28A1     3.063870  
       8A2     3.088265    29A1     3.088265    16B1     3.169840  
      16B2     3.169840    30A1     3.265688    17B2     3.424247  
      17B1     3.424247    31A1     3.600626     9A2     3.600626  
      18B1     3.617819    18B2     3.617819    32A1     3.704707  
      33A1     3.897655    10A2     3.897655    19B1     3.935144  
      19B2     3.935144    34A1     4.001223    11A2     4.001223  
      20B2     4.012169    20B1     4.012169    35A1     4.071375  
      21B2     4.155186    21B1     4.155186    36A1     4.332636  
      37A1     4.618456    12A2     4.618456    38A1     4.720635  
      22B2     4.952302    22B1     4.952302    23B2     5.069408  
      23B1     5.069408    13A2     5.552787    39A1     5.552787  
      24B2     5.553294    24B1     5.553294    40A1     5.946752  
      41A1     6.303899    14A2     6.387592    42A1     6.387592  
      25B2     6.416618    25B1     6.416618    43A1     6.526436  
      26B2     6.780195    26B1     6.780195    44A1     7.714064  
      27B2     7.910970    27B1     7.910970    28B1     8.026290  
      28B2     8.026290    45A1     8.203794    15A2     8.203794  
      46A1     8.694204    29B2     8.755776    29B1     8.755776  
      16A2     9.106834    47A1     9.106834    30B2     9.294034  
      30B1     9.294034    17A2     9.297450    48A1     9.297450  
      31B2     9.344941    31B1     9.344941    49A1     9.478073  
      18A2     9.514221    50A1     9.514221    32B2     9.853817  
      32B1     9.853817    33B2    10.060620    33B1    10.060620  
      51A1    10.263915    19A2    10.487396    52A1    10.487396  
      53A1    10.864861    34B1    11.041246    34B2    11.041246  
      20A2    11.477457    54A1    11.477457    55A1    12.050789  
      35B1    12.787338    35B2    12.787338    36B1    13.003923  
      36B2    13.003923    21A2    13.167580    56A1    13.167580  
      22A2    13.992756    57A1    13.992756    23A2    14.151031  
      58A1    14.151031    37B2    14.307542    37B1    14.307542  
      59A1    14.332502    38B2    14.460277    38B1    14.460277  
      60A1    15.018124    39B2    15.617721    39B1    15.617721  
      61A1    15.741264    24A2    16.843892    62A1    16.843892  
      63A1    16.963140    40B2    17.080538    40B1    17.080538  
      64A1    18.423488    41B1    18.900549    41B2    18.900549  
      42B1    20.586712    42B2    20.586712    43B1    20.968168  
      43B2    20.968168    25A2    21.059005    65A1    21.059005  
      44B2    21.387857    44B1    21.387857    66A1    21.805264  
      26A2    22.098488    67A1    22.098488    68A1    22.311080  
      45B1    22.726454    45B2    22.726454    69A1    23.366686  
      70A1    24.587735    27A2    24.587735    46B1    24.722869  
      46B2    24.722869    28A2    25.021686    71A1    25.021686  
      47B1    25.641032    47B2    25.641032    48B1    25.744243  
      48B2    25.744243    72A1    25.782503    29A2    26.171460  
      73A1    26.171460    49B1    28.641869    49B2    28.641869  
      30A2    29.184753    74A1    29.184753    75A1    30.438268  
      50B1    30.672719    50B2    30.672719    76A1    32.516336  
      77A1    82.560989  

    Final Occupation by Irrep:
             A1    A2    B1    B2 
    DOCC [     3,    0,    1,    1 ]

  @RHF Final Energy:  -100.07031450499538

   => Energetics <=

    Nuclear Repulsion Energy =              5.1664144766955840
    One-Electron Energy =                -150.5531438575210927
    Two-Electron Energy =                  45.3164148758301266
    Total Energy =                       -100.0703145049953662

Computation Completed


Properties will be evaluated at   0.000000,   0.000000,   0.000000 [a0]

Properties computed using the SCF density matrix

  Nuclear Dipole Moment: [e a0]
     X:     0.0000      Y:     0.0000      Z:     0.8645

  Electronic Dipole Moment: [e a0]
     X:     0.0000      Y:     0.0000      Z:    -0.1046

  Dipole Moment: [e a0]
     X:     0.0000      Y:     0.0000      Z:     0.7599     Total:     0.7599

  Dipole Moment: [D]
     X:     0.0000      Y:     0.0000      Z:     1.9314     Total:     1.9314


*** tstop() called on n412-045.vsc4.prov at Thu Jan 21 17:58:09 2021
Module time:
	user time   =     110.62 seconds =       1.84 minutes
	system time =       6.72 seconds =       0.11 minutes
	total time  =         66 seconds =       1.10 minutes
Total time:
	user time   =     110.62 seconds =       1.84 minutes
	system time =       6.72 seconds =       0.11 minutes
	total time  =         66 seconds =       1.10 minutes

*** tstart() called on n412-045.vsc4.prov
*** at Thu Jan 21 17:58:09 2021


	Wfn Parameters:
	--------------------
	Wavefunction         = CCSD_T
	Number of irreps     = 4
	Number of MOs        = 207
	Number of active MOs = 206
	AO-Basis             = NONE
	Semicanonical        = false
	Reference            = RHF
	Print Level          = 1

	IRREP	# MOs	# FZDC	# DOCC	# SOCC	# VIRT	# FZVR
	-----	-----	------	------	------	------	------
	 A1	   77	    1	    2	    0	    74	    0
	 A2	   30	    0	    0	    0	    30	    0
	 B1	   50	    0	    1	    0	    49	    0
	 B2	   50	    0	    1	    0	    49	    0
	Transforming integrals...
	IWL integrals will be deleted.
	(OO|OO)...
	Presorting SO-basis two-electron integrals.
	Sorting File: SO Ints (nn|nn) nbuckets = 1
	Constructing frozen core operators
	Starting first half-transformation.
	Sorting half-transformed integrals.
	First half integral transformation complete.
	Starting second half-transformation.
	Two-electron integral transformation complete.
	(OO|OV)...
	Starting second half-transformation.
	Two-electron integral transformation complete.
	(OO|VV)...
	Starting second half-transformation.
	Two-electron integral transformation complete.
	(OV|OO)...
	Starting first half-transformation.
	Sorting half-transformed integrals.
	First half integral transformation complete.
	Starting second half-transformation.
	Two-electron integral transformation complete.
	(OV|OV)...
	Starting second half-transformation.
	Two-electron integral transformation complete.
	(OV|VV)...
	Starting second half-transformation.
	Two-electron integral transformation complete.
	(VV|OO)...
	Starting first half-transformation.
	Sorting half-transformed integrals.
	First half integral transformation complete.
	Starting second half-transformation.
	Two-electron integral transformation complete.
	(VV|OV)...
	Starting second half-transformation.
	Two-electron integral transformation complete.
	(VV|VV)...
	Starting second half-transformation.
	Two-electron integral transformation complete.
	Frozen core energy     =    -76.62761042812834

	Size of irrep 0 of <ab|cd> integrals:    124.948 (MW) /    999.581 (MB)
	Size of irrep 1 of <ab|cd> integrals:     85.415 (MW) /    683.317 (MB)
	Size of irrep 2 of <ab|cd> integrals:    103.877 (MW) /    831.015 (MB)
	Size of irrep 3 of <ab|cd> integrals:    103.877 (MW) /    831.015 (MB)
	Total:                                   418.116 (MW) /   3344.928 (MB)

	Size of irrep 0 of <ia|bc> integrals:      2.750 (MW) /     21.998 (MB)
	Size of irrep 1 of <ia|bc> integrals:      1.460 (MW) /     11.682 (MB)
	Size of irrep 2 of <ia|bc> integrals:      2.059 (MW) /     16.470 (MB)
	Size of irrep 3 of <ia|bc> integrals:      2.059 (MW) /     16.470 (MB)
	Total:                                     8.328 (MW) /     66.621 (MB)

	Size of irrep 0 of tijab amplitudes:       0.067 (MW) /      0.537 (MB)
	Size of irrep 1 of tijab amplitudes:       0.018 (MW) /      0.148 (MB)
	Size of irrep 2 of tijab amplitudes:       0.041 (MW) /      0.326 (MB)
	Size of irrep 3 of tijab amplitudes:       0.041 (MW) /      0.326 (MB)
	Total:                                     0.167 (MW) /      1.337 (MB)

	Nuclear Rep. energy          =      5.16641447669558
	SCF energy                   =   -100.07031450499538
	One-electron energy          =    -49.88740241916024
	Two-electron energy          =     21.27828386559711
	Reference energy             =   -100.07031450499588

*** tstop() called on n412-045.vsc4.prov at Thu Jan 21 17:59:24 2021
Module time:
	user time   =      21.59 seconds =       0.36 minutes
	system time =      15.42 seconds =       0.26 minutes
	total time  =         75 seconds =       1.25 minutes
Total time:
	user time   =     132.21 seconds =       2.20 minutes
	system time =      22.14 seconds =       0.37 minutes
	total time  =        141 seconds =       2.35 minutes
            **************************
            *                        *
            *        CCENERGY        *
            *                        *
            **************************

    Nuclear Rep. energy (wfn)     =    5.166414476695584
    SCF energy          (wfn)     = -100.070314504995380
    Reference energy    (file100) = -100.070314504995878

    Input parameters:
    -----------------
    Wave function   =     CCSD_T
    Reference wfn   =     RHF
    Brueckner       =     No
    Memory (Mbytes) =     250000.0
    Maxiter         =     50
    R_Convergence   =     1.0e-07
    E_Convergence   =     1.0e-06
    Restart         =     Yes
    DIIS            =     Yes
    AO Basis        =     NONE
    ABCD            =     NEW
    Cache Level     =     2
    Cache Type      =     LOW
    Print Level     =     1
    Num. of threads =     48
    # Amps to Print =     10
    Print MP2 Amps? =     No
    Analyze T2 Amps =     No
    Print Pair Ener =     No
    Local CC        =     No
    SCS-MP2         =     False
    SCSN-MP2        =     False
    SCS-CCSD        =     False

MP2 correlation energy -0.3102312598759507
                Solving CC Amplitude Equations
                ------------------------------
  Iter             Energy              RMS        T1Diag      D1Diag    New D1Diag    D2Diag
  ----     ---------------------    ---------   ----------  ----------  ----------   --------
     0        -0.310231259875951    0.000e+00    0.000000    0.000000    0.000000    0.113614
     1        -0.302063937640746    3.219e-02    0.008305    0.014490    0.014490    0.113253
     2        -0.306594069257036    1.136e-02    0.007717    0.013379    0.013379    0.117507
     3        -0.307830058185823    3.965e-03    0.008844    0.015488    0.015488    0.119536
     4        -0.307672978350239    7.612e-04    0.008979    0.015738    0.015738    0.119741
     5        -0.307666778704624    2.480e-04    0.009031    0.015851    0.015851    0.119782
     6        -0.307673119531554    6.468e-05    0.009046    0.015886    0.015886    0.119786
     7        -0.307672402829038    1.970e-05    0.009049    0.015894    0.015894    0.119781
     8        -0.307671933666698    5.506e-06    0.009049    0.015896    0.015896    0.119779
     9        -0.307671964486176    1.564e-06    0.009050    0.015897    0.015897    0.119779
    10        -0.307671896921355    5.157e-07    0.009050    0.015897    0.015897    0.119779
    11        -0.307671890599136    1.556e-07    0.009050    0.015897    0.015897    0.119779
    12        -0.307671885475133    5.623e-08    0.009050    0.015897    0.015897    0.119779

    Iterations converged.


    Largest TIA Amplitudes:
              3 153        -0.0105783584
              2 104        -0.0105783580
              3 155        -0.0074907980
              2 106        -0.0074907978
              3 156        -0.0065169397
              2 107        -0.0065169396
              1   4         0.0039028131
              1  20         0.0034132422
              3 158        -0.0033712495
              2 109        -0.0033712495

    Largest TIjAb Amplitudes:
      1   1   5   5        -0.0188244451
      1   1  10  10        -0.0166878766
      2   2 107 107        -0.0150137195
      3   3 156 156        -0.0150137193
      2   2 115 115        -0.0132466839
      3   3 164 164        -0.0132466838
      1   1   4  10         0.0131469113
      1   1  10   4         0.0131469113
      1   1   5  10        -0.0126015339
      1   1  10   5        -0.0126015339

    SCF energy       (wfn)                    = -100.070314504995380
    Reference energy (file100)                = -100.070314504995878

    Opposite-spin MP2 correlation energy      =   -0.235412392208277
    Same-spin MP2 correlation energy          =   -0.074818867667673
    Singles MP2 correlation energy            =   -0.000000000000000
    MP2 correlation energy                    =   -0.310231259875951
      * MP2 total energy                      = -100.380545764871826

    Opposite-spin CCSD correlation energy     =   -0.240866140054587
    Same-spin CCSD correlation energy         =   -0.066805745420534
    Singles CCSD correlation energy           =    0.000000000000000
    CCSD correlation energy                   =   -0.307671885475133
      * CCSD total energy                     = -100.377986390471008

            **************************
            *                        *
            *        CCTRIPLES       *
            *                        *
            **************************


    Wave function   =    CCSD_T
    Reference wfn   =      RHF

    Nuclear Rep. energy (wfn)                =    5.166414476695584
    SCF energy          (wfn)                = -100.070314504995380
    Reference energy    (file100)            = -100.070314504995878
    CCSD energy         (file100)            =   -0.307671885475133
    Total CCSD energy   (file100)            = -100.377986390471008

    Number of ijk index combinations:               20
    Memory available in words        :     31250000000
    ~Words needed per explicit thread:         1620896
    Number of threads for explicit ijk threading:   48

    (T) energy                                =   -0.008622890260111
      * CCSD(T) total energy                  = -100.386609280731122


    Psi4 stopped on: Thursday, 21 January 2021 06:00PM
    Psi4 wall time for execution: 0:03:06.55

*** Psi4 exiting successfully. Buy a developer a beer!
