
    -----------------------------------------------------------------------
          Psi4: An Open-Source Ab Initio Electronic Structure Package
                               Psi4 1.4a3.dev88 

                         Git: Rev {master} 262e345 


    D. G. A. Smith, L. A. Burns, A. C. Simmonett, R. M. Parrish,
    M. C. Schieber, R. Galvelis, P. Kraus, H. Kruse, R. Di Remigio,
    A. Alenaizan, A. M. James, S. Lehtola, J. P. Misiewicz, M. Scheurer,
    R. A. Shaw, J. B. Schriber, Y. Xie, Z. L. Glick, D. A. Sirianni,
    J. S. O'Brien, J. M. Waldrop, A. Kumar, E. G. Hohenstein,
    B. P. Pritchard, B. R. Brooks, H. F. Schaefer III, A. Yu. Sokolov,
    K. Patkowski, A. E. DePrince III, U. Bozkaya, R. A. King,
    F. A. Evangelista, J. M. Turney, T. D. Crawford, C. D. Sherrill,
    J. Chem. Phys. 152(18) 184108 (2020). https://doi.org/10.1063/5.0006002

                            Additional Code Authors
    E. T. Seidl, C. L. Janssen, E. F. Valeev, M. L. Leininger,
    J. F. Gonthier, R. M. Richard, H. R. McAlexander, M. Saitow, X. Wang,
    P. Verma, and M. H. Lechner

             Previous Authors, Complete List of Code Contributors,
                       and Citations for Specific Modules
    https://github.com/psi4/psi4/blob/master/codemeta.json
    https://github.com/psi4/psi4/graphs/contributors
    http://psicode.org/psi4manual/master/introduction.html#citing-psifour

    -----------------------------------------------------------------------


    Psi4 started on: Saturday, 23 January 2021 12:12AM

    Process ID: 393116
    Host:       n412-047.vsc4.prov
    PSIDATADIR: /home/fs71337/gallo4/psi4/eri-6/psi4/build/stage/share/psi4
    Memory:     500.0 MiB
    Threads:    48
    
  ==> Input File <==

--------------------------------------------------------------------------
# Any line starting with the # character is a comment line
memory 250000 mb
molecule molecule{
0 1
F          0.0000000000        0.0000000000       -0.0464431179
H          0.0000000000        0.0000000000        0.8753944384
}

set {
  reference rhf
  basis aug-cc-pV(6+d)Z
  scf_type OUT_OF_CORE
  freeze_core true
}

energy('ccsd(t)')
--------------------------------------------------------------------------

  Memory set to 232.831 GiB by Python driver.

Scratch directory: /binfl/lv71337/airmler/temp/

*** tstart() called on n412-047.vsc4.prov
*** at Sat Jan 23 00:12:51 2021

   => Loading Basis Set <=

    Name: AUG-CC-PV(6+D)Z
    Role: ORBITAL
    Keyword: BASIS
    atoms 1 entry F          line   555 file /home/fs71337/gallo4/psi4/eri-6/psi4/build/stage/share/psi4/basis/aug-cc-pv_6pd_z.gbs 
    atoms 2 entry H          line    51 file /home/fs71337/gallo4/psi4/eri-6/psi4/build/stage/share/psi4/basis/aug-cc-pv_6pd_z.gbs 


         ---------------------------------------------------------
                                   SCF
               by Justin Turney, Rob Parrish, Andy Simmonett
                          and Daniel G. A. Smith
                              RHF Reference
                       48 Threads, 238418 MiB Core
         ---------------------------------------------------------

  ==> Geometry <==

    Molecular point group: c2v
    Full point group: C_inf_v

    Geometry (in Angstrom), charge = 0, multiplicity = 1:

       Center              X                  Y                   Z               Mass       
    ------------   -----------------  -----------------  -----------------  -----------------
         F            0.000000000000     0.000000000000    -0.046438086971    18.998403162730
         H            0.000000000000     0.000000000000     0.875399469329     1.007825032230

  Running in c2v symmetry.

  Rotational constants: A = ************  B =     20.72768  C =     20.72768 [cm^-1]
  Rotational constants: A = ************  B = 621400.18987  C = 621400.18987 [MHz]
  Nuclear repulsion =    5.166414476695584

  Charge       = 0
  Multiplicity = 1
  Electrons    = 10
  Nalpha       = 5
  Nbeta        = 5

  ==> Algorithm <==

  SCF Algorithm Type is OUT_OF_CORE.
  DIIS enabled.
  MOM disabled.
  Fractional occupation disabled.
  Guess Type is SAD.
  Energy threshold   = 1.00e-08
  Density threshold  = 1.00e-08
  Integral threshold = 1.00e-12

  ==> Primary Basis <==

  Basis Set: AUG-CC-PV(6+D)Z
    Blend: AUG-CC-PV(6+D)Z
    Number of shells: 62
    Number of basis function: 316
    Number of Cartesian functions: 476
    Spherical Harmonics?: true
    Max angular momentum: 6

  ==> Integral Setup <==

  ==> DiskJK: Disk-Based J/K Matrices <==

    J tasked:                  Yes
    K tasked:                  Yes
    wK tasked:                  No
    Memory [MiB]:           178813
    Schwarz Cutoff:          1E-12

  Minimum eigenvalue in the overlap matrix is 3.5039054485E-06.
  Reciprocal condition number of the overlap matrix is 4.8847880796E-07.
    Using symmetric orthogonalization.

  ==> Pre-Iterations <==

  SCF Guess: Superposition of Atomic Densities via on-the-fly atomic UHF (no occupation information).


 WARNING: Atomic UHF is not converging! Try casting from a smaller basis or call Rob at CCMST.

 WARNING: Atomic UHF is not converging! Try casting from a smaller basis or call Rob at CCMST.
   -------------------------
    Irrep   Nso     Nmo    
   -------------------------
     A1       112     112 
     A2        50      50 
     B1        77      77 
     B2        77      77 
   -------------------------
    Total     316     316
   -------------------------

  ==> Iterations <==

                        Total Energy        Delta E     RMS |[F,P]|

   @RHF iter SAD:   -27.34554244913175   -2.73455e+01   0.00000e+00 
    Occupation by irrep:
             A1    A2    B1    B2 
    DOCC [     4,    0,    0,    1 ]

   @RHF iter   1:   -96.29231421172155   -6.89468e+01   2.60737e-02 DIIS
    Occupation by irrep:
             A1    A2    B1    B2 
    DOCC [     3,    0,    1,    1 ]

   @RHF iter   2:   -90.84185659602643    5.45046e+00   1.89226e-02 DIIS
   @RHF iter   3:   -99.12120554153343   -8.27935e+00   1.12807e-02 DIIS
   @RHF iter   4:  -100.00089218017189   -8.79687e-01   2.66393e-03 DIIS
   @RHF iter   5:  -100.06989783813479   -6.90057e-02   1.93142e-04 DIIS
   @RHF iter   6:  -100.07049727705041   -5.99439e-04   3.70000e-05 DIIS
   @RHF iter   7:  -100.07051039162961   -1.31146e-05   1.03064e-05 DIIS
   @RHF iter   8:  -100.07051142467577   -1.03305e-06   1.88129e-06 DIIS
   @RHF iter   9:  -100.07051147928307   -5.46073e-08   1.70226e-07 DIIS
   @RHF iter  10:  -100.07051147988278   -5.99712e-10   3.62862e-08 DIIS
   @RHF iter  11:  -100.07051147989979   -1.70104e-11   3.09467e-09 DIIS
  Energy and wave function converged.


  ==> Post-Iterations <==

    Orbital Energies [Eh]
    ---------------------

    Doubly Occupied:                                                      

       1A1   -26.294658     2A1    -1.599259     3A1    -0.766313  
       1B1    -0.649896     1B2    -0.649896  

    Virtual:                                                              

       4A1     0.020060     5A1     0.085884     2B1     0.110268  
       2B2     0.110268     6A1     0.114817     3B1     0.166660  
       3B2     0.166660     7A1     0.171797     8A1     0.272134  
       9A1     0.335589    10A1     0.364327     1A2     0.364327  
       4B1     0.405931     4B2     0.405931    11A1     0.431162  
       5B1     0.462386     5B2     0.462386     6B2     0.530140  
       6B1     0.530140    12A1     0.533635     2A2     0.541315  
      13A1     0.541315    14A1     0.615257    15A1     0.742238  
       7B1     0.866969     7B2     0.866969     8B2     0.988094  
       8B1     0.988094    16A1     1.010482     3A2     1.036855  
      17A1     1.036855     9B1     1.040173     9B2     1.040173  
      18A1     1.055755    19A1     1.218398     4A2     1.229141  
      20A1     1.229141    10B1     1.237991    10B2     1.237991  
      11B1     1.277511    11B2     1.277511    21A1     1.336987  
       5A2     1.375659    22A1     1.375659    12B1     1.424965  
      12B2     1.424965    23A1     1.509152    13B1     1.638794  
      13B2     1.638794    24A1     1.877296    25A1     1.985950  
      14B1     1.994740    14B2     1.994740     6A2     2.049921  
      26A1     2.049921     7A2     2.124155    27A1     2.124155  
      15B1     2.273038    15B2     2.273038    16B1     2.280269  
      16B2     2.280269     8A2     2.309438    28A1     2.309438  
      29A1     2.367688    30A1     2.470050    17B1     2.649853  
      17B2     2.649853     9A2     2.825737    31A1     2.825737  
      32A1     2.835797    18B1     2.866188    18B2     2.866188  
      10A2     3.036291    33A1     3.036291    19B1     3.117473  
      19B2     3.117473    20B2     3.151607    20B1     3.151607  
      11A2     3.153494    34A1     3.153494    35A1     3.175966  
      36A1     3.274483    21B1     3.399108    21B2     3.399108  
      12A2     3.594887    37A1     3.594887    22B1     3.595835  
      22B2     3.595835    38A1     3.690993    23B1     4.131958  
      23B2     4.131958    24B1     4.150239    24B2     4.150239  
      39A1     4.229647    40A1     4.240153    13A2     4.240153  
      25B1     4.324087    25B2     4.324087    41A1     4.340629  
      26B1     4.577408    26B2     4.577408    14A2     4.655615  
      42A1     4.655615    43A1     4.703610    15A2     4.932282  
      44A1     4.932282    27B1     4.955564    27B2     4.955564  
      45A1     5.000922    28B1     5.025182    28B2     5.025182  
      16A2     5.328215    46A1     5.328215    47A1     5.463873  
      29B1     5.530284    29B2     5.530284    30B2     6.006670  
      30B1     6.006670    31B2     6.247270    31B1     6.247270  
      17A2     6.372453    48A1     6.372453    32B2     6.638377  
      32B1     6.638377    49A1     6.745020    33B2     6.860122  
      33B1     6.860122    18A2     6.891417    50A1     6.891417  
      19A2     6.921555    51A1     6.921555    52A1     6.941263  
      34B1     7.006102    34B2     7.006102    20A2     7.177539  
      53A1     7.177539    54A1     7.318910    35B1     7.480545  
      35B2     7.480545    55A1     7.573290    21A2     7.573290  
      36B2     7.607432    36B1     7.607432    56A1     7.743677  
      22A2     7.885281    57A1     7.885281    37B2     8.389707  
      37B1     8.389707    58A1     8.633847    23A2     8.881875  
      59A1     8.881875    60A1     8.989874    38B2     9.083245  
      38B1     9.083245    39B1     9.330375    39B2     9.330375  
      24A2     9.398512    61A1     9.398512    40B2     9.642200  
      40B1     9.642200    62A1     9.946735    41B2     9.953091  
      41B1     9.953091    25A2    10.066165    63A1    10.066165  
      64A1    10.208169    42B2    10.705114    42B1    10.705114  
      65A1    10.810511    43B2    11.540794    43B1    11.540794  
      26A2    11.927378    66A1    11.927378    67A1    12.125076  
      68A1    12.134832    27A2    12.134832    44B2    12.157053  
      44B1    12.157053    45B1    12.256326    45B2    12.256326  
      28A2    12.785736    69A1    12.785736    70A1    13.061079  
      46B2    14.088379    46B1    14.088379    47B1    14.104539  
      47B2    14.104539    48B2    14.388240    48B1    14.388240  
      29A2    14.414138    71A1    14.414138    30A2    14.450425  
      72A1    14.450425    49B2    14.479815    49B1    14.479815  
      73A1    14.619593    50B2    14.997244    50B1    14.997244  
      31A2    15.194040    74A1    15.194040    51B2    15.682812  
      51B1    15.682812    75A1    15.720266    76A1    16.532097  
      32A2    16.532097    52B1    16.782047    52B2    16.782047  
      33A2    16.823220    77A1    16.823220    53B1    17.003054  
      53B2    17.003054    78A1    17.129568    54B2    17.362978  
      54B1    17.362978    55B1    17.498520    55B2    17.498520  
      79A1    17.916784    34A2    18.293963    80A1    18.293963  
      81A1    18.497638    35A2    18.497638    82A1    18.873185  
      56B2    19.277129    56B1    19.277129    36A2    19.317685  
      83A1    19.317685    57B2    20.161034    57B1    20.161034  
      37A2    20.312396    84A1    20.312396    85A1    20.758372  
      58B2    20.846420    58B1    20.846420    86A1    21.156571  
      59B2    21.337452    59B1    21.337452    38A2    21.354399  
      87A1    21.354399    60B2    21.994450    60B1    21.994450  
      39A2    22.105961    88A1    22.105961    89A1    23.211060  
      61B2    23.346429    61B1    23.346429    40A2    23.973764  
      90A1    23.973764    62B2    24.137165    62B1    24.137165  
      91A1    25.214030    63B2    26.424452    63B1    26.424452  
      92A1    26.758945    93A1    26.954390    41A2    26.954390  
      64B2    27.580496    64B1    27.580496    94A1    28.095034  
      42A2    29.362863    95A1    29.362863    65B1    29.425460  
      65B2    29.425460    96A1    29.712985    43A2    29.712985  
      66B2    29.954548    66B1    29.954548    67B2    30.272239  
      67B1    30.272239    97A1    30.891649    44A2    31.442355  
      98A1    31.442355    68B2    31.882615    68B1    31.882615  
      99A1    31.957678   100A1    33.680972    69B1    35.065500  
      69B2    35.065500    45A2    35.266393   101A1    35.266393  
      70B2    35.459720    70B1    35.459720    71B2    35.485669  
      71B1    35.485669    46A2    35.820027   102A1    35.820027  
     103A1    36.269985    72B2    37.534929    72B1    37.534929  
      73B2    39.356408    73B1    39.356408   104A1    39.562276  
     105A1    40.337966    47A2    40.337966    48A2    40.547414  
     106A1    40.547414    74B2    40.582722    74B1    40.582722  
      49A2    41.675675   107A1    41.675675    75B2    42.363871  
      75B1    42.363871   108A1    42.510741    76B2    43.258411  
      76B1    43.258411    50A2    44.467567   109A1    44.467567  
     110A1    45.535410    77B2    47.434332    77B1    47.434332  
     111A1    49.296157   112A1   132.734707  

    Final Occupation by Irrep:
             A1    A2    B1    B2 
    DOCC [     3,    0,    1,    1 ]

  @RHF Final Energy:  -100.07051147989979

   => Energetics <=

    Nuclear Repulsion Energy =              5.1664144766955840
    One-Electron Energy =                -150.5538088264421788
    Two-Electron Energy =                  45.3168828698467863
    Total Energy =                       -100.0705114798998068

Computation Completed


Properties will be evaluated at   0.000000,   0.000000,   0.000000 [a0]

Properties computed using the SCF density matrix

  Nuclear Dipole Moment: [e a0]
     X:     0.0000      Y:     0.0000      Z:     0.8645

  Electronic Dipole Moment: [e a0]
     X:     0.0000      Y:     0.0000      Z:    -0.1046

  Dipole Moment: [e a0]
     X:     0.0000      Y:     0.0000      Z:     0.7599     Total:     0.7599

  Dipole Moment: [D]
     X:     0.0000      Y:     0.0000      Z:     1.9314     Total:     1.9314


*** tstop() called on n412-047.vsc4.prov at Sat Jan 23 00:19:23 2021
Module time:
	user time   =     398.08 seconds =       6.63 minutes
	system time =      27.43 seconds =       0.46 minutes
	total time  =        392 seconds =       6.53 minutes
Total time:
	user time   =     398.08 seconds =       6.63 minutes
	system time =      27.43 seconds =       0.46 minutes
	total time  =        392 seconds =       6.53 minutes

*** tstart() called on n412-047.vsc4.prov
*** at Sat Jan 23 00:19:23 2021


	Wfn Parameters:
	--------------------
	Wavefunction         = CCSD_T
	Number of irreps     = 4
	Number of MOs        = 316
	Number of active MOs = 315
	AO-Basis             = NONE
	Semicanonical        = false
	Reference            = RHF
	Print Level          = 1

	IRREP	# MOs	# FZDC	# DOCC	# SOCC	# VIRT	# FZVR
	-----	-----	------	------	------	------	------
	 A1	   112	    1	    2	    0	    109	    0
	 A2	   50	    0	    0	    0	    50	    0
	 B1	   77	    0	    1	    0	    76	    0
	 B2	   77	    0	    1	    0	    76	    0
	Transforming integrals...
	IWL integrals will be deleted.
	(OO|OO)...
	Presorting SO-basis two-electron integrals.
	Sorting File: SO Ints (nn|nn) nbuckets = 1
	Constructing frozen core operators
	Starting first half-transformation.
	Sorting half-transformed integrals.
	First half integral transformation complete.
	Starting second half-transformation.
	Two-electron integral transformation complete.
	(OO|OV)...
	Starting second half-transformation.
	Two-electron integral transformation complete.
	(OO|VV)...
	Starting second half-transformation.
	Two-electron integral transformation complete.
	(OV|OO)...
	Starting first half-transformation.
	Sorting half-transformed integrals.
	First half integral transformation complete.
	Starting second half-transformation.
	Two-electron integral transformation complete.
	(OV|OV)...
	Starting second half-transformation.
	Two-electron integral transformation complete.
	(OV|VV)...
	Starting second half-transformation.
	Two-electron integral transformation complete.
	(VV|OO)...
	Starting first half-transformation.
	Sorting half-transformed integrals.
	First half integral transformation complete.
	Starting second half-transformation.
	Two-electron integral transformation complete.
	(VV|OV)...
	Starting second half-transformation.
	Two-electron integral transformation complete.
	(VV|VV)...
	Starting second half-transformation.
	Two-electron integral transformation complete.
	Frozen core energy     =    -76.62765055520559

	Size of irrep 0 of <ab|cd> integrals:    672.520 (MW) /   5380.164 (MB)
	Size of irrep 1 of <ab|cd> integrals:    504.092 (MW) /   4032.738 (MB)
	Size of irrep 2 of <ab|cd> integrals:    584.092 (MW) /   4672.738 (MB)
	Size of irrep 3 of <ab|cd> integrals:    584.092 (MW) /   4672.738 (MB)
	Total:                                  2344.797 (MW) /  18758.378 (MB)

	Size of irrep 0 of <ia|bc> integrals:      9.595 (MW) /     76.762 (MB)
	Size of irrep 1 of <ia|bc> integrals:      5.658 (MW) /     45.263 (MB)
	Size of irrep 2 of <ia|bc> integrals:      7.516 (MW) /     60.130 (MB)
	Size of irrep 3 of <ia|bc> integrals:      7.516 (MW) /     60.130 (MB)
	Total:                                    30.286 (MW) /    242.285 (MB)

	Size of irrep 0 of tijab amplitudes:       0.156 (MW) /      1.245 (MB)
	Size of irrep 1 of tijab amplitudes:       0.045 (MW) /      0.359 (MB)
	Size of irrep 2 of tijab amplitudes:       0.097 (MW) /      0.773 (MB)
	Size of irrep 3 of tijab amplitudes:       0.097 (MW) /      0.773 (MB)
	Total:                                     0.394 (MW) /      3.151 (MB)

	Nuclear Rep. energy          =      5.16641447669558
	SCF energy                   =   -100.07051147989979
	One-electron energy          =    -49.88782281174757
	Two-electron energy          =     21.27854741035715
	Reference energy             =   -100.07051147990043

*** tstop() called on n412-047.vsc4.prov at Sat Jan 23 00:25:18 2021
Module time:
	user time   =     122.86 seconds =       2.05 minutes
	system time =      83.55 seconds =       1.39 minutes
	total time  =        355 seconds =       5.92 minutes
Total time:
	user time   =     520.94 seconds =       8.68 minutes
	system time =     110.98 seconds =       1.85 minutes
	total time  =        747 seconds =      12.45 minutes
            **************************
            *                        *
            *        CCENERGY        *
            *                        *
            **************************

    Nuclear Rep. energy (wfn)     =    5.166414476695584
    SCF energy          (wfn)     = -100.070511479899793
    Reference energy    (file100) = -100.070511479900432

    Input parameters:
    -----------------
    Wave function   =     CCSD_T
    Reference wfn   =     RHF
    Brueckner       =     No
    Memory (Mbytes) =     250000.0
    Maxiter         =     50
    R_Convergence   =     1.0e-07
    E_Convergence   =     1.0e-06
    Restart         =     Yes
    DIIS            =     Yes
    AO Basis        =     NONE
    ABCD            =     NEW
    Cache Level     =     2
    Cache Type      =     LOW
    Print Level     =     1
    Num. of threads =     48
    # Amps to Print =     10
    Print MP2 Amps? =     No
    Analyze T2 Amps =     No
    Print Pair Ener =     No
    Local CC        =     No
    SCS-MP2         =     False
    SCSN-MP2        =     False
    SCS-CCSD        =     False

MP2 correlation energy -0.3141780777906798
                Solving CC Amplitude Equations
                ------------------------------
  Iter             Energy              RMS        T1Diag      D1Diag    New D1Diag    D2Diag
  ----     ---------------------    ---------   ----------  ----------  ----------   --------
     0        -0.314178077790680    0.000e+00    0.000000    0.000000    0.000000    0.113700
     1        -0.304838877574908    3.198e-02    0.008180    0.014260    0.014260    0.113116
     2        -0.309431976795941    1.136e-02    0.007601    0.013160    0.013160    0.117371
     3        -0.310686588598540    3.940e-03    0.008715    0.015248    0.015248    0.119403
     4        -0.310522453679517    7.663e-04    0.008848    0.015492    0.015492    0.119607
     5        -0.310515130935279    2.493e-04    0.008899    0.015603    0.015603    0.119647
     6        -0.310521915572661    6.674e-05    0.008915    0.015639    0.015639    0.119651
     7        -0.310521320270065    2.031e-05    0.008918    0.015647    0.015647    0.119646
     8        -0.310520820120940    5.809e-06    0.008918    0.015650    0.015650    0.119645
     9        -0.310520842243214    1.589e-06    0.008919    0.015650    0.015650    0.119644
    10        -0.310520776022191    5.217e-07    0.008919    0.015650    0.015650    0.119644
    11        -0.310520768551153    1.649e-07    0.008919    0.015651    0.015651    0.119644
    12        -0.310520763453398    5.971e-08    0.008919    0.015651    0.015651    0.119644

    Iterations converged.


    Largest TIA Amplitudes:
              3 235        -0.0090281879
              2 159        -0.0090281875
              2 161        -0.0076958623
              3 237        -0.0076958621
              2 162        -0.0072981666
              3 238        -0.0072981664
              2 164        -0.0041439257
              3 240        -0.0041439255
              1   5         0.0037897096
              3 236        -0.0033339079

    Largest TIjAb Amplitudes:
      1   1   5   5        -0.0194674911
      3   3 245 245        -0.0160121673
      2   2 169 169        -0.0160121672
      1   1   5  11         0.0142899771
      1   1  11   5         0.0142899771
      1   1  11  11        -0.0128738477
      1   1   5  10         0.0126247283
      1   1  10   5         0.0126247283
      1   1  10  10        -0.0125697787
      1   1   2   5        -0.0120836115

    SCF energy       (wfn)                    = -100.070511479899793
    Reference energy (file100)                = -100.070511479900432

    Opposite-spin MP2 correlation energy      =   -0.239095615048667
    Same-spin MP2 correlation energy          =   -0.075082462742013
    Singles MP2 correlation energy            =   -0.000000000000000
    MP2 correlation energy                    =   -0.314178077790680
      * MP2 total energy                      = -100.384689557691118

    Opposite-spin CCSD correlation energy     =   -0.243499565987900
    Same-spin CCSD correlation energy         =   -0.067021197465462
    Singles CCSD correlation energy           =    0.000000000000000
    CCSD correlation energy                   =   -0.310520763453398
      * CCSD total energy                     = -100.381032243353829

            **************************
            *                        *
            *        CCTRIPLES       *
            *                        *
            **************************


    Wave function   =    CCSD_T
    Reference wfn   =      RHF

    Nuclear Rep. energy (wfn)                =    5.166414476695584
    SCF energy          (wfn)                = -100.070511479899793
    Reference energy    (file100)            = -100.070511479900432
    CCSD energy         (file100)            =   -0.310520763453398
    Total CCSD energy   (file100)            = -100.381032243353829

    Number of ijk index combinations:               20
    Memory available in words        :     31250000000
    ~Words needed per explicit thread:         5180116
    Number of threads for explicit ijk threading:   48

    (T) energy                                =   -0.008734968306192
      * CCSD(T) total energy                  = -100.389767211660029


    Psi4 stopped on: Saturday, 23 January 2021 12:28AM
    Psi4 wall time for execution: 0:15:33.84

*** Psi4 exiting successfully. Buy a developer a beer!
