
    -----------------------------------------------------------------------
          Psi4: An Open-Source Ab Initio Electronic Structure Package
                               Psi4 1.4a3.dev88 

                         Git: Rev {master} 262e345 


    D. G. A. Smith, L. A. Burns, A. C. Simmonett, R. M. Parrish,
    M. C. Schieber, R. Galvelis, P. Kraus, H. Kruse, R. Di Remigio,
    A. Alenaizan, A. M. James, S. Lehtola, J. P. Misiewicz, M. Scheurer,
    R. A. Shaw, J. B. Schriber, Y. Xie, Z. L. Glick, D. A. Sirianni,
    J. S. O'Brien, J. M. Waldrop, A. Kumar, E. G. Hohenstein,
    B. P. Pritchard, B. R. Brooks, H. F. Schaefer III, A. Yu. Sokolov,
    K. Patkowski, A. E. DePrince III, U. Bozkaya, R. A. King,
    F. A. Evangelista, J. M. Turney, T. D. Crawford, C. D. Sherrill,
    J. Chem. Phys. 152(18) 184108 (2020). https://doi.org/10.1063/5.0006002

                            Additional Code Authors
    E. T. Seidl, C. L. Janssen, E. F. Valeev, M. L. Leininger,
    J. F. Gonthier, R. M. Richard, H. R. McAlexander, M. Saitow, X. Wang,
    P. Verma, and M. H. Lechner

             Previous Authors, Complete List of Code Contributors,
                       and Citations for Specific Modules
    https://github.com/psi4/psi4/blob/master/codemeta.json
    https://github.com/psi4/psi4/graphs/contributors
    http://psicode.org/psi4manual/master/introduction.html#citing-psifour

    -----------------------------------------------------------------------


    Psi4 started on: Tuesday, 26 January 2021 06:19PM

    Process ID: 404231
    Host:       n412-039.vsc4.prov
    PSIDATADIR: /home/fs71337/gallo4/psi4/eri-6/psi4/build/stage/share/psi4
    Memory:     500.0 MiB
    Threads:    48
    
  ==> Input File <==

--------------------------------------------------------------------------
# Any line starting with the # character is a comment line
memory 250000 mb
molecule molecule{
0 1
F          0.0000000000        0.0000000000       -0.0464431179
H          0.0000000000        0.0000000000        0.8753944384
}

set {
  reference rhf
  basis aug-cc-pV(d+d)Z
  scf_type OUT_OF_CORE
  freeze_core true
}

energy('ccsd(t)')
--------------------------------------------------------------------------

  Memory set to 232.831 GiB by Python driver.

Scratch directory: /binfl/lv71337/airmler/temp/

*** tstart() called on n412-039.vsc4.prov
*** at Tue Jan 26 18:19:17 2021

   => Loading Basis Set <=

    Name: AUG-CC-PV(D+D)Z
    Role: ORBITAL
    Keyword: BASIS
    atoms 1 entry F          line   318 file /home/fs71337/gallo4/psi4/eri-6/psi4/build/stage/share/psi4/basis/aug-cc-pv_dpd_z.gbs 
    atoms 2 entry H          line    68 file /home/fs71337/gallo4/psi4/eri-6/psi4/build/stage/share/psi4/basis/aug-cc-pv_dpd_z.gbs 


         ---------------------------------------------------------
                                   SCF
               by Justin Turney, Rob Parrish, Andy Simmonett
                          and Daniel G. A. Smith
                              RHF Reference
                       48 Threads, 238418 MiB Core
         ---------------------------------------------------------

  ==> Geometry <==

    Molecular point group: c2v
    Full point group: C_inf_v

    Geometry (in Angstrom), charge = 0, multiplicity = 1:

       Center              X                  Y                   Z               Mass       
    ------------   -----------------  -----------------  -----------------  -----------------
         F            0.000000000000     0.000000000000    -0.046438086971    18.998403162730
         H            0.000000000000     0.000000000000     0.875399469329     1.007825032230

  Running in c2v symmetry.

  Rotational constants: A = ************  B =     20.72768  C =     20.72768 [cm^-1]
  Rotational constants: A = ************  B = 621400.18987  C = 621400.18987 [MHz]
  Nuclear repulsion =    5.166414476695584

  Charge       = 0
  Multiplicity = 1
  Electrons    = 10
  Nalpha       = 5
  Nbeta        = 5

  ==> Algorithm <==

  SCF Algorithm Type is OUT_OF_CORE.
  DIIS enabled.
  MOM disabled.
  Fractional occupation disabled.
  Guess Type is SAD.
  Energy threshold   = 1.00e-08
  Density threshold  = 1.00e-08
  Integral threshold = 1.00e-12

  ==> Primary Basis <==

  Basis Set: AUG-CC-PV(D+D)Z
    Blend: AUG-CC-PV(D+D)Z
    Number of shells: 14
    Number of basis function: 32
    Number of Cartesian functions: 34
    Spherical Harmonics?: true
    Max angular momentum: 2

  ==> Integral Setup <==

  ==> DiskJK: Disk-Based J/K Matrices <==

    J tasked:                  Yes
    K tasked:                  Yes
    wK tasked:                  No
    Memory [MiB]:           178813
    Schwarz Cutoff:          1E-12

  Minimum eigenvalue in the overlap matrix is 2.1533741684E-03.
  Reciprocal condition number of the overlap matrix is 5.4246082358E-04.
    Using symmetric orthogonalization.

  ==> Pre-Iterations <==

  SCF Guess: Superposition of Atomic Densities via on-the-fly atomic UHF (no occupation information).


 WARNING: Atomic UHF is not converging! Try casting from a smaller basis or call Rob at CCMST.

 WARNING: Atomic UHF is not converging! Try casting from a smaller basis or call Rob at CCMST.
   -------------------------
    Irrep   Nso     Nmo    
   -------------------------
     A1        16      16 
     A2         2       2 
     B1         7       7 
     B2         7       7 
   -------------------------
    Total      32      32
   -------------------------

  ==> Iterations <==

                        Total Energy        Delta E     RMS |[F,P]|

   @RHF iter SAD:   -98.38328698456347   -9.83833e+01   0.00000e+00 
   @RHF iter   1:   -99.89478791311306   -1.51150e+00   3.29382e-02 DIIS
   @RHF iter   2:   -99.98234712819021   -8.75592e-02   2.18325e-02 DIIS
   @RHF iter   3:  -100.03242818906675   -5.00811e-02   1.56987e-03 DIIS
   @RHF iter   4:  -100.03318053604724   -7.52347e-04   3.93937e-04 DIIS
   @RHF iter   5:  -100.03323993504121   -5.93990e-05   7.33227e-05 DIIS
   @RHF iter   6:  -100.03324245978067   -2.52474e-06   9.28083e-06 DIIS
   @RHF iter   7:  -100.03324249692182   -3.71411e-08   1.70393e-06 DIIS
   @RHF iter   8:  -100.03324249774805   -8.26233e-10   3.18167e-07 DIIS
   @RHF iter   9:  -100.03324249779148   -4.34284e-11   4.29494e-08 DIIS
   @RHF iter  10:  -100.03324249779217   -6.96332e-13   4.67588e-09 DIIS
  Energy and wave function converged.


  ==> Post-Iterations <==

    Orbital Energies [Eh]
    ---------------------

    Doubly Occupied:                                                      

       1A1   -26.311014     2A1    -1.605843     3A1    -0.769382  
       1B1    -0.650275     1B2    -0.650275  

    Virtual:                                                              

       4A1     0.035659     5A1     0.194172     2B1     0.244218  
       2B2     0.244218     6A1     0.256011     7A1     0.360891  
       3B1     0.402219     3B2     0.402219     8A1     0.659630  
       9A1     0.938421     1A2     1.346639    10A1     1.346639  
       4B2     1.431522     4B1     1.431522    11A1     1.623565  
       5B1     1.670051     5B2     1.670051    12A1     2.065589  
       6B1     2.158693     6B2     2.158693    13A1     2.658789  
      14A1     3.592324     2A2     4.852751    15A1     4.852751  
       7B1     4.925859     7B2     4.925859    16A1     5.144331  

    Final Occupation by Irrep:
             A1    A2    B1    B2 
    DOCC [     3,    0,    1,    1 ]

  @RHF Final Energy:  -100.03324249779217

   => Energetics <=

    Nuclear Repulsion Energy =              5.1664144766955840
    One-Electron Energy =                -150.4257367048094522
    Two-Electron Energy =                  45.2260797303216862
    Total Energy =                       -100.0332424977921733

Computation Completed


Properties will be evaluated at   0.000000,   0.000000,   0.000000 [a0]

Properties computed using the SCF density matrix

  Nuclear Dipole Moment: [e a0]
     X:     0.0000      Y:     0.0000      Z:     0.8645

  Electronic Dipole Moment: [e a0]
     X:     0.0000      Y:     0.0000      Z:    -0.1010

  Dipole Moment: [e a0]
     X:     0.0000      Y:     0.0000      Z:     0.7635     Total:     0.7635

  Dipole Moment: [D]
     X:     0.0000      Y:     0.0000      Z:     1.9405     Total:     1.9405


*** tstop() called on n412-039.vsc4.prov at Tue Jan 26 18:19:18 2021
Module time:
	user time   =      12.24 seconds =       0.20 minutes
	system time =       0.89 seconds =       0.01 minutes
	total time  =          1 seconds =       0.02 minutes
Total time:
	user time   =      12.24 seconds =       0.20 minutes
	system time =       0.89 seconds =       0.01 minutes
	total time  =          1 seconds =       0.02 minutes

*** tstart() called on n412-039.vsc4.prov
*** at Tue Jan 26 18:19:18 2021


	Wfn Parameters:
	--------------------
	Wavefunction         = CCSD_T
	Number of irreps     = 4
	Number of MOs        = 32
	Number of active MOs = 31
	AO-Basis             = NONE
	Semicanonical        = false
	Reference            = RHF
	Print Level          = 1

	IRREP	# MOs	# FZDC	# DOCC	# SOCC	# VIRT	# FZVR
	-----	-----	------	------	------	------	------
	 A1	   16	    1	    2	    0	    13	    0
	 A2	   2	    0	    0	    0	    2	    0
	 B1	   7	    0	    1	    0	    6	    0
	 B2	   7	    0	    1	    0	    6	    0
	Transforming integrals...
	IWL integrals will be deleted.
	(OO|OO)...
	Presorting SO-basis two-electron integrals.
	Sorting File: SO Ints (nn|nn) nbuckets = 1
	Constructing frozen core operators
	Starting first half-transformation.
	Sorting half-transformed integrals.
	First half integral transformation complete.
	Starting second half-transformation.
	Two-electron integral transformation complete.
	(OO|OV)...
	Starting second half-transformation.
	Two-electron integral transformation complete.
	(OO|VV)...
	Starting second half-transformation.
	Two-electron integral transformation complete.
	(OV|OO)...
	Starting first half-transformation.
	Sorting half-transformed integrals.
	First half integral transformation complete.
	Starting second half-transformation.
	Two-electron integral transformation complete.
	(OV|OV)...
	Starting second half-transformation.
	Two-electron integral transformation complete.
	(OV|VV)...
	Starting second half-transformation.
	Two-electron integral transformation complete.
	(VV|OO)...
	Starting first half-transformation.
	Sorting half-transformed integrals.
	First half integral transformation complete.
	Starting second half-transformation.
	Two-electron integral transformation complete.
	(VV|OV)...
	Starting second half-transformation.
	Two-electron integral transformation complete.
	(VV|VV)...
	Starting second half-transformation.
	Two-electron integral transformation complete.
	Frozen core energy     =    -76.62537630175299

	Size of irrep 0 of <ab|cd> integrals:      0.060 (MW) /      0.480 (MB)
	Size of irrep 1 of <ab|cd> integrals:      0.015 (MW) /      0.123 (MB)
	Size of irrep 2 of <ab|cd> integrals:      0.032 (MW) /      0.259 (MB)
	Size of irrep 3 of <ab|cd> integrals:      0.032 (MW) /      0.259 (MB)
	Total:                                     0.140 (MW) /      1.122 (MB)

	Size of irrep 0 of <ia|bc> integrals:      0.009 (MW) /      0.074 (MB)
	Size of irrep 1 of <ia|bc> integrals:      0.002 (MW) /      0.016 (MB)
	Size of irrep 2 of <ia|bc> integrals:      0.005 (MW) /      0.039 (MB)
	Size of irrep 3 of <ia|bc> integrals:      0.005 (MW) /      0.039 (MB)
	Total:                                     0.021 (MW) /      0.168 (MB)

	Size of irrep 0 of tijab amplitudes:       0.001 (MW) /      0.012 (MB)
	Size of irrep 1 of tijab amplitudes:       0.000 (MW) /      0.002 (MB)
	Size of irrep 2 of tijab amplitudes:       0.001 (MW) /      0.006 (MB)
	Size of irrep 3 of tijab amplitudes:       0.001 (MW) /      0.006 (MB)
	Total:                                     0.003 (MW) /      0.025 (MB)

	Nuclear Rep. energy          =      5.16641447669558
	SCF energy                   =   -100.03324249779217
	One-electron energy          =    -49.79701276483400
	Two-electron energy          =     21.22273209209920
	Reference energy             =   -100.03324249779220

*** tstop() called on n412-039.vsc4.prov at Tue Jan 26 18:19:18 2021
Module time:
	user time   =       0.03 seconds =       0.00 minutes
	system time =       0.07 seconds =       0.00 minutes
	total time  =          0 seconds =       0.00 minutes
Total time:
	user time   =      12.28 seconds =       0.20 minutes
	system time =       0.96 seconds =       0.02 minutes
	total time  =          1 seconds =       0.02 minutes
            **************************
            *                        *
            *        CCENERGY        *
            *                        *
            **************************

    Nuclear Rep. energy (wfn)     =    5.166414476695584
    SCF energy          (wfn)     = -100.033242497792173
    Reference energy    (file100) = -100.033242497792202

    Input parameters:
    -----------------
    Wave function   =     CCSD_T
    Reference wfn   =     RHF
    Brueckner       =     No
    Memory (Mbytes) =     250000.0
    Maxiter         =     50
    R_Convergence   =     1.0e-07
    E_Convergence   =     1.0e-06
    Restart         =     Yes
    DIIS            =     Yes
    AO Basis        =     NONE
    ABCD            =     NEW
    Cache Level     =     2
    Cache Type      =     LOW
    Print Level     =     1
    Num. of threads =     48
    # Amps to Print =     10
    Print MP2 Amps? =     No
    Analyze T2 Amps =     No
    Print Pair Ener =     No
    Local CC        =     No
    SCS-MP2         =     False
    SCSN-MP2        =     False
    SCS-CCSD        =     False

MP2 correlation energy -0.2225523678373851
                Solving CC Amplitude Equations
                ------------------------------
  Iter             Energy              RMS        T1Diag      D1Diag    New D1Diag    D2Diag
  ----     ---------------------    ---------   ----------  ----------  ----------   --------
     0        -0.222552367837385    0.000e+00    0.000000    0.000000    0.000000    0.109227
     1        -0.221328886299068    3.741e-02    0.011122    0.019377    0.019377    0.112098
     2        -0.225172678883007    1.196e-02    0.010599    0.018486    0.018486    0.116643
     3        -0.226323278634069    4.840e-03    0.012292    0.021604    0.021604    0.118998
     4        -0.226238965309911    6.783e-04    0.012459    0.021947    0.021947    0.119139
     5        -0.226232137093039    1.903e-04    0.012492    0.022034    0.022034    0.119155
     6        -0.226234703100641    5.102e-05    0.012504    0.022066    0.022066    0.119155
     7        -0.226233975872581    1.425e-05    0.012506    0.022073    0.022073    0.119150
     8        -0.226233710882808    3.914e-06    0.012506    0.022074    0.022074    0.119149
     9        -0.226233750764140    1.063e-06    0.012507    0.022075    0.022075    0.119149
    10        -0.226233721153758    3.171e-07    0.012507    0.022075    0.022075    0.119149
    11        -0.226233720551474    9.029e-08    0.012507    0.022075    0.022075    0.119149

    Iterations converged.


    Largest TIA Amplitudes:
              2  15        -0.0195560162
              3  21        -0.0195560162
              3  22        -0.0098614647
              2  16        -0.0098614646
              1   1         0.0095049092
              1   3         0.0078295249
              1   9        -0.0053313741
              0   3         0.0045105724
              0   2         0.0041166352
              1   0         0.0038010240

    Largest TIjAb Amplitudes:
      2   2  18  18        -0.0359844238
      3   3  24  24        -0.0359844238
      2   3  18  24        -0.0253143407
      3   2  24  18        -0.0253143407
      1   1   5   5        -0.0243273156
      3   3  21  24        -0.0194411348
      3   3  24  21        -0.0194411348
      2   2  15  18        -0.0194411347
      2   2  18  15        -0.0194411347
      1   1   4   4        -0.0186483689

    SCF energy       (wfn)                    = -100.033242497792173
    Reference energy (file100)                = -100.033242497792202

    Opposite-spin MP2 correlation energy      =   -0.163055537330829
    Same-spin MP2 correlation energy          =   -0.059496830506556
    Singles MP2 correlation energy            =   -0.000000000000000
    MP2 correlation energy                    =   -0.222552367837385
      * MP2 total energy                      = -100.255794865629582

    Opposite-spin CCSD correlation energy     =   -0.173339856709200
    Same-spin CCSD correlation energy         =   -0.052893863842274
    Singles CCSD correlation energy           =    0.000000000000000
    CCSD correlation energy                   =   -0.226233720551474
      * CCSD total energy                     = -100.259476218343679

            **************************
            *                        *
            *        CCTRIPLES       *
            *                        *
            **************************


    Wave function   =    CCSD_T
    Reference wfn   =      RHF

    Nuclear Rep. energy (wfn)                =    5.166414476695584
    SCF energy          (wfn)                = -100.033242497792173
    Reference energy    (file100)            = -100.033242497792202
    CCSD energy         (file100)            =   -0.226233720551474
    Total CCSD energy   (file100)            = -100.259476218343679

    Number of ijk index combinations:               20
    Memory available in words        :     31250000000
    ~Words needed per explicit thread:            8788
    Number of threads for explicit ijk threading:   48

    (T) energy                                =   -0.004059699146600
      * CCSD(T) total energy                  = -100.263535917490273


    Psi4 stopped on: Tuesday, 26 January 2021 06:19PM
    Psi4 wall time for execution: 0:00:03.04

*** Psi4 exiting successfully. Buy a developer a beer!
