
    -----------------------------------------------------------------------
          Psi4: An Open-Source Ab Initio Electronic Structure Package
                               Psi4 1.2a1.dev939 

                         Git: Rev {HEAD} fa1ec19 


    R. M. Parrish, L. A. Burns, D. G. A. Smith, A. C. Simmonett,
    A. E. DePrince III, E. G. Hohenstein, U. Bozkaya, A. Yu. Sokolov,
    R. Di Remigio, R. M. Richard, J. F. Gonthier, A. M. James,
    H. R. McAlexander, A. Kumar, M. Saitow, X. Wang, B. P. Pritchard,
    P. Verma, H. F. Schaefer III, K. Patkowski, R. A. King, E. F. Valeev,
    F. A. Evangelista, J. M. Turney, T. D. Crawford, and C. D. Sherrill,
    J. Chem. Theory Comput. 13(7) pp 3185--3197 (2017).
    (doi: 10.1021/acs.jctc.7b00174)

    -----------------------------------------------------------------------


    Psi4 started on: Friday, 03 May 2019 11:30AM

    Process ID:  16286
    PSIDATADIR: /home/grueneis/src/psi4/objdir/stage/usr/local/psi4/share/psi4
    Memory:     500.0 MiB
    Threads:    1
    
  ==> Input File <==

--------------------------------------------------------------------------
# Any line starting with the # character is a comment line

memory 32000 mb

molecule molecule {
0 1
C          0.0000000000        0.0000000000        0.5128013035
O          0.0000000000        0.0000000000        1.6988856423
Cl         1.4380172470        0.0000000000       -0.4631957958
Cl        -1.4380172470        0.0000000000       -0.4631957958
}

set {
  reference rhf
  basis aug-cc-pv(Q+d)z
  scf_type OUT_OF_CORE
  freeze_core true
}

energy('ccsd')
--------------------------------------------------------------------------

  Memory set to  29.802 GiB by Python driver.

*** tstart() called on cqc05
*** at Fri May  3 11:30:49 2019

   => Loading Basis Set <=

    Name: AUG-CC-PV(Q+D)Z
    Role: ORBITAL
    Keyword: BASIS
    atoms 1   entry C          line   319 file /home/grueneis/src/psi4/objdir/stage/usr/local/psi4/share/psi4/basis/aug-cc-pv_qpd_z.gbs 
    atoms 2   entry O          line   439 file /home/grueneis/src/psi4/objdir/stage/usr/local/psi4/share/psi4/basis/aug-cc-pv_qpd_z.gbs 
    atoms 3-4 entry CL         line  1246 file /home/grueneis/src/psi4/objdir/stage/usr/local/psi4/share/psi4/basis/aug-cc-pv_qpd_z.gbs 


         ---------------------------------------------------------
                                   SCF
            by Justin Turney, Rob Parrish, Andy Simmonett
                             and Daniel Smith
                              RHF Reference
                        1 Threads,  30517 MiB Core
         ---------------------------------------------------------

  ==> Geometry <==

    Molecular point group: c2v
    Full point group: C2v

    Geometry (in Angstrom), charge = 0, multiplicity = 1:

       Center              X                  Y                   Z               Mass       
    ------------   -----------------  -----------------  -----------------  -----------------
           C          0.000000000000     0.000000000000     0.503281540354    12.000000000000
           O          0.000000000000     0.000000000000     1.689365879154    15.994914619560
          CL          1.438017247000     0.000000000000    -0.472715558946    34.968852682000
          CL         -1.438017247000    -0.000000000000    -0.472715558946    34.968852682000

  Running in c2v symmetry.

  Rotational constants: A =      0.26210  B =      0.11656  C =      0.08068 [cm^-1]
  Rotational constants: A =   7857.67759  B =   3494.44032  C =   2418.77204 [MHz]
  Nuclear repulsion =  192.136736643142626

  Charge       = 0
  Multiplicity = 1
  Electrons    = 48
  Nalpha       = 24
  Nbeta        = 24

  ==> Algorithm <==

  SCF Algorithm Type is OUT_OF_CORE.
  DIIS enabled.
  MOM disabled.
  Fractional occupation disabled.
  Guess Type is SAD.
  Energy threshold   = 1.00e-08
  Density threshold  = 1.00e-08
  Integral threshold = 0.00e+00

  ==> Primary Basis <==

  Basis Set: AUG-CC-PV(Q+D)Z
    Blend: AUG-CC-PV(Q+D)Z
    Number of shells: 86
    Number of basis function: 338
    Number of Cartesian functions: 440
    Spherical Harmonics?: true
    Max angular momentum: 4

  ==> Pre-Iterations <==

   -------------------------------------------------------
    Irrep   Nso     Nmo     Nalpha   Nbeta   Ndocc  Nsocc
   -------------------------------------------------------
     A1       118     118       0       0       0       0
     A2        55      55       0       0       0       0
     B1        94      94       0       0       0       0
     B2        71      71       0       0       0       0
   -------------------------------------------------------
    Total     338     338      24      24      24       0
   -------------------------------------------------------

  ==> Integral Setup <==

  ==> DiskJK: Disk-Based J/K Matrices <==

    J tasked:                  Yes
    K tasked:                  Yes
    wK tasked:                  No
    Memory (MB):             22888
    Schwarz Cutoff:          1E-12

  Minimum eigenvalue in the overlap matrix is 3.7440659264E-05.
  Using Symmetric Orthogonalization.

  SCF Guess: Superposition of Atomic Densities via on-the-fly atomic UHF.

  ==> Iterations <==

                        Total Energy        Delta E     RMS |[F,P]|

   @RHF iter   0: -1032.80830090741983   -1.03281e+03   1.89490e-02 
   @RHF iter   1: -1031.58799400279463    1.22031e+00   4.01629e-03 
   @RHF iter   2: -1031.66664646823415   -7.86525e-02   3.60944e-03 DIIS
   @RHF iter   3: -1031.81263278287884   -1.45986e-01   4.10882e-04 DIIS
   @RHF iter   4: -1031.81717722587723   -4.54444e-03   1.89411e-04 DIIS
   @RHF iter   5: -1031.81810483624008   -9.27610e-04   5.65995e-05 DIIS
   @RHF iter   6: -1031.81824292806505   -1.38092e-04   1.52355e-05 DIIS
   @RHF iter   7: -1031.81825277677331   -9.84871e-06   5.77410e-06 DIIS
   @RHF iter   8: -1031.81825403121275   -1.25444e-06   2.01079e-06 DIIS
   @RHF iter   9: -1031.81825424223553   -2.11023e-07   6.72914e-07 DIIS
   @RHF iter  10: -1031.81825426787282   -2.56373e-08   1.53126e-07 DIIS
   @RHF iter  11: -1031.81825426911041   -1.23759e-09   3.22101e-08 DIIS
   @RHF iter  12: -1031.81825426915793   -4.75211e-11   7.15293e-09 DIIS

  ==> Post-Iterations <==

    Orbital Energies (a.u.)
    -----------------------

    Doubly Occupied:                                                      

       1B1  -104.888367     1A1  -104.888367     2A1   -20.619093  
       3A1   -11.473940     2B1   -10.614024     4A1   -10.614009  
       3B1    -8.081034     5A1    -8.081030     1A2    -8.079051  
       1B2    -8.079049     4B1    -8.078926     6A1    -8.078925  
       7A1    -1.477707     8A1    -1.204970     5B1    -1.140941  
       9A1    -0.812229     6B1    -0.706241    10A1    -0.700204  
       2B2    -0.646131    11A1    -0.532066     2A2    -0.501842  
       3B2    -0.497907     7B1    -0.495522     8B1    -0.476588  

    Virtual:                                                              

      12A1     0.040575     9B1     0.054434    13A1     0.068521  
       4B2     0.073354     5B2     0.088620    14A1     0.089088  
      10B1     0.096923    15A1     0.104273     3A2     0.104883  
       6B2     0.113585    11B1     0.134483    16A1     0.134938  
      12B1     0.184197    17A1     0.187335     7B2     0.198615  
      18A1     0.203803    13B1     0.204648    14B1     0.229132  
      19A1     0.237591     8B2     0.241629    20A1     0.246566  
       4A2     0.260631    21A1     0.290182    15B1     0.317850  
       5A2     0.325362    22A1     0.329031     9B2     0.331808  
      16B1     0.342577    23A1     0.352171     6A2     0.363050  
      17B1     0.385226    10B2     0.390624    24A1     0.393452  
      11B2     0.417521    18B1     0.418972    25A1     0.464150  
      19B1     0.491388    26A1     0.508360     7A2     0.515224  
      12B2     0.533427    20B1     0.543575    27A1     0.555019  
      13B2     0.563410     8A2     0.565612    28A1     0.570436  
      21B1     0.579959    29A1     0.583448    22B1     0.629013  
      30A1     0.639588    14B2     0.640463    31A1     0.644829  
       9A2     0.650560    15B2     0.681457    10A2     0.699359  
      23B1     0.701581    32A1     0.702350    24B1     0.765359  
      33A1     0.795770    25B1     0.818368    16B2     0.826803  
      34A1     0.847130    26B1     0.861632    35A1     0.866333  
      11A2     0.881338    17B2     0.884756    36A1     0.898666  
      12A2     0.911597    18B2     0.934427    27B1     0.944050  
      37A1     0.944319    28B1     1.035062    19B2     1.045321  
      38A1     1.047774    20B2     1.059011    39A1     1.068842  
      29B1     1.096377    13A2     1.109699    40A1     1.112510  
      30B1     1.134433    14A2     1.144705    31B1     1.157095  
      41A1     1.175198    32B1     1.181228    21B2     1.199751  
      42A1     1.229676    33B1     1.257611    15A2     1.262207  
      22B2     1.283177    43A1     1.306176    44A1     1.424030  
      34B1     1.436957    23B2     1.498633    45A1     1.543112  
      35B1     1.552102    46A1     1.575769    16A2     1.576689  
      24B2     1.593041    47A1     1.607223    25B2     1.614263  
      17A2     1.632318    36B1     1.636976    48A1     1.659734  
      37B1     1.666277    18A2     1.680048    49A1     1.682982  
      26B2     1.707929    50A1     1.734820    27B2     1.744075  
      19A2     1.783853    38B1     1.791842    51A1     1.794814  
      52A1     1.807070    28B2     1.840538    20A2     1.876981  
      39B1     1.888903    29B2     1.899514    40B1     1.935052  
      53A1     1.955117    21A2     1.992251    41B1     1.992254  
      30B2     1.997543    54A1     1.999570    42B1     2.029274  
      22A2     2.049954    31B2     2.063347    55A1     2.068332  
      23A2     2.083387    32B2     2.087667    56A1     2.095253  
      43B1     2.101222    57A1     2.110808    24A2     2.145640  
      44B1     2.159427    33B2     2.166472    58A1     2.175790  
      45B1     2.198917    34B2     2.234279    46B1     2.244102  
      59A1     2.266113    25A2     2.283868    47B1     2.302340  
      35B2     2.321772    60A1     2.342205    36B2     2.350979  
      26A2     2.368807    48B1     2.418307    61A1     2.425578  
      49B1     2.448872    62A1     2.480417    27A2     2.498441  
      50B1     2.534221    63A1     2.565377    51B1     2.631575  
      52B1     2.677077    37B2     2.732616    64A1     2.744690  
      65A1     2.823378    38B2     2.867963    53B1     2.869118  
      28A2     2.875559    66A1     2.886352    29A2     2.906384  
      39B2     2.956624    67A1     2.991442    40B2     3.070581  
      54B1     3.144901    68A1     3.145062    69A1     3.222293  
      70A1     3.280967    55B1     3.285282    41B2     3.314443  
      30A2     3.319408    31A2     3.348418    56B1     3.494469  
      71A1     3.496488    57B1     3.562432    58B1     3.607893  
      72A1     3.614669    73A1     3.642451    32A2     3.740756  
      42B2     3.790060    74A1     3.837117    43B2     3.867167  
      59B1     3.899123    75A1     3.916006    33A2     3.920824  
      34A2     4.070278    60B1     4.090891    76A1     4.094042  
      44B2     4.173479    45B2     4.238596    77A1     4.245935  
      61B1     4.298163    35A2     4.298912    62B1     4.320426  
      46B2     4.335201    78A1     4.432536    63B1     4.450925  
      47B2     4.465823    64B1     4.472813    79A1     4.480570  
      80A1     4.548975    81A1     4.604220    48B2     4.621293  
      65B1     4.636820    36A2     4.664804    82A1     4.678157  
      37A2     4.692456    49B2     4.698326    83A1     4.710454  
      66B1     4.723093    38A2     4.730302    50B2     4.736785  
      67B1     4.744778    84A1     4.748358    39A2     4.770178  
      51B2     4.800505    68B1     4.815226    85A1     4.824745  
      40A2     4.840853    52B2     4.875276    86A1     4.876400  
      69B1     4.887422    70B1     4.903937    41A2     4.907141  
      87A1     4.943288    71B1     4.960054    88A1     4.976962  
      53B2     4.979194    54B2     5.046077    72B1     5.083024  
      55B2     5.130704    42A2     5.137995    43A2     5.145702  
      73B1     5.198002    89A1     5.200741    90A1     5.260153  
      56B2     5.354995    74B1     5.485686    91A1     5.572600  
      92A1     5.584278    44A2     5.661263    93A1     5.770324  
      75B1     5.848957    94A1     6.047477    76B1     6.168003  
      45A2     6.246445    57B2     6.279226    95A1     6.287020  
      77B1     6.314112    58B2     6.330921    96A1     6.519544  
      46A2     6.566620    59B2     6.600152    78B1     6.647012  
      60B2     6.730919    47A2     6.824472    97A1     6.968000  
      79B1     6.995940    48A2     7.009243    80B1     7.024341  
      98A1     7.088585    61B2     7.191489    99A1     7.252556  
     100A1     7.331447    62B2     7.403436    49A2     7.409670  
      81B1     7.501487   101A1     7.623460    82B1     8.026683  
     102A1     8.221898   103A1     8.360795    83B1     8.447991  
      63B2     8.495222   104A1     9.266378    84B1     9.291368  
      50A2    10.696790   105A1    10.702407    85B1    11.010992  
      64B2    11.030105    51A2    11.211887    65B2    11.238864  
     106A1    11.250066    66B2    11.425249    52A2    11.430991  
     107A1    11.447725    86B1    11.464442    67B2    11.466947  
     108A1    11.475671    53A2    11.620971    87B1    11.633407  
      68B2    11.696059    88B1    11.701384   109A1    11.869595  
      89B1    11.877544   110A1    11.976172    69B2    12.031212  
      90B1    12.059845    91B1    12.106180   111A1    12.181302  
      54A2    12.557398    70B2    12.752149   112A1    12.885202  
      92B1    12.967218    55A2    13.076227   113A1    13.158023  
     114A1    13.838571    71B2    14.035663    93B1    14.430935  
     115A1    14.792262   116A1    25.386376    94B1    26.551825  
     117A1    27.032901   118A1    43.584078  

    Final Occupation by Irrep:
             A1    A2    B1    B2 
    DOCC [    11,    2,    8,    3 ]

  Energy converged.

  @RHF Final Energy: -1031.81825426915793

   => Energetics <=

    Nuclear Repulsion Energy =            192.1367366431426262
    One-Electron Energy =               -1806.3736530664180009
    Two-Electron Energy =                 582.4186621541176692
    Total Energy =                      -1031.8182542691579329



Properties will be evaluated at   0.000000,   0.000000,   0.000000 Bohr

Properties computed using the SCF density matrix

  Nuclear Dipole Moment: (a.u.)
     X:     0.0000      Y:    -0.0000      Z:     0.8736

  Electronic Dipole Moment: (a.u.)
     X:     0.0000      Y:     0.0000      Z:    -1.5159

  Dipole Moment: (a.u.)
     X:     0.0000      Y:    -0.0000      Z:    -0.6423     Total:     0.6423

  Dipole Moment: (Debye)
     X:     0.0000      Y:    -0.0000      Z:    -1.6327     Total:     1.6327


*** tstop() called on cqc05 at Fri May  3 11:33:53 2019
Module time:
	user time   =     165.18 seconds =       2.75 minutes
	system time =      18.68 seconds =       0.31 minutes
	total time  =        184 seconds =       3.07 minutes
Total time:
	user time   =     165.18 seconds =       2.75 minutes
	system time =      18.68 seconds =       0.31 minutes
	total time  =        184 seconds =       3.07 minutes

*** tstart() called on cqc05
*** at Fri May  3 11:33:53 2019


	Wfn Parameters:
	--------------------
	Wavefunction         = CCSD
	Number of irreps     = 4
	Number of MOs        = 338
	Number of active MOs = 326
	AO-Basis             = NONE
	Semicanonical        = false
	Reference            = RHF
	Print Level          = 1

	IRREP	# MOs	# FZDC	# DOCC	# SOCC	# VIRT	# FZVR
	-----	-----	------	------	------	------	------
	 A1	   118	    6	    5	    0	    107	    0
	 A2	   55	    1	    1	    0	    53	    0
	 B1	   94	    4	    4	    0	    86	    0
	 B2	   71	    1	    2	    0	    68	    0
	Transforming integrals...
	IWL integrals will be deleted.
	(OO|OO)...
	Presorting SO-basis two-electron integrals.
	Sorting File: SO Ints (nn|nn) nbuckets = 1
	Transforming the one-electron integrals and constructing Fock matrices
	Starting first half-transformation.
	Sorting half-transformed integrals.
	First half integral transformation complete.
	Starting second half-transformation.
	Two-electron integral transformation complete.
	(OO|OV)...
	Starting second half-transformation.
	Two-electron integral transformation complete.
	(OO|VV)...
	Starting second half-transformation.
	Two-electron integral transformation complete.
	(OV|OO)...
	Starting first half-transformation.
	Sorting half-transformed integrals.
	First half integral transformation complete.
	Starting second half-transformation.
	Two-electron integral transformation complete.
	(OV|OV)...
	Starting second half-transformation.
	Two-electron integral transformation complete.
	(OV|VV)...
	Starting second half-transformation.
	Two-electron integral transformation complete.
	(VV|OO)...
	Starting first half-transformation.
	Sorting half-transformed integrals.
	First half integral transformation complete.
	Starting second half-transformation.
	Two-electron integral transformation complete.
	(VV|OV)...
	Starting second half-transformation.
	Two-electron integral transformation complete.
	(VV|VV)...
	Starting second half-transformation.
	Two-electron integral transformation complete.
	Frozen core energy     =  -1119.20766698631405

	Size of irrep 0 of <ab|cd> integrals:    690.533 (MW) /   5524.266 (MB)
	Size of irrep 1 of <ab|cd> integrals:    530.749 (MW) /   4245.996 (MB)
	Size of irrep 2 of <ab|cd> integrals:    655.975 (MW) /   5247.796 (MB)
	Size of irrep 3 of <ab|cd> integrals:    560.174 (MW) /   4481.394 (MB)
	Total:                                  2437.431 (MW) /  19499.452 (MB)

	Size of irrep 0 of <ia|bc> integrals:     28.065 (MW) /    224.519 (MB)
	Size of irrep 1 of <ia|bc> integrals:     18.799 (MW) /    150.392 (MB)
	Size of irrep 2 of <ia|bc> integrals:     26.432 (MW) /    211.453 (MB)
	Size of irrep 3 of <ia|bc> integrals:     20.165 (MW) /    161.321 (MB)
	Total:                                    93.461 (MW) /    747.685 (MB)

	Size of irrep 0 of tijab amplitudes:       1.209 (MW) /      9.670 (MB)
	Size of irrep 1 of tijab amplitudes:       0.599 (MW) /      4.792 (MB)
	Size of irrep 2 of tijab amplitudes:       1.127 (MW) /      9.015 (MB)
	Size of irrep 3 of tijab amplitudes:       0.663 (MW) /      5.302 (MB)
	Total:                                     3.597 (MW) /     28.779 (MB)

	Nuclear Rep. energy          =    192.13673664314263
	SCF energy                   =  -1031.81825426915793
	One-electron energy          =   -191.10994976556978
	Two-electron energy          =     86.36262583958266
	Reference energy             =  -1031.81825426915861

*** tstop() called on cqc05 at Fri May  3 11:40:44 2019
Module time:
	user time   =     175.26 seconds =       2.92 minutes
	system time =      79.95 seconds =       1.33 minutes
	total time  =        411 seconds =       6.85 minutes
Total time:
	user time   =     340.44 seconds =       5.67 minutes
	system time =      98.63 seconds =       1.64 minutes
	total time  =        595 seconds =       9.92 minutes

*** tstart() called on cqc05
*** at Fri May  3 11:40:45 2019

            **************************
            *                        *
            *        CCENERGY        *
            *                        *
            **************************

    Nuclear Rep. energy (wfn)     =  192.136736643142626
    SCF energy          (wfn)     = -1031.818254269157933
    Reference energy    (file100) = -1031.818254269158615

    Input parameters:
    -----------------
    Wave function   =     CCSD
    Reference wfn   =     RHF
    Brueckner       =     No
    Memory (Mbytes) =     32000.0
    Maxiter         =     50
    R_Convergence   =     1.0e-07
    E_Convergence   =     1.0e-06
    Restart         =     Yes
    DIIS            =     Yes
    AO Basis        =     NONE
    ABCD            =     NEW
    Cache Level     =     2
    Cache Type      =     LOW
    Print Level     =     1
    Num. of threads =     1
    # Amps to Print =     10
    Print MP2 Amps? =     No
    Analyze T2 Amps =     No
    Print Pair Ener =     No
    Local CC        =     No
    SCS-MP2         =     False
    SCSN-MP2        =     False
    SCS-CCSD        =     False

MP2 correlation energy -0.8392085080261997
                Solving CC Amplitude Equations
                ------------------------------
  Iter             Energy              RMS        T1Diag      D1Diag    New D1Diag    D2Diag
  ----     ---------------------    ---------   ----------  ----------  ----------   --------
     0        -0.839208508025795    0.000e+00    0.000000    0.000000    0.000000    0.161695
     1        -0.876767216456789    4.217e-01    0.025524    0.079955    0.079955    0.171393
     2        -0.873383026775151    9.477e-02    0.013043    0.039814    0.039814    0.178879
     3        -0.856626153023625    3.209e-02    0.015124    0.047884    0.047884    0.171008
     4        -0.854474554697781    5.394e-03    0.014726    0.046707    0.046707    0.169930
     5        -0.854463273234784    1.510e-03    0.014653    0.046344    0.046344    0.169575
     6        -0.854394974452595    6.176e-04    0.014641    0.046315    0.046315    0.169366
     7        -0.854358521295138    2.378e-04    0.014645    0.046276    0.046276    0.169240
     8        -0.854378522487853    1.070e-04    0.014652    0.046275    0.046275    0.169218
     9        -0.854378362478825    4.343e-05    0.014657    0.046275    0.046275    0.169210
    10        -0.854376489193580    1.739e-05    0.014659    0.046274    0.046274    0.169207
    11        -0.854377151468560    5.022e-06    0.014660    0.046275    0.046275    0.169208
    12        -0.854377463234637    1.685e-06    0.014660    0.046275    0.046275    0.169209
    13        -0.854377484926798    6.307e-07    0.014660    0.046275    0.046275    0.169209
    14        -0.854377493209942    2.111e-07    0.014660    0.046275    0.046275    0.169209
    15        -0.854377495177493    6.601e-08    0.014660    0.046275    0.046275    0.169209
    15        -0.854377495177493    6.601e-08    0.014660    0.046275    0.046275    0.169209

    Iterations converged.


    CCSD corr. energy   =   -0.854377495177493
    PPL corr. energy    =    0.212013301032597
    OS PPL corr. energy =    0.173971053768850
    SS PPL corr. energy =    0.038042247263743
    Largest TIA Amplitudes:
             10 247         0.0364382596
              8 165        -0.0225346917
              8 168        -0.0169830776
             10 246         0.0161253195
              7 168         0.0117305093
             10 248         0.0116688833
              8 164        -0.0110025097
             10 251         0.0095562786
              7 165         0.0092713508
              7 176         0.0090923638

    Largest TIjAb Amplitudes:
     10  10 247 247        -0.0632140558
     11  11 247 247        -0.0547201780
     10  11 247 247        -0.0343276215
     11  10 247 247        -0.0343276215
     10  10 246 247        -0.0265449904
     10  10 247 246        -0.0265449904
      8   8   4   4        -0.0254047251
      7   7 165 165        -0.0222999977
      2   2 247 247        -0.0220279428
      8   8 165 165        -0.0197214529

    SCF energy       (wfn)                    = -1031.818254269157933
    Reference energy (file100)                = -1031.818254269158615

    Opposite-spin MP2 correlation energy      =   -0.628434064507950
    Same-spin MP2 correlation energy          =   -0.210774443517845
    MP2 correlation energy                    =   -0.839208508026200
      * MP2 total energy                      = -1032.657462777184719

    Opposite-spin CCSD correlation energy     =   -0.664983295163923
    Same-spin CCSD correlation energy         =   -0.189394210041230
    CCSD correlation energy                   =   -0.854377495177493
      * CCSD total energy                     = -1032.672631764336074


*** tstop() called on cqc05 at Fri May  3 11:43:13 2019
Module time:
	user time   =      68.69 seconds =       1.14 minutes
	system time =      65.24 seconds =       1.09 minutes
	total time  =        148 seconds =       2.47 minutes
Total time:
	user time   =     409.13 seconds =       6.82 minutes
	system time =     163.91 seconds =       2.73 minutes
	total time  =        744 seconds =      12.40 minutes

*** Psi4 exiting successfully. Buy a developer a beer!
