
    -----------------------------------------------------------------------
          Psi4: An Open-Source Ab Initio Electronic Structure Package
                               Psi4 1.2a1.dev939 

                         Git: Rev {HEAD} fa1ec19 


    R. M. Parrish, L. A. Burns, D. G. A. Smith, A. C. Simmonett,
    A. E. DePrince III, E. G. Hohenstein, U. Bozkaya, A. Yu. Sokolov,
    R. Di Remigio, R. M. Richard, J. F. Gonthier, A. M. James,
    H. R. McAlexander, A. Kumar, M. Saitow, X. Wang, B. P. Pritchard,
    P. Verma, H. F. Schaefer III, K. Patkowski, R. A. King, E. F. Valeev,
    F. A. Evangelista, J. M. Turney, T. D. Crawford, and C. D. Sherrill,
    J. Chem. Theory Comput. 13(7) pp 3185--3197 (2017).
    (doi: 10.1021/acs.jctc.7b00174)

    -----------------------------------------------------------------------


    Psi4 started on: Friday, 26 April 2019 04:32PM

    Process ID:  26419
    PSIDATADIR: /home/grueneis/src/psi4/objdir/stage/usr/local/psi4/share/psi4
    Memory:     500.0 MiB
    Threads:    1
    
  ==> Input File <==

--------------------------------------------------------------------------
# Any line starting with the # character is a comment line

memory 32000 mb

molecule molecule {
0 1
C          0.0000000000        0.0000000000        0.5128013035
O          0.0000000000        0.0000000000        1.6988856423
Cl         1.4380172470        0.0000000000       -0.4631957958
Cl        -1.4380172470        0.0000000000       -0.4631957958
}

set {
  reference rhf
  basis aug-cc-pv(D+d)z
  scf_type OUT_OF_CORE
  freeze_core true
}

energy('ccsd')
--------------------------------------------------------------------------

  Memory set to  29.802 GiB by Python driver.

*** tstart() called on cqc01
*** at Fri Apr 26 16:32:36 2019

   => Loading Basis Set <=

    Name: AUG-CC-PV(D+D)Z
    Role: ORBITAL
    Keyword: BASIS
    atoms 1   entry C          line   198 file /home/grueneis/src/psi4/objdir/stage/usr/local/psi4/share/psi4/basis/aug-cc-pv_dpd_z.gbs 
    atoms 2   entry O          line   270 file /home/grueneis/src/psi4/objdir/stage/usr/local/psi4/share/psi4/basis/aug-cc-pv_dpd_z.gbs 
    atoms 3-4 entry CL         line   792 file /home/grueneis/src/psi4/objdir/stage/usr/local/psi4/share/psi4/basis/aug-cc-pv_dpd_z.gbs 


         ---------------------------------------------------------
                                   SCF
            by Justin Turney, Rob Parrish, Andy Simmonett
                             and Daniel Smith
                              RHF Reference
                        1 Threads,  30517 MiB Core
         ---------------------------------------------------------

  ==> Geometry <==

    Molecular point group: c2v
    Full point group: C2v

    Geometry (in Angstrom), charge = 0, multiplicity = 1:

       Center              X                  Y                   Z               Mass       
    ------------   -----------------  -----------------  -----------------  -----------------
           C          0.000000000000     0.000000000000     0.503281540354    12.000000000000
           O          0.000000000000     0.000000000000     1.689365879154    15.994914619560
          CL          1.438017247000     0.000000000000    -0.472715558946    34.968852682000
          CL         -1.438017247000    -0.000000000000    -0.472715558946    34.968852682000

  Running in c2v symmetry.

  Rotational constants: A =      0.26210  B =      0.11656  C =      0.08068 [cm^-1]
  Rotational constants: A =   7857.67759  B =   3494.44032  C =   2418.77204 [MHz]
  Nuclear repulsion =  192.136736643142626

  Charge       = 0
  Multiplicity = 1
  Electrons    = 48
  Nalpha       = 24
  Nbeta        = 24

  ==> Algorithm <==

  SCF Algorithm Type is OUT_OF_CORE.
  DIIS enabled.
  MOM disabled.
  Fractional occupation disabled.
  Guess Type is SAD.
  Energy threshold   = 1.00e-08
  Density threshold  = 1.00e-08
  Integral threshold = 0.00e+00

  ==> Primary Basis <==

  Basis Set: AUG-CC-PV(D+D)Z
    Blend: AUG-CC-PV(D+D)Z
    Number of shells: 42
    Number of basis function: 110
    Number of Cartesian functions: 120
    Spherical Harmonics?: true
    Max angular momentum: 2

  ==> Pre-Iterations <==

   -------------------------------------------------------
    Irrep   Nso     Nmo     Nalpha   Nbeta   Ndocc  Nsocc
   -------------------------------------------------------
     A1        44      44       0       0       0       0
     A2        14      14       0       0       0       0
     B1        32      32       0       0       0       0
     B2        20      20       0       0       0       0
   -------------------------------------------------------
    Total     110     110      24      24      24       0
   -------------------------------------------------------

  ==> Integral Setup <==

  ==> DiskJK: Disk-Based J/K Matrices <==

    J tasked:                  Yes
    K tasked:                  Yes
    wK tasked:                  No
    Memory (MB):             22888
    Schwarz Cutoff:          1E-12

  Minimum eigenvalue in the overlap matrix is 8.1950242961E-04.
  Using Symmetric Orthogonalization.

  SCF Guess: Superposition of Atomic Densities via on-the-fly atomic UHF.

  ==> Iterations <==

                        Total Energy        Delta E     RMS |[F,P]|

   @RHF iter   0: -1032.53442620745045   -1.03253e+03   4.80933e-02 
   @RHF iter   1: -1031.59918250279316    9.35244e-01   9.19061e-03 
   @RHF iter   2: -1031.65688661576633   -5.77041e-02   8.21034e-03 DIIS
   @RHF iter   3: -1031.74686442220172   -8.99778e-02   8.22643e-04 DIIS
   @RHF iter   4: -1031.74940482834199   -2.54041e-03   3.66835e-04 DIIS
   @RHF iter   5: -1031.74982160778245   -4.16779e-04   1.09685e-04 DIIS
   @RHF iter   6: -1031.74988377621071   -6.21684e-05   3.38246e-05 DIIS
   @RHF iter   7: -1031.74988925872572   -5.48252e-06   8.75679e-06 DIIS
   @RHF iter   8: -1031.74988973668292   -4.77957e-07   2.16298e-06 DIIS
   @RHF iter   9: -1031.74988975992915   -2.32462e-08   6.34253e-07 DIIS
   @RHF iter  10: -1031.74988976205782   -2.12867e-09   2.20895e-07 DIIS
   @RHF iter  11: -1031.74988976231430   -2.56478e-10   6.32143e-08 DIIS
   @RHF iter  12: -1031.74988976234158   -2.72848e-11   2.12954e-08 DIIS
   @RHF iter  13: -1031.74988976234636   -4.77485e-12   4.70411e-09 DIIS

  ==> Post-Iterations <==

    Orbital Energies (a.u.)
    -----------------------

    Doubly Occupied:                                                      

       1B1  -104.888317     1A1  -104.888316     2A1   -20.634599  
       3A1   -11.483883     2B1   -10.615152     4A1   -10.615116  
       3B1    -8.082938     5A1    -8.082935     1A2    -8.079168  
       1B2    -8.079166     4B1    -8.078912     6A1    -8.078911  
       7A1    -1.486571     8A1    -1.208987     5B1    -1.144384  
       9A1    -0.816192     6B1    -0.709725    10A1    -0.703900  
       2B2    -0.648157    11A1    -0.533067     2A2    -0.502367  
       3B2    -0.499133     7B1    -0.497561     8B1    -0.476805  

    Virtual:                                                              

      12A1     0.056628     9B1     0.079047     4B2     0.086819  
      13A1     0.092453     5B2     0.109445    14A1     0.109985  
      10B1     0.129672    15A1     0.145703     3A2     0.152501  
       6B2     0.157022    11B1     0.181353    16A1     0.182608  
      17A1     0.260555    12B1     0.266964    18A1     0.286352  
      13B1     0.286751     7B2     0.294143    14B1     0.319442  
      19A1     0.335051     8B2     0.385483     4A2     0.392984  
      20A1     0.400279    21A1     0.427763    15B1     0.478869  
       5A2     0.521039    16B1     0.547741     9B2     0.578457  
      22A1     0.579122    23A1     0.687002     6A2     0.691329  
      17B1     0.704850    10B2     0.714958    18B1     0.737657  
      11B2     0.789322    24A1     0.818446    25A1     0.854325  
      26A1     0.880404    19B1     0.919642    27A1     0.942038  
       7A2     0.958890    12B2     1.000736    28A1     1.040092  
      20B1     1.051252    29A1     1.193695    13B2     1.206297  
      21B1     1.228117     8A2     1.236165    14B2     1.249846  
      22B1     1.266490    30A1     1.281104    23B1     1.296057  
       9A2     1.309011    31A1     1.317842    15B2     1.320713  
      32A1     1.336687    10A2     1.344363    33A1     1.374823  
      24B1     1.378775    25B1     1.455479    34A1     1.493148  
      11A2     1.683965    35A1     1.741052    16B2     1.746735  
      17B2     1.906655    26B1     1.914821    27B1     1.989605  
      36A1     2.171870    37A1     2.218092    28B1     2.309830  
      38A1     2.552660    39A1     3.056238    12A2     3.679533  
      18B2     3.703060    40A1     3.707999    29B1     3.769256  
      41A1     4.024208    19B2     5.929185    42A1     5.942640  
      13A2     5.945927    30B1     5.946573    20B2     5.964113  
      31B1     5.973418    14A2     5.984021    43A1     6.028824  
      44A1     6.039172    32B1     6.061312  

    Final Occupation by Irrep:
             A1    A2    B1    B2 
    DOCC [    11,    2,    8,    3 ]

  Energy converged.

  @RHF Final Energy: -1031.74988976234636

   => Energetics <=

    Nuclear Repulsion Energy =            192.1367366431426262
    One-Electron Energy =               -1806.1047303462451055
    Two-Electron Energy =                 582.2181039407561229
    PCM Polarization Energy =               0.0000000000000000
    Total Energy =                      -1031.7498897623463563

    Alert: EFP and PCM quantities not currently incorporated into SCF psivars.

Properties will be evaluated at   0.000000,   0.000000,   0.000000 Bohr

Properties computed using the SCF density matrix

  Nuclear Dipole Moment: (a.u.)
     X:     0.0000      Y:    -0.0000      Z:     0.8736

  Electronic Dipole Moment: (a.u.)
     X:     0.0000      Y:     0.0000      Z:    -1.5114

  Dipole Moment: (a.u.)
     X:     0.0000      Y:    -0.0000      Z:    -0.6378     Total:     0.6378

  Dipole Moment: (Debye)
     X:     0.0000      Y:    -0.0000      Z:    -1.6212     Total:     1.6212


*** tstop() called on cqc01 at Fri Apr 26 16:32:51 2019
Module time:
	user time   =       6.02 seconds =       0.10 minutes
	system time =       2.12 seconds =       0.04 minutes
	total time  =         15 seconds =       0.25 minutes
Total time:
	user time   =       6.02 seconds =       0.10 minutes
	system time =       2.12 seconds =       0.04 minutes
	total time  =         15 seconds =       0.25 minutes

*** tstart() called on cqc01
*** at Fri Apr 26 16:32:51 2019


	Wfn Parameters:
	--------------------
	Wavefunction         = CCSD
	Number of irreps     = 4
	Number of MOs        = 110
	Number of active MOs = 98
	AO-Basis             = NONE
	Semicanonical        = false
	Reference            = RHF
	Print Level          = 1

	IRREP	# MOs	# FZDC	# DOCC	# SOCC	# VIRT	# FZVR
	-----	-----	------	------	------	------	------
	 A1	   44	    6	    5	    0	    33	    0
	 A2	   14	    1	    1	    0	    12	    0
	 B1	   32	    4	    4	    0	    24	    0
	 B2	   20	    1	    2	    0	    17	    0
	Transforming integrals...
	IWL integrals will be deleted.
	(OO|OO)...
	Presorting SO-basis two-electron integrals.
	Sorting File: SO Ints (nn|nn) nbuckets = 1
	Transforming the one-electron integrals and constructing Fock matrices
	Starting first half-transformation.
	Sorting half-transformed integrals.
	First half integral transformation complete.
	Starting second half-transformation.
	Two-electron integral transformation complete.
	(OO|OV)...
	Starting second half-transformation.
	Two-electron integral transformation complete.
	(OO|VV)...
	Starting second half-transformation.
	Two-electron integral transformation complete.
	(OV|OO)...
	Starting first half-transformation.
	Sorting half-transformed integrals.
	First half integral transformation complete.
	Starting second half-transformation.
	Two-electron integral transformation complete.
	(OV|OV)...
	Starting second half-transformation.
	Two-electron integral transformation complete.
	(OV|VV)...
	Starting second half-transformation.
	Two-electron integral transformation complete.
	(VV|OO)...
	Starting first half-transformation.
	Sorting half-transformed integrals.
	First half integral transformation complete.
	Starting second half-transformation.
	Two-electron integral transformation complete.
	(VV|OV)...
	Starting second half-transformation.
	Two-electron integral transformation complete.
	(VV|VV)...
	Starting second half-transformation.
	Two-electron integral transformation complete.
	Frozen core energy     =  -1119.18449252682058

	Size of irrep 0 of <ab|cd> integrals:      4.402 (MW) /     35.213 (MB)
	Size of irrep 1 of <ab|cd> integrals:      2.586 (MW) /     20.685 (MB)
	Size of irrep 2 of <ab|cd> integrals:      3.968 (MW) /     31.745 (MB)
	Size of irrep 3 of <ab|cd> integrals:      2.883 (MW) /     23.066 (MB)
	Total:                                    13.839 (MW) /    110.708 (MB)

	Size of irrep 0 of <ia|bc> integrals:      0.644 (MW) /      5.153 (MB)
	Size of irrep 1 of <ia|bc> integrals:      0.336 (MW) /      2.689 (MB)
	Size of irrep 2 of <ia|bc> integrals:      0.584 (MW) /      4.669 (MB)
	Size of irrep 3 of <ia|bc> integrals:      0.379 (MW) /      3.029 (MB)
	Total:                                     1.942 (MW) /     15.540 (MB)

	Size of irrep 0 of tijab amplitudes:       0.097 (MW) /      0.772 (MB)
	Size of irrep 1 of tijab amplitudes:       0.042 (MW) /      0.334 (MB)
	Size of irrep 2 of tijab amplitudes:       0.088 (MW) /      0.701 (MB)
	Size of irrep 3 of tijab amplitudes:       0.048 (MW) /      0.380 (MB)
	Total:                                     0.274 (MW) /      2.188 (MB)

	Nuclear Rep. energy          =    192.13673664314263
	SCF energy                   =  -1031.74988976234636
	One-electron energy          =   -190.95056800587079
	Two-electron energy          =     86.24843412720203
	Reference energy             =  -1031.74988976234681

*** tstop() called on cqc01 at Fri Apr 26 16:33:23 2019
Module time:
	user time   =       1.39 seconds =       0.02 minutes
	system time =       0.71 seconds =       0.01 minutes
	total time  =         32 seconds =       0.53 minutes
Total time:
	user time   =       7.41 seconds =       0.12 minutes
	system time =       2.83 seconds =       0.05 minutes
	total time  =         47 seconds =       0.78 minutes

*** tstart() called on cqc01
*** at Fri Apr 26 16:33:23 2019

            **************************
            *                        *
            *        CCENERGY        *
            *                        *
            **************************

    Nuclear Rep. energy (wfn)     =  192.136736643142626
    SCF energy          (wfn)     = -1031.749889762346356
    Reference energy    (file100) = -1031.749889762346811

    Input parameters:
    -----------------
    Wave function   =     CCSD
    Reference wfn   =     RHF
    Brueckner       =     No
    Memory (Mbytes) =     32000.0
    Maxiter         =     50
    R_Convergence   =     1.0e-07
    E_Convergence   =     1.0e-06
    Restart         =     Yes
    DIIS            =     Yes
    AO Basis        =     NONE
    ABCD            =     NEW
    Cache Level     =     2
    Cache Type      =     LOW
    Print Level     =     1
    Num. of threads =     1
    # Amps to Print =     10
    Print MP2 Amps? =     No
    Analyze T2 Amps =     No
    Print Pair Ener =     No
    Local CC        =     No
    SCS-MP2         =     False
    SCSN-MP2        =     False
    SCS-CCSD        =     False

MP2 correlation energy -0.6293883771559179
                Solving CC Amplitude Equations
                ------------------------------
  Iter             Energy              RMS        T1Diag      D1Diag    New D1Diag    D2Diag
  ----     ---------------------    ---------   ----------  ----------  ----------   --------
     0        -0.629388377155855    0.000e+00    0.000000    0.000000    0.000000    0.157473
     1        -0.683566128041199    3.788e-01    0.025818    0.080221    0.080221    0.175623
     2        -0.666028831667957    8.568e-02    0.014511    0.043874    0.043874    0.179588
     3        -0.652534059912350    2.612e-02    0.015965    0.049755    0.049755    0.171979
     4        -0.651934964228362    4.515e-03    0.015612    0.048992    0.048992    0.171195
     5        -0.651736773963202    1.365e-03    0.015528    0.048617    0.048617    0.170797
     6        -0.651607356180681    5.208e-04    0.015512    0.048591    0.048591    0.170546
     7        -0.651617519359035    1.902e-04    0.015517    0.048578    0.048578    0.170474
     8        -0.651627562656476    8.732e-05    0.015523    0.048579    0.048579    0.170452
     9        -0.651625093462540    3.401e-05    0.015527    0.048582    0.048582    0.170447
    10        -0.651625314474288    1.108e-05    0.015528    0.048582    0.048582    0.170448
    11        -0.651625801382633    3.693e-06    0.015529    0.048582    0.048582    0.170449
    12        -0.651625834832600    1.212e-06    0.015529    0.048583    0.048583    0.170449
    13        -0.651625886179070    3.729e-07    0.015529    0.048583    0.048583    0.170449
    14        -0.651625886330945    1.559e-07    0.015529    0.048583    0.048583    0.170449
    15        -0.651625885988569    4.496e-08    0.015529    0.048583    0.048583    0.170449
    15        -0.651625885988569    4.496e-08    0.015529    0.048583    0.048583    0.170449

    Iterations converged.


    CCSD corr. energy   =   -0.651625885988569
    PPL corr. energy    =    0.143280089685866
    OS PPL corr. energy =    0.114040830953918
    SS PPL corr. energy =    0.029239258731948
    Largest TIA Amplitudes:
             10  69         0.0433832499
              8  49        -0.0239232069
              8  50        -0.0172026652
              8  48        -0.0144085220
              8  45        -0.0120993387
             10  71         0.0114997412
              7  50         0.0112560333
              4   7         0.0107508530
              7  53         0.0106240802
             10  81         0.0105947598

    Largest TIjAb Amplitudes:
     10  10  69  69        -0.0839870202
     11  11  69  69        -0.0640537381
     10  11  69  69        -0.0440324355
     11  10  69  69        -0.0440324355
      2   2  69  69        -0.0286437249
     10  10  69  74        -0.0257877023
     10  10  74  69        -0.0257877023
     10  11  69  74        -0.0239320556
     11  10  74  69        -0.0239320556
      9   9  51  51        -0.0237321887

    SCF energy       (wfn)                    = -1031.749889762346356
    Reference energy (file100)                = -1031.749889762346811

    Opposite-spin MP2 correlation energy      =   -0.454129356993672
    Same-spin MP2 correlation energy          =   -0.175259020162182
    MP2 correlation energy                    =   -0.629388377155918
      * MP2 total energy                      = -1032.379278139502730

    Opposite-spin CCSD correlation energy     =   -0.494835667972955
    Same-spin CCSD correlation energy         =   -0.156790218973053
    CCSD correlation energy                   =   -0.651625885988569
      * CCSD total energy                     = -1032.401515648335362


*** tstop() called on cqc01 at Fri Apr 26 16:33:55 2019
Module time:
	user time   =       5.98 seconds =       0.10 minutes
	system time =      11.00 seconds =       0.18 minutes
	total time  =         32 seconds =       0.53 minutes
Total time:
	user time   =      13.39 seconds =       0.22 minutes
	system time =      13.83 seconds =       0.23 minutes
	total time  =         79 seconds =       1.32 minutes

*** Psi4 exiting successfully. Buy a developer a beer!
