
    -----------------------------------------------------------------------
          Psi4: An Open-Source Ab Initio Electronic Structure Package
                               Psi4 1.2a1.dev939 

                         Git: Rev {HEAD} fa1ec19 


    R. M. Parrish, L. A. Burns, D. G. A. Smith, A. C. Simmonett,
    A. E. DePrince III, E. G. Hohenstein, U. Bozkaya, A. Yu. Sokolov,
    R. Di Remigio, R. M. Richard, J. F. Gonthier, A. M. James,
    H. R. McAlexander, A. Kumar, M. Saitow, X. Wang, B. P. Pritchard,
    P. Verma, H. F. Schaefer III, K. Patkowski, R. A. King, E. F. Valeev,
    F. A. Evangelista, J. M. Turney, T. D. Crawford, and C. D. Sherrill,
    J. Chem. Theory Comput. 13(7) pp 3185--3197 (2017).
    (doi: 10.1021/acs.jctc.7b00174)

    -----------------------------------------------------------------------


    Psi4 started on: Saturday, 27 April 2019 01:12AM

    Process ID:  29371
    PSIDATADIR: /home/grueneis/src/psi4/objdir/stage/usr/local/psi4/share/psi4
    Memory:     500.0 MiB
    Threads:    1
    
  ==> Input File <==

--------------------------------------------------------------------------
# Any line starting with the # character is a comment line

memory 32000 mb

molecule molecule {
0 1
C          0.0000000000        0.0000000000        0.5128013035
O          0.0000000000        0.0000000000        1.6988856423
Cl         1.4380172470        0.0000000000       -0.4631957958
Cl        -1.4380172470        0.0000000000       -0.4631957958
}

set {
  reference rhf
  basis aug-cc-pv(T+d)z
  scf_type OUT_OF_CORE
  freeze_core true
}

energy('ccsd')
--------------------------------------------------------------------------

  Memory set to  29.802 GiB by Python driver.

*** tstart() called on cqc01
*** at Sat Apr 27 01:12:41 2019

   => Loading Basis Set <=

    Name: AUG-CC-PV(T+D)Z
    Role: ORBITAL
    Keyword: BASIS
    atoms 1   entry C          line   255 file /home/grueneis/src/psi4/objdir/stage/usr/local/psi4/share/psi4/basis/aug-cc-pv_tpd_z.gbs 
    atoms 2   entry O          line   347 file /home/grueneis/src/psi4/objdir/stage/usr/local/psi4/share/psi4/basis/aug-cc-pv_tpd_z.gbs 
    atoms 3-4 entry CL         line  1012 file /home/grueneis/src/psi4/objdir/stage/usr/local/psi4/share/psi4/basis/aug-cc-pv_tpd_z.gbs 


         ---------------------------------------------------------
                                   SCF
            by Justin Turney, Rob Parrish, Andy Simmonett
                             and Daniel Smith
                              RHF Reference
                        1 Threads,  30517 MiB Core
         ---------------------------------------------------------

  ==> Geometry <==

    Molecular point group: c2v
    Full point group: C2v

    Geometry (in Angstrom), charge = 0, multiplicity = 1:

       Center              X                  Y                   Z               Mass       
    ------------   -----------------  -----------------  -----------------  -----------------
           C          0.000000000000     0.000000000000     0.503281540354    12.000000000000
           O          0.000000000000     0.000000000000     1.689365879154    15.994914619560
          CL          1.438017247000     0.000000000000    -0.472715558946    34.968852682000
          CL         -1.438017247000    -0.000000000000    -0.472715558946    34.968852682000

  Running in c2v symmetry.

  Rotational constants: A =      0.26210  B =      0.11656  C =      0.08068 [cm^-1]
  Rotational constants: A =   7857.67759  B =   3494.44032  C =   2418.77204 [MHz]
  Nuclear repulsion =  192.136736643142626

  Charge       = 0
  Multiplicity = 1
  Electrons    = 48
  Nalpha       = 24
  Nbeta        = 24

  ==> Algorithm <==

  SCF Algorithm Type is OUT_OF_CORE.
  DIIS enabled.
  MOM disabled.
  Fractional occupation disabled.
  Guess Type is SAD.
  Energy threshold   = 1.00e-08
  Density threshold  = 1.00e-08
  Integral threshold = 0.00e+00

  ==> Primary Basis <==

  Basis Set: AUG-CC-PV(T+D)Z
    Blend: AUG-CC-PV(T+D)Z
    Number of shells: 62
    Number of basis function: 202
    Number of Cartesian functions: 240
    Spherical Harmonics?: true
    Max angular momentum: 3

  ==> Pre-Iterations <==

   -------------------------------------------------------
    Irrep   Nso     Nmo     Nalpha   Nbeta   Ndocc  Nsocc
   -------------------------------------------------------
     A1        74      74       0       0       0       0
     A2        29      29       0       0       0       0
     B1        58      58       0       0       0       0
     B2        41      41       0       0       0       0
   -------------------------------------------------------
    Total     202     202      24      24      24       0
   -------------------------------------------------------

  ==> Integral Setup <==

  ==> DiskJK: Disk-Based J/K Matrices <==

    J tasked:                  Yes
    K tasked:                  Yes
    wK tasked:                  No
    Memory (MB):             22888
    Schwarz Cutoff:          1E-12

  Minimum eigenvalue in the overlap matrix is 1.4242754996E-04.
  Using Symmetric Orthogonalization.

  SCF Guess: Superposition of Atomic Densities via on-the-fly atomic UHF.

  ==> Iterations <==

                        Total Energy        Delta E     RMS |[F,P]|

   @RHF iter   0: -1033.37092181506250   -1.03337e+03   3.22683e-02 
   @RHF iter   1: -1031.60105062499360    1.76987e+00   5.91906e-03 
   @RHF iter   2: -1031.67627707708175   -7.52265e-02   5.53311e-03 DIIS
   @RHF iter   3: -1031.79975244152729   -1.23475e-01   5.38510e-04 DIIS
   @RHF iter   4: -1031.80298271900483   -3.23028e-03   2.98214e-04 DIIS
   @RHF iter   5: -1031.80394552064308   -9.62802e-04   9.89611e-05 DIIS
   @RHF iter   6: -1031.80414467702553   -1.99156e-04   3.61638e-05 DIIS
   @RHF iter   7: -1031.80416580774227   -2.11307e-05   1.23707e-05 DIIS
   @RHF iter   8: -1031.80416848271443   -2.67497e-06   3.19127e-06 DIIS
   @RHF iter   9: -1031.80416868975226   -2.07038e-07   8.44448e-07 DIIS
   @RHF iter  10: -1031.80416870206432   -1.23121e-08   2.34601e-07 DIIS
   @RHF iter  11: -1031.80416870332692   -1.26261e-09   7.38662e-08 DIIS
   @RHF iter  12: -1031.80416870344015   -1.13232e-10   1.79830e-08 DIIS
   @RHF iter  13: -1031.80416870344675   -6.59384e-12   5.09325e-09 DIIS

  ==> Post-Iterations <==

    Orbital Energies (a.u.)
    -----------------------

    Doubly Occupied:                                                      

       1B1  -104.890480     1A1  -104.890480     2A1   -20.622116  
       3A1   -11.475878     2B1   -10.614927     4A1   -10.614912  
       3B1    -8.081773     5A1    -8.081770     1A2    -8.079596  
       1B2    -8.079592     4B1    -8.079413     6A1    -8.079411  
       7A1    -1.478938     8A1    -1.205511     5B1    -1.141343  
       9A1    -0.812689     6B1    -0.706419    10A1    -0.700419  
       2B2    -0.646349    11A1    -0.532178     2A2    -0.501977  
       3B2    -0.498049     7B1    -0.495712     8B1    -0.476691  

    Virtual:                                                              

      12A1     0.047745     9B1     0.065678    13A1     0.079824  
       4B2     0.084387     5B2     0.092333    14A1     0.098295  
      10B1     0.113329    15A1     0.124285     3A2     0.127126  
       6B2     0.134051    16A1     0.157007    11B1     0.158042  
      12B1     0.220367    17A1     0.222545     7B2     0.236904  
      18A1     0.238916    13B1     0.252227    14B1     0.259125  
      19A1     0.279476     8B2     0.296905    20A1     0.305339  
       4A2     0.313442    21A1     0.353439    15B1     0.386312  
       5A2     0.426024    16B1     0.430565    22A1     0.436251  
       9B2     0.446670     6A2     0.462330    23A1     0.473350  
      24A1     0.507692    10B2     0.509540    17B1     0.513555  
      11B2     0.519985    18B1     0.540337    25A1     0.616275  
      19B1     0.641311    26A1     0.690170     7A2     0.696632  
      12B2     0.712275    27A1     0.712363    28A1     0.738035  
      20B1     0.754662     8A2     0.777081    13B2     0.785963  
      29A1     0.798434    21B1     0.807326    30A1     0.829751  
      14B2     0.843528    22B1     0.859541    31A1     0.859835  
       9A2     0.863055    23B1     0.892954    15B2     0.896183  
      32A1     0.934948    10A2     0.936457    24B1     0.952869  
      33A1     1.015155    25B1     1.022900    34A1     1.070879  
      16B2     1.083586    35A1     1.101529    11A2     1.138108  
      26B1     1.157042    17B2     1.165141    12A2     1.212951  
      18B2     1.232361    36A1     1.240671    27B1     1.265601  
      37A1     1.335040    19B2     1.367899    38A1     1.393105  
      28B1     1.421528    29B1     1.462426    39A1     1.468204  
      13A2     1.469837    20B2     1.470650    40A1     1.556355  
      30B1     1.574458    14A2     1.611305    21B2     1.664033  
      31B1     1.677075    41A1     1.677392    32B1     1.713690  
      15A2     1.780905    33B1     1.797848    22B2     1.804833  
      42A1     1.812610    43A1     1.822071    44A1     1.969551  
      34B1     2.060006    23B2     2.236479    35B1     2.249781  
      16A2     2.287881    45A1     2.292752    24B2     2.326620  
      46A1     2.326682    36B1     2.335064    25B2     2.384679  
      17A2     2.394704    47A1     2.419953    18A2     2.427623  
      48A1     2.457605    37B1     2.458057    26B2     2.513427  
      38B1     2.529440    49A1     2.534753    27B2     2.626152  
      50A1     2.687067    39B1     2.706555    51A1     2.739413  
      19A2     2.789262    40B1     2.870047    20A2     2.878954  
      52A1     2.890237    41B1     2.908414    28B2     2.946063  
      29B2     2.963448    53A1     2.989126    21A2     3.021568  
      30B2     3.023033    54A1     3.052845    42B1     3.064313  
      55A1     3.069660    31B2     3.075453    43B1     3.092324  
      22A2     3.128183    32B2     3.146809    23A2     3.197504  
      44B1     3.209936    56A1     3.240703    45B1     3.253162  
      57A1     3.514548    46B1     3.520935    58A1     3.592194  
      33B2     3.627475    47B1     3.631523    24A2     3.699109  
      34B2     3.821902    59A1     3.826091    25A2     3.949977  
      60A1     3.958258    48B1     4.019307    35B2     4.149330  
      61A1     4.177576    49B1     4.427354    62A1     4.481837  
      63A1     4.611478    50B1     4.749265    36B2     5.103727  
      51B1     5.447647    64A1     5.623676    52B1     6.564361  
      37B2     6.578460    26A2     6.861830    65A1     6.865852  
      66A1     6.995351    38B2     7.039296    53B1     7.107588  
      67A1     7.170060    27A2     7.187307    54B1     7.257422  
      68A1     7.473763    39B2     7.507624    55B1     7.662716  
      69A1     7.710332    28A2     8.782366    40B2     8.798554  
      56B1     8.799287    70A1     8.800723    29A2     8.853970  
      41B2     8.861215    71A1     8.886654    57B1     8.977493  
      58B1     9.077581    72A1     9.140127    73A1    13.264221  
      74A1    15.605395  

    Final Occupation by Irrep:
             A1    A2    B1    B2 
    DOCC [    11,    2,    8,    3 ]

  Energy converged.

  @RHF Final Energy: -1031.80416870344675

   => Energetics <=

    Nuclear Repulsion Energy =            192.1367366431426262
    One-Electron Energy =               -1806.3085653412322245
    Two-Electron Energy =                 582.3676599946427359
    Total Energy =                      -1031.8041687034467486



Properties will be evaluated at   0.000000,   0.000000,   0.000000 Bohr

Properties computed using the SCF density matrix

  Nuclear Dipole Moment: (a.u.)
     X:     0.0000      Y:    -0.0000      Z:     0.8736

  Electronic Dipole Moment: (a.u.)
     X:     0.0000      Y:     0.0000      Z:    -1.5159

  Dipole Moment: (a.u.)
     X:     0.0000      Y:    -0.0000      Z:    -0.6423     Total:     0.6423

  Dipole Moment: (Debye)
     X:     0.0000      Y:    -0.0000      Z:    -1.6325     Total:     1.6325


*** tstop() called on cqc01 at Sat Apr 27 01:13:23 2019
Module time:
	user time   =      25.57 seconds =       0.43 minutes
	system time =       5.01 seconds =       0.08 minutes
	total time  =         42 seconds =       0.70 minutes
Total time:
	user time   =      25.57 seconds =       0.43 minutes
	system time =       5.01 seconds =       0.08 minutes
	total time  =         42 seconds =       0.70 minutes

*** tstart() called on cqc01
*** at Sat Apr 27 01:13:23 2019


	Wfn Parameters:
	--------------------
	Wavefunction         = CCSD
	Number of irreps     = 4
	Number of MOs        = 202
	Number of active MOs = 190
	AO-Basis             = NONE
	Semicanonical        = false
	Reference            = RHF
	Print Level          = 1

	IRREP	# MOs	# FZDC	# DOCC	# SOCC	# VIRT	# FZVR
	-----	-----	------	------	------	------	------
	 A1	   74	    6	    5	    0	    63	    0
	 A2	   29	    1	    1	    0	    27	    0
	 B1	   58	    4	    4	    0	    50	    0
	 B2	   41	    1	    2	    0	    38	    0
	Transforming integrals...
	IWL integrals will be deleted.
	(OO|OO)...
	Presorting SO-basis two-electron integrals.
	Sorting File: SO Ints (nn|nn) nbuckets = 1
	Transforming the one-electron integrals and constructing Fock matrices
	Starting first half-transformation.
	Sorting half-transformed integrals.
	First half integral transformation complete.
	Starting second half-transformation.
	Two-electron integral transformation complete.
	(OO|OV)...
	Starting second half-transformation.
	Two-electron integral transformation complete.
	(OO|VV)...
	Starting second half-transformation.
	Two-electron integral transformation complete.
	(OV|OO)...
	Starting first half-transformation.
	Sorting half-transformed integrals.
	First half integral transformation complete.
	Starting second half-transformation.
	Two-electron integral transformation complete.
	(OV|OV)...
	Starting second half-transformation.
	Two-electron integral transformation complete.
	(OV|VV)...
	Starting second half-transformation.
	Two-electron integral transformation complete.
	(VV|OO)...
	Starting first half-transformation.
	Sorting half-transformed integrals.
	First half integral transformation complete.
	Starting second half-transformation.
	Two-electron integral transformation complete.
	(VV|OV)...
	Starting second half-transformation.
	Two-electron integral transformation complete.
	(VV|VV)...
	Starting second half-transformation.
	Two-electron integral transformation complete.
	Frozen core energy     =  -1119.20061216467866

	Size of irrep 0 of <ab|cd> integrals:     74.684 (MW) /    597.473 (MB)
	Size of irrep 1 of <ab|cd> integrals:     51.869 (MW) /    414.950 (MB)
	Size of irrep 2 of <ab|cd> integrals:     69.756 (MW) /    558.047 (MB)
	Size of irrep 3 of <ab|cd> integrals:     56.070 (MW) /    448.561 (MB)
	Total:                                   252.379 (MW) /   2019.032 (MB)

	Size of irrep 0 of <ia|bc> integrals:      5.341 (MW) /     42.726 (MB)
	Size of irrep 1 of <ia|bc> integrals:      3.241 (MW) /     25.927 (MB)
	Size of irrep 2 of <ia|bc> integrals:      4.961 (MW) /     39.689 (MB)
	Size of irrep 3 of <ia|bc> integrals:      3.549 (MW) /     28.394 (MB)
	Total:                                    17.092 (MW) /    136.736 (MB)

	Size of irrep 0 of tijab amplitudes:       0.398 (MW) /      3.180 (MB)
	Size of irrep 1 of tijab amplitudes:       0.187 (MW) /      1.498 (MB)
	Size of irrep 2 of tijab amplitudes:       0.367 (MW) /      2.940 (MB)
	Size of irrep 3 of tijab amplitudes:       0.210 (MW) /      1.677 (MB)
	Total:                                     1.162 (MW) /      9.295 (MB)

	Nuclear Rep. energy          =    192.13673664314263
	SCF energy                   =  -1031.80416870344675
	One-electron energy          =   -191.08803688711873
	Two-electron energy          =     86.34774370520110
	Reference energy             =  -1031.80416870345357

*** tstop() called on cqc01 at Sat Apr 27 01:18:58 2019
Module time:
	user time   =      25.29 seconds =       0.42 minutes
	system time =      20.64 seconds =       0.34 minutes
	total time  =        335 seconds =       5.58 minutes
Total time:
	user time   =      50.86 seconds =       0.85 minutes
	system time =      25.65 seconds =       0.43 minutes
	total time  =        377 seconds =       6.28 minutes

*** tstart() called on cqc01
*** at Sat Apr 27 01:18:58 2019

            **************************
            *                        *
            *        CCENERGY        *
            *                        *
            **************************

    Nuclear Rep. energy (wfn)     =  192.136736643142626
    SCF energy          (wfn)     = -1031.804168703446749
    Reference energy    (file100) = -1031.804168703453570

    Input parameters:
    -----------------
    Wave function   =     CCSD
    Reference wfn   =     RHF
    Brueckner       =     No
    Memory (Mbytes) =     32000.0
    Maxiter         =     50
    R_Convergence   =     1.0e-07
    E_Convergence   =     1.0e-06
    Restart         =     Yes
    DIIS            =     Yes
    AO Basis        =     NONE
    ABCD            =     NEW
    Cache Level     =     2
    Cache Type      =     LOW
    Print Level     =     1
    Num. of threads =     1
    # Amps to Print =     10
    Print MP2 Amps? =     No
    Analyze T2 Amps =     No
    Print Pair Ener =     No
    Local CC        =     No
    SCS-MP2         =     False
    SCSN-MP2        =     False
    SCS-CCSD        =     False

MP2 correlation energy -0.7812891747803586
                Solving CC Amplitude Equations
                ------------------------------
  Iter             Energy              RMS        T1Diag      D1Diag    New D1Diag    D2Diag
  ----     ---------------------    ---------   ----------  ----------  ----------   --------
     0        -0.781289174780277    0.000e+00    0.000000    0.000000    0.000000    0.160611
     1        -0.832146173590006    4.084e-01    0.025580    0.080329    0.080329    0.173074
     2        -0.821702834948819    9.250e-02    0.013395    0.041110    0.041110    0.179156
     3        -0.805035863501013    3.058e-02    0.015338    0.048721    0.048721    0.171469
     4        -0.803334581463923    5.179e-03    0.014952    0.047672    0.047672    0.170527
     5        -0.803283960396982    1.465e-03    0.014879    0.047324    0.047324    0.170173
     6        -0.803197354253667    5.975e-04    0.014867    0.047308    0.047308    0.169955
     7        -0.803173555005719    2.268e-04    0.014872    0.047282    0.047282    0.169839
     8        -0.803192462264996    1.034e-04    0.014880    0.047285    0.047285    0.169816
     9        -0.803190559494295    4.105e-05    0.014884    0.047288    0.047288    0.169808
    10        -0.803189193103309    1.534e-05    0.014886    0.047287    0.047287    0.169806
    11        -0.803189984475262    4.605e-06    0.014887    0.047287    0.047287    0.169807
    12        -0.803190226072688    1.540e-06    0.014887    0.047288    0.047288    0.169807
    13        -0.803190240544488    5.440e-07    0.014887    0.047288    0.047288    0.169807
    14        -0.803190250377349    1.933e-07    0.014887    0.047288    0.047288    0.169807
    15        -0.803190248715304    5.700e-08    0.014887    0.047288    0.047288    0.169807
    15        -0.803190248715304    5.700e-08    0.014887    0.047288    0.047288    0.169807

    Iterations converged.


    CCSD corr. energy   =   -0.803190248715304
    PPL corr. energy    =    0.190344871676153
    OS PPL corr. energy =    0.154170393917479
    SS PPL corr. energy =    0.036174477758673
    Largest TIA Amplitudes:
             10 140         0.0331150239
             10 141         0.0256755858
              8  95        -0.0218668156
              8  94        -0.0182069355
              7  94         0.0117205544
              7  97         0.0108224267
             10 142         0.0107026257
             10 145         0.0104732231
              8  98        -0.0095094875
              7  95         0.0089489727

    Largest TIjAb Amplitudes:
     10  10 140 140        -0.0502749794
     10  10 140 141        -0.0371977602
     10  10 141 140        -0.0371977602
     11  11 140 140        -0.0337033321
     11  11 141 141        -0.0311246629
     11  11 140 141        -0.0309887648
     11  11 141 140        -0.0309887648
     10  10 141 141        -0.0300151340
      7   7  95  95        -0.0237307217
     10  11 140 140        -0.0234318868

    SCF energy       (wfn)                    = -1031.804168703446749
    Reference energy (file100)                = -1031.804168703453570

    Opposite-spin MP2 correlation energy      =   -0.577094625918435
    Same-spin MP2 correlation energy          =   -0.204194548861842
    MP2 correlation energy                    =   -0.781289174780359
      * MP2 total energy                      = -1032.585457878233910

    Opposite-spin CCSD correlation energy     =   -0.619541932701549
    Same-spin CCSD correlation energy         =   -0.183648314328368
    CCSD correlation energy                   =   -0.803190248715304
      * CCSD total energy                     = -1032.607358952168852


*** tstop() called on cqc01 at Sat Apr 27 01:24:03 2019
Module time:
	user time   =      38.16 seconds =       0.64 minutes
	system time =      45.78 seconds =       0.76 minutes
	total time  =        305 seconds =       5.08 minutes
Total time:
	user time   =      89.03 seconds =       1.48 minutes
	system time =      71.43 seconds =       1.19 minutes
	total time  =        682 seconds =      11.37 minutes

*** Psi4 exiting successfully. Buy a developer a beer!
