
    -----------------------------------------------------------------------
          Psi4: An Open-Source Ab Initio Electronic Structure Package
                               Psi4 1.2a1.dev938 

                         Git: Rev {HEAD} fc51d9a dirty


    R. M. Parrish, L. A. Burns, D. G. A. Smith, A. C. Simmonett,
    A. E. DePrince III, E. G. Hohenstein, U. Bozkaya, A. Yu. Sokolov,
    R. Di Remigio, R. M. Richard, J. F. Gonthier, A. M. James,
    H. R. McAlexander, A. Kumar, M. Saitow, X. Wang, B. P. Pritchard,
    P. Verma, H. F. Schaefer III, K. Patkowski, R. A. King, E. F. Valeev,
    F. A. Evangelista, J. M. Turney, T. D. Crawford, and C. D. Sherrill,
    J. Chem. Theory Comput. 13(7) pp 3185--3197 (2017).
    (doi: 10.1021/acs.jctc.7b00174)

    -----------------------------------------------------------------------


    Psi4 started on: Friday, 21 August 2020 06:50AM

    Process ID: 428137
    PSIDATADIR: /home/irmler/Programs/psi4/beforeGrueneis3/stage/usr/local/psi4/share/psi4
    Memory:     500.0 MiB
    Threads:    4
    
  ==> Input File <==

--------------------------------------------------------------------------
# Any line starting with the # character is a comment line
memory 250000 mb
molecule molecule{
0 3
O          0.0000000000        0.0000000000        0.0000000000
}

set {
  reference uhf
  basis aug-cc-pv(5+d)z
  scf_type OUT_OF_CORE
  freeze_core true
}

energy('ccsd')
--------------------------------------------------------------------------

  Memory set to 232.831 GiB by Python driver.

*** tstart() called on cqc05
*** at Fri Aug 21 06:50:18 2020

   => Loading Basis Set <=

    Name: AUG-CC-PV(5+D)Z
    Role: ORBITAL
    Keyword: BASIS
    atoms 1 entry O          line   377 file /home/irmler/Programs/psi4/beforeGrueneis3/stage/usr/local/psi4/share/psi4/basis/aug-cc-pv_5pd_z.gbs 


         ---------------------------------------------------------
                                   SCF
            by Justin Turney, Rob Parrish, Andy Simmonett
                             and Daniel Smith
                              UHF Reference
                        4 Threads, 238418 MiB Core
         ---------------------------------------------------------

  ==> Geometry <==

    Molecular point group: d2h
    Geometry (in Angstrom), charge = 0, multiplicity = 3:

       Center              X                  Y                   Z               Mass       
    ------------   -----------------  -----------------  -----------------  -----------------
           O          0.000000000000     0.000000000000     0.000000000000    15.994914619560

  Running in d2h symmetry.

  Rotational constants: A = ************  B = ************  C = ************ [cm^-1]
  Rotational constants: A = ************  B = ************  C = ************ [MHz]
  Nuclear repulsion =    0.000000000000000

  Charge       = 0
  Multiplicity = 3
  Electrons    = 8
  Nalpha       = 5
  Nbeta        = 3

  ==> Algorithm <==

  SCF Algorithm Type is OUT_OF_CORE.
  DIIS enabled.
  MOM disabled.
  Fractional occupation disabled.
  Guess Type is GWH.
  Energy threshold   = 1.00e-08
  Density threshold  = 1.00e-08
  Integral threshold = 0.00e+00

  ==> Primary Basis <==

  Basis Set: AUG-CC-PV(5+D)Z
    Blend: AUG-CC-PV(5+D)Z
    Number of shells: 27
    Number of basis function: 127
    Number of Cartesian functions: 182
    Spherical Harmonics?: true
    Max angular momentum: 5

  ==> Pre-Iterations <==

   -------------------------------------------------------
    Irrep   Nso     Nmo     Nalpha   Nbeta   Ndocc  Nsocc
   -------------------------------------------------------
     Ag        26      26       0       0       0       0
     B1g       11      11       0       0       0       0
     B2g       11      11       0       0       0       0
     B3g       11      11       0       0       0       0
     Au         8       8       0       0       0       0
     B1u       20      20       0       0       0       0
     B2u       20      20       0       0       0       0
     B3u       20      20       0       0       0       0
   -------------------------------------------------------
    Total     127     127       5       3       3       2
   -------------------------------------------------------

  ==> Integral Setup <==

  ==> DiskJK: Disk-Based J/K Matrices <==

    J tasked:                  Yes
    K tasked:                  Yes
    wK tasked:                  No
    Memory (MB):            178813
    Schwarz Cutoff:          1E-12

  Minimum eigenvalue in the overlap matrix is 1.6597829929E-03.
  Using Symmetric Orthogonalization.

  SCF Guess: Generalized Wolfsberg-Helmholtz.

  ==> Iterations <==

                        Total Energy        Delta E     RMS |[F,P]|

   @UHF iter   1:   -70.42755049090684   -7.04276e+01   2.03839e-01 
   @UHF iter   2:   -70.85248946055455   -4.24939e-01   6.03625e-02 DIIS
   @UHF iter   3:   -74.19309647228360   -3.34061e+00   4.43279e-02 DIIS
   @UHF iter   4:   -74.75163578038160   -5.58539e-01   1.21993e-02 DIIS
   @UHF iter   5:   -74.81827613973934   -6.66404e-02   8.21395e-04 DIIS
   @UHF iter   6:   -74.81879773201828   -5.21592e-04   1.87594e-04 DIIS
   @UHF iter   7:   -74.81883123199319   -3.35000e-05   6.79719e-05 DIIS
   @UHF iter   8:   -74.81883797109245   -6.73910e-06   1.57997e-05 DIIS
   @UHF iter   9:   -74.81883829118406   -3.20092e-07   2.61995e-06 DIIS
   @UHF iter  10:   -74.81883829925668   -8.07262e-09   4.37906e-07 DIIS
   @UHF iter  11:   -74.81883829953868   -2.82000e-10   5.10730e-08 DIIS
   @UHF iter  12:   -74.81883829954171   -3.02691e-12   5.81122e-09 DIIS

  ==> Post-Iterations <==

   @Spin Contamination Metric:   9.377070300E-03
   @S^2 Expected:                2.000000000E+00
   @S^2 Observed:                2.009377070E+00
   @S   Expected:                1.000000000E+00
   @S   Observed:                1.000000000E+00

    Orbital Energies (a.u.)
    -----------------------

    Alpha Occupied:                                                       

       1Ag   -20.707589     2Ag    -1.418322     1B2u   -0.711072  
       1B3u   -0.711072     1B1u   -0.611630  

    Alpha Virtual:                                                        

       2B2u    0.104286     2B3u    0.104286     2B1u    0.109744  
       3Ag     0.121303     4Ag     0.391810     1B1g    0.391810  
       1B2g    0.400929     1B3g    0.400929     5Ag     0.404129  
       3B2u    0.470575     3B3u    0.470575     3B1u    0.493103  
       6Ag     0.722423     4B3u    0.957958     4B2u    0.957958  
       1Au     0.967994     4B1u    0.967994     5B3u    0.974163  
       5B2u    0.974163     5B1u    0.976251     2B1g    1.209312  
       7Ag     1.209312     2B2g    1.239206     2B3g    1.239206  
       8Ag     1.249935     6B2u    1.597387     6B3u    1.597387  
       6B1u    1.647948     9Ag     2.573148     3B1g    2.573148  
       3B2g    2.588290     3B3g    2.588290     4B1g    2.599293  
      10Ag     2.599293     4B2g    2.605978     4B3g    2.605978  
      11Ag     2.608221     7B3u    2.818123     7B2u    2.818123  
      12Ag     2.829210     7B1u    2.845285     2Au     2.845285  
       8B2u    2.861941     8B3u    2.861941     8B1u    2.867566  
      13Ag     3.151568     5B1g    3.151568     5B2g    3.203539  
       5B3g    3.203539    14Ag     3.221901     9B2u    4.787388  
       9B3u    4.787388     9B1u    4.860634    10B2u    6.117036  
      10B3u    6.117036    10B1u    6.137283     3Au     6.137283  
      11B2u    6.153165    11B3u    6.153165    11B1u    6.164584  
       4Au     6.164584    12B2u    6.171466    12B3u    6.171466  
      12B1u    6.173765    15Ag     6.976015     6B1g    6.976015  
       6B2g    7.006945     6B3g    7.006945     7B1g    7.029303  
      16Ag     7.029303     7B3g    7.042832     7B2g    7.042832  
      17Ag     7.047362    13B3u    7.282463    13B2u    7.282463  
      13B1u    7.327964     5Au     7.327964    14B2u    7.355709  
      14B3u    7.355709    14B1u    7.365043    18Ag     8.212373  
       8B1g    8.212373     8B2g    8.275225     8B3g    8.275225  
      19Ag     8.296897    20Ag    10.077963    15B2u   15.579618  
      15B3u   15.579618    15B1u   15.646487    16B3u   16.104406  
      16B2u   16.104406    16B1u   16.137102     6Au    16.137102  
      17B2u   16.162695    17B3u   16.162695    17B1u   16.181065  
       7Au    16.181065    18B2u   16.192123    18B3u   16.192123  
      18B1u   16.195815    21Ag    18.937758     9B1g   18.937758  
       9B2g   18.980236     9B3g   18.980236    10B1g   19.010779  
      22Ag    19.010779    10B2g   19.029188    10B3g   19.029188  
      19B2u   19.032321    19B3u   19.032321    23Ag    19.035338  
      19B1u   19.083226     8Au    19.083226    20B2u   19.114066  
      20B3u   19.114066    20B1u   19.124401    11B1g   21.908145  
      24Ag    21.908145    11B3g   21.965708    11B2g   21.965708  
      25Ag    21.985216    26Ag    59.710086  

    Beta Occupied:                                                        

       1Ag   -20.629231     2Ag    -1.075572     1B1u   -0.521681  

    Beta Virtual:                                                         

       1B3u    0.057801     1B2u    0.057801     2B1u    0.111682  
       3Ag     0.130225     2B2u    0.159001     2B3u    0.159001  
       4Ag     0.402787     1B1g    0.402787     1B3g    0.405153  
       1B2g    0.405153     5Ag     0.406162     3B1u    0.506117  
       3B2u    0.565959     3B3u    0.565959     6Ag     0.764260  
       4B3u    0.966030     4B2u    0.966030     1Au     0.972608  
       4B1u    0.972608     5B2u    0.976595     5B3u    0.976595  
       5B1u    0.977917     7Ag     1.278046     2B2g    1.280317  
       2B3g    1.280317     8Ag     1.289748     2B1g    1.289748  
       6B1u    1.677495     6B2u    1.729431     6B3u    1.729431  
       9Ag     2.588058     3B1g    2.588058     3B2g    2.598832  
       3B3g    2.598832     4B1g    2.606542    10Ag     2.606542  
       4B2g    2.611168     4B3g    2.611168    11Ag     2.612710  
       7B3u    2.866838     7B2u    2.866838     7B1u    2.877711  
       2Au     2.877711     8B2u    2.884192     8B3u    2.884192  
       8B1u    2.886340    12Ag     2.908608    13Ag     3.288090  
       5B2g    3.291491     5B3g    3.291491    14Ag     3.305233  
       5B1g    3.305233     9B1u    4.900062     9B2u    4.919724  
       9B3u    4.919724    10B2u    6.140480    10B3u    6.140480  
      10B1u    6.155675     3Au     6.155675    11B2u    6.167544  
      11B3u    6.167544    11B1u    6.176049     4Au     6.176049  
      12B2u    6.181163    12B3u    6.181163    12B1u    6.182870  
      15Ag     7.026481     6B1g    7.026481     6B2g    7.045250  
       6B3g    7.045250     7B1g    7.058662    16Ag     7.058662  
       7B3g    7.066708     7B2g    7.066708    17Ag     7.069389  
      13B3u    7.379974    13B2u    7.379974    13B1u    7.397076  
       5Au     7.397076    14B2u    7.407322    14B3u    7.407322  
      14B1u    7.410735    18Ag     8.360234     8B1g    8.360234  
       8B2g    8.364787     8B3g    8.364787    19Ag     8.366422  
      20Ag    10.157103    15B2u   15.671876    15B3u   15.671876  
      15B1u   15.678513    16B2u   16.155011    16B3u   16.155011  
      16B1u   16.178359     6Au    16.178359    17B3u   16.196594  
      17B2u   16.196594    17B1u   16.209661     7Au    16.209661  
      18B3u   16.217517    18B2u   16.217517    18B1u   16.220139  
      21Ag    19.014932     9B1g   19.014932     9B2g   19.040829  
       9B3g   19.040829    10B1g   19.059379    22Ag    19.059379  
      10B2g   19.070530    10B3g   19.070530    23Ag    19.074251  
      19B2u   19.130464    19B3u   19.130464    19B1u   19.154825  
       8Au    19.154825    20B2u   19.169505    20B3u   19.169505  
      20B1u   19.174409    24Ag    22.004944    11B1g   22.004944  
      11B3g   22.025965    11B2g   22.025965    25Ag    22.033055  
      26Ag    59.741976  

    Final Occupation by Irrep:
             Ag   B1g   B2g   B3g    Au   B1u   B2u   B3u 
    DOCC [     2,    0,    0,    0,    0,    1,    0,    0 ]
    SOCC [     0,    0,    0,    0,    0,    0,    1,    1 ]

  Energy converged.

  @UHF Final Energy:   -74.81883829954171

   => Energetics <=

    Nuclear Repulsion Energy =              0.0000000000000000
    One-Electron Energy =                -103.2515071375818252
    Two-Electron Energy =                  28.4326688380401222
    PCM Polarization Energy =               0.0000000000000000
    Total Energy =                        -74.8188382995417101

    Alert: EFP and PCM quantities not currently incorporated into SCF psivars.
  UHF NO Occupations:
  HONO-2 :    2 Ag 1.9970254
  HONO-1 :    1B2u 1.0000000
  HONO-0 :    1B3u 1.0000000
  LUNO+0 :    3 Ag 0.0029746
  LUNO+1 :    2B1u 0.0017171
  LUNO+2 :    4 Ag 0.0000027
  LUNO+3 :    5 Ag 0.0000000



Properties will be evaluated at   0.000000,   0.000000,   0.000000 Bohr

Properties computed using the SCF density matrix

  Nuclear Dipole Moment: (a.u.)
     X:     0.0000      Y:     0.0000      Z:     0.0000

  Electronic Dipole Moment: (a.u.)
     X:     0.0000      Y:     0.0000      Z:     0.0000

  Dipole Moment: (a.u.)
     X:     0.0000      Y:     0.0000      Z:     0.0000     Total:     0.0000

  Dipole Moment: (Debye)
     X:     0.0000      Y:     0.0000      Z:     0.0000     Total:     0.0000


*** tstop() called on cqc05 at Fri Aug 21 06:50:24 2020
Module time:
	user time   =       6.27 seconds =       0.10 minutes
	system time =       0.20 seconds =       0.00 minutes
	total time  =          6 seconds =       0.10 minutes
Total time:
	user time   =       6.27 seconds =       0.10 minutes
	system time =       0.20 seconds =       0.00 minutes
	total time  =          6 seconds =       0.10 minutes

*** tstart() called on cqc05
*** at Fri Aug 21 06:50:24 2020


	Wfn Parameters:
	--------------------
	Wavefunction         = CCSD
	Number of irreps     = 8
	Number of MOs        = 127
	Number of active MOs = 126
	AO-Basis             = NONE
	Semicanonical        = false
	Reference            = UHF
	Print Level          = 1

	IRREP	# MOs	# FZDC	# DOCC	# SOCC	# VIRT	# FZVR
	-----	-----	------	------	------	------	------
	 Ag	   26	    1	    1	    0	    24	    0
	 B1g	   11	    0	    0	    0	    11	    0
	 B2g	   11	    0	    0	    0	    11	    0
	 B3g	   11	    0	    0	    0	    11	    0
	 Au	   8	    0	    0	    0	    8	    0
	 B1u	   20	    0	    1	    0	    19	    0
	 B2u	   20	    0	    0	    1	    19	    0
	 B3u	   20	    0	    0	    1	    19	    0
	Transforming integrals...
	IWL integrals will be deleted.
	(OO|OO)...
	Presorting SO-basis two-electron integrals.
	Sorting File: SO Ints (nn|nn) nbuckets = 1
	Transforming the one-electron integrals and constructing Fock matrices
	Starting AA/AB first half-transformation.
	Sorting AA/AB half-transformed integrals.
	Starting BB first half-transformation.
	Sorting BB half-transformed integrals.
	First half integral transformation complete.
	Starting AA second half-transformation.
	Starting AB second half-transformation.
	Starting BB second half-transformation.
	Two-electron integral transformation complete.
	(OO|OV)...
	Starting AA second half-transformation.
	Starting AB second half-transformation.
	Starting BB second half-transformation.
	Two-electron integral transformation complete.
	(OO|VV)...
	Starting AA second half-transformation.
	Starting AB second half-transformation.
	Starting BB second half-transformation.
	Two-electron integral transformation complete.
	(OV|OO)...
	Starting AA/AB first half-transformation.
	Sorting AA/AB half-transformed integrals.
	Starting BB first half-transformation.
	Sorting BB half-transformed integrals.
	First half integral transformation complete.
	Starting AA second half-transformation.
	Starting AB second half-transformation.
	Starting BB second half-transformation.
	Two-electron integral transformation complete.
	(OV|OV)...
	Starting AA second half-transformation.
	Starting AB second half-transformation.
	Starting BB second half-transformation.
	Two-electron integral transformation complete.
	(OV|VV)...
	Starting AA second half-transformation.
	Starting AB second half-transformation.
	Starting BB second half-transformation.
	Two-electron integral transformation complete.
	(VV|OO)...
	Starting AA/AB first half-transformation.
	Sorting AA/AB half-transformed integrals.
	Starting BB first half-transformation.
	Sorting BB half-transformed integrals.
	First half integral transformation complete.
	Starting AA second half-transformation.
	Starting AB second half-transformation.
	Starting BB second half-transformation.
	Two-electron integral transformation complete.
	(VV|OV)...
	Starting AA second half-transformation.
	Starting AB second half-transformation.
	Starting BB second half-transformation.
	Two-electron integral transformation complete.
	(VV|VV)...
	Starting AA second half-transformation.
	Starting AB second half-transformation.
	Starting BB second half-transformation.
	Two-electron integral transformation complete.
	Frozen core energy     =    -59.10677706955511

	Size of irrep 0 of <AB|CD> integrals:      0.964 (MW) /      7.715 (MB)
	Size of irrep 1 of <AB|CD> integrals:      0.806 (MW) /      6.451 (MB)
	Size of irrep 2 of <AB|CD> integrals:      0.806 (MW) /      6.451 (MB)
	Size of irrep 3 of <AB|CD> integrals:      0.806 (MW) /      6.451 (MB)
	Size of irrep 4 of <AB|CD> integrals:      0.671 (MW) /      5.366 (MB)
	Size of irrep 5 of <AB|CD> integrals:      0.925 (MW) /      7.404 (MB)
	Size of irrep 6 of <AB|CD> integrals:      0.925 (MW) /      7.404 (MB)
	Size of irrep 7 of <AB|CD> integrals:      0.925 (MW) /      7.404 (MB)
	Total:                                     6.831 (MW) /     54.645 (MB)

	Size of irrep 0 of <ab|cd> integrals:      1.040 (MW) /      8.323 (MB)
	Size of irrep 1 of <ab|cd> integrals:      0.878 (MW) /      7.024 (MB)
	Size of irrep 2 of <ab|cd> integrals:      0.856 (MW) /      6.845 (MB)
	Size of irrep 3 of <ab|cd> integrals:      0.856 (MW) /      6.845 (MB)
	Size of irrep 4 of <ab|cd> integrals:      0.707 (MW) /      5.658 (MB)
	Size of irrep 5 of <ab|cd> integrals:      0.968 (MW) /      7.746 (MB)
	Size of irrep 6 of <ab|cd> integrals:      0.994 (MW) /      7.952 (MB)
	Size of irrep 7 of <ab|cd> integrals:      0.994 (MW) /      7.952 (MB)
	Total:                                     7.293 (MW) /     58.345 (MB)

	Size of irrep 0 of <Ab|Cd> integrals:      4.511 (MW) /     36.091 (MB)
	Size of irrep 1 of <Ab|Cd> integrals:      3.364 (MW) /     26.908 (MB)
	Size of irrep 2 of <Ab|Cd> integrals:      3.323 (MW) /     26.587 (MB)
	Size of irrep 3 of <Ab|Cd> integrals:      3.323 (MW) /     26.587 (MB)
	Size of irrep 4 of <Ab|Cd> integrals:      2.756 (MW) /     22.045 (MB)
	Size of irrep 5 of <Ab|Cd> integrals:      3.787 (MW) /     30.295 (MB)
	Size of irrep 6 of <Ab|Cd> integrals:      3.838 (MW) /     30.701 (MB)
	Size of irrep 7 of <Ab|Cd> integrals:      3.838 (MW) /     30.701 (MB)
	Total:                                    28.739 (MW) /    229.916 (MB)

	Size of irrep 0 of <IA|BC> integrals:      0.169 (MW) /      1.352 (MB)
	Size of irrep 1 of <IA|BC> integrals:      0.102 (MW) /      0.819 (MB)
	Size of irrep 2 of <IA|BC> integrals:      0.102 (MW) /      0.819 (MB)
	Size of irrep 3 of <IA|BC> integrals:      0.102 (MW) /      0.819 (MB)
	Size of irrep 4 of <IA|BC> integrals:      0.067 (MW) /      0.537 (MB)
	Size of irrep 5 of <IA|BC> integrals:      0.125 (MW) /      1.000 (MB)
	Size of irrep 6 of <IA|BC> integrals:      0.125 (MW) /      1.000 (MB)
	Size of irrep 7 of <IA|BC> integrals:      0.125 (MW) /      1.000 (MB)
	Total:                                     0.918 (MW) /      7.347 (MB)

	Size of irrep 0 of <ia|bc> integrals:      0.093 (MW) /      0.744 (MB)
	Size of irrep 1 of <ia|bc> integrals:      0.036 (MW) /      0.285 (MB)
	Size of irrep 2 of <ia|bc> integrals:      0.057 (MW) /      0.459 (MB)
	Size of irrep 3 of <ia|bc> integrals:      0.057 (MW) /      0.459 (MB)
	Size of irrep 4 of <ia|bc> integrals:      0.032 (MW) /      0.256 (MB)
	Size of irrep 5 of <ia|bc> integrals:      0.085 (MW) /      0.677 (MB)
	Size of irrep 6 of <ia|bc> integrals:      0.062 (MW) /      0.495 (MB)
	Size of irrep 7 of <ia|bc> integrals:      0.062 (MW) /      0.495 (MB)
	Total:                                     0.484 (MW) /      3.869 (MB)

	Size of irrep 0 of <Ia|Bc> integrals:      0.176 (MW) /      1.410 (MB)
	Size of irrep 1 of <Ia|Bc> integrals:      0.108 (MW) /      0.866 (MB)
	Size of irrep 2 of <Ia|Bc> integrals:      0.106 (MW) /      0.846 (MB)
	Size of irrep 3 of <Ia|Bc> integrals:      0.106 (MW) /      0.846 (MB)
	Size of irrep 4 of <Ia|Bc> integrals:      0.068 (MW) /      0.544 (MB)
	Size of irrep 5 of <Ia|Bc> integrals:      0.126 (MW) /      1.012 (MB)
	Size of irrep 6 of <Ia|Bc> integrals:      0.129 (MW) /      1.034 (MB)
	Size of irrep 7 of <Ia|Bc> integrals:      0.129 (MW) /      1.034 (MB)
	Total:                                     0.949 (MW) /      7.593 (MB)

	Size of irrep 0 of <iA|bC> integrals:      0.091 (MW) /      0.731 (MB)
	Size of irrep 1 of <iA|bC> integrals:      0.035 (MW) /      0.279 (MB)
	Size of irrep 2 of <iA|bC> integrals:      0.055 (MW) /      0.438 (MB)
	Size of irrep 3 of <iA|bC> integrals:      0.055 (MW) /      0.438 (MB)
	Size of irrep 4 of <iA|bC> integrals:      0.032 (MW) /      0.252 (MB)
	Size of irrep 5 of <iA|bC> integrals:      0.084 (MW) /      0.669 (MB)
	Size of irrep 6 of <iA|bC> integrals:      0.059 (MW) /      0.470 (MB)
	Size of irrep 7 of <iA|bC> integrals:      0.059 (MW) /      0.470 (MB)
	Total:                                     0.468 (MW) /      3.747 (MB)

	Size of irrep 0 of tIjAb amplitudes:       0.004 (MW) /      0.034 (MB)
	Size of irrep 1 of tIjAb amplitudes:       0.000 (MW) /      0.000 (MB)
	Size of irrep 2 of tIjAb amplitudes:       0.002 (MW) /      0.015 (MB)
	Size of irrep 3 of tIjAb amplitudes:       0.002 (MW) /      0.015 (MB)
	Size of irrep 4 of tIjAb amplitudes:       0.000 (MW) /      0.000 (MB)
	Size of irrep 5 of tIjAb amplitudes:       0.004 (MW) /      0.031 (MB)
	Size of irrep 6 of tIjAb amplitudes:       0.002 (MW) /      0.016 (MB)
	Size of irrep 7 of tIjAb amplitudes:       0.002 (MW) /      0.016 (MB)
	Total:                                     0.016 (MW) /      0.126 (MB)

	Nuclear Rep. energy          =      0.00000000000000
	SCF energy                   =    -74.81883829954171
	One-electron energy          =    -26.37477300887155
	Two-electron (AA) energy     =      3.99037007635316
	Two-electron (BB) energy     =      0.58786470713738
	Two-electron (AB) energy     =      6.08447699539435
	Two-electron energy          =     10.66271177888489
	Reference energy             =    -74.81883829954177

*** tstop() called on cqc05 at Fri Aug 21 06:50:28 2020
Module time:
	user time   =       2.44 seconds =       0.04 minutes
	system time =       1.43 seconds =       0.02 minutes
	total time  =          4 seconds =       0.07 minutes
Total time:
	user time   =       8.72 seconds =       0.15 minutes
	system time =       1.63 seconds =       0.03 minutes
	total time  =         10 seconds =       0.17 minutes

*** tstart() called on cqc05
*** at Fri Aug 21 06:50:28 2020

            **************************
            *                        *
            *        CCENERGY        *
            *                        *
            **************************

    Nuclear Rep. energy (wfn)     =    0.000000000000000
    SCF energy          (wfn)     =  -74.818838299541710
    Reference energy    (file100) =  -74.818838299541767

    Input parameters:
    -----------------
    Wave function   =     CCSD
    Reference wfn   =     UHF
    Brueckner       =     No
    Memory (Mbytes) =     250000.0
    Maxiter         =     50
    R_Convergence   =     1.0e-07
    E_Convergence   =     1.0e-06
    Restart         =     Yes
    DIIS            =     Yes
    AO Basis        =     NONE
    ABCD            =     NEW
    Cache Level     =     2
    Cache Type      =     LRU
    Print Level     =     1
    Num. of threads =     4
    # Amps to Print =     10
    Print MP2 Amps? =     No
    Analyze T2 Amps =     No
    Print Pair Ener =     No
    Local CC        =     No
    SCS-MP2         =     False
    SCSN-MP2        =     False
    SCS-CCSD        =     False

MP2 correlation energy -0.1644875530930810
                Solving CC Amplitude Equations
                ------------------------------
  Iter             Energy              RMS        T1Diag      D1Diag    New D1Diag    D2Diag
  ----     ---------------------    ---------   ----------  ----------  ----------   --------
     0        -0.164487553093081    0.000e+00    0.000000    0.000000    0.000000    0.000000
     1        -0.174189954943038    2.752e-02    0.006456    0.000000    0.000000    0.000000
     2        -0.177567604612601    1.010e-02    0.008881    0.000000    0.000000    0.000000
     3        -0.177873633325837    3.787e-03    0.009963    0.000000    0.000000    0.000000
     4        -0.177828519830519    1.668e-03    0.010206    0.000000    0.000000    0.000000
     5        -0.177855130338327    6.774e-04    0.010237    0.000000    0.000000    0.000000
     6        -0.177863006540894    2.271e-04    0.010218    0.000000    0.000000    0.000000
     7        -0.177863080791699    7.701e-05    0.010211    0.000000    0.000000    0.000000
     8        -0.177863220390441    2.478e-05    0.010212    0.000000    0.000000    0.000000
     9        -0.177862760827236    8.703e-06    0.010213    0.000000    0.000000    0.000000
    10        -0.177862860277912    2.689e-06    0.010214    0.000000    0.000000    0.000000
    11        -0.177862892324637    7.113e-07    0.010214    0.000000    0.000000    0.000000
    12        -0.177862909922091    2.499e-07    0.010214    0.000000    0.000000    0.000000
    13        -0.177862911160856    8.145e-08    0.010214    0.000000    0.000000    0.000000
    13        -0.177862911160856    8.145e-08    0.010214    0.000000    0.000000    0.000000

    Iterations converged.


    CCSD corr. energy   =   -0.177862911160856
    PPL corr. energy    =    0.035984267716622
    OS PPL corr. energy =    0.030269336976127
    SS PPL corr. energy =    0.005714930740495
    Largest TIA Amplitudes:
              2  85        -0.0079321820
              3 104        -0.0079321820
              1  66        -0.0077359438
              1  65        -0.0073988578
              2  84        -0.0068880921
              3 103        -0.0068880921
              0   0         0.0052525385
              0   3        -0.0040241335
              0   5        -0.0034561708
              1  72         0.0024060601

    Largest Tia Amplitudes:
              0   4         0.0077697557
              1  69         0.0051529660
              0  10        -0.0050348979
              0   2        -0.0043774775
              0   3         0.0042483799
              0   9        -0.0041151147
              1  65        -0.0040187269
              1  72         0.0038983784
              0   0        -0.0016840295
              1  71         0.0013952621

    Largest TIJAB Amplitudes:
      3   1 104  66        -0.0161881027
      2   1  85  66        -0.0161881027
      3   2 107  88        -0.0157487826
      3   1 107  69        -0.0154981274
      2   1  88  69        -0.0154981274
      3   2 104  85        -0.0153178125
      3   1 107  66        -0.0144569997
      2   1  88  66        -0.0144569997
      3   2  25   4         0.0142448329
      3   2 104  88        -0.0139698915

    Largest Tijab Amplitudes:
      1   0  85  47        -0.0107116763
      1   0 105  36        -0.0107116763
      1   0  84  47        -0.0100659397
      1   0 104  36        -0.0100659397
      1   0  66   3        -0.0096929072
      1   0  69   3        -0.0079802130
      1   0  86  47        -0.0069574339
      1   0 106  36        -0.0069574339
      1   0  85  50         0.0068569355
      1   0 105  39         0.0068569355

    Largest TIjAb Amplitudes:
      1   1  66  66        -0.0329973413
      1   1  69  69        -0.0301254717
      1   1  69  66        -0.0270997757
      1   1  66  69        -0.0262805818
      3   1 104  66        -0.0221843804
      2   1  85  66        -0.0221843804
      2   0   4  85        -0.0209593124
      2   0  25 105         0.0209593124
      3   0   4 105         0.0209593124
      3   0  25  85         0.0209593124

    SCF energy       (wfn)                    =  -74.818838299541710
    Reference energy (file100)                =  -74.818838299541767

    Opposite-spin MP2 correlation energy      =   -0.125876317340316
    Same-spin MP2 correlation energy          =   -0.038611235752761
    MP2 correlation energy                    =   -0.164487553093081
      * MP2 total energy                      =  -74.983325852634849

    Opposite-spin CCSD correlation energy     =   -0.138989747834824
    Same-spin CCSD correlation energy         =   -0.038873164576820
    CCSD correlation energy                   =   -0.177862911160856
      * CCSD total energy                     =  -74.996701210702625


*** tstop() called on cqc05 at Fri Aug 21 06:50:32 2020
Module time:
	user time   =       1.66 seconds =       0.03 minutes
	system time =       1.30 seconds =       0.02 minutes
	total time  =          4 seconds =       0.07 minutes
Total time:
	user time   =      10.38 seconds =       0.17 minutes
	system time =       2.93 seconds =       0.05 minutes
	total time  =         14 seconds =       0.23 minutes

*** Psi4 exiting successfully. Buy a developer a beer!
