
    -----------------------------------------------------------------------
          Psi4: An Open-Source Ab Initio Electronic Structure Package
                               Psi4 1.2a1.dev938 

                         Git: Rev {HEAD} fc51d9a dirty


    R. M. Parrish, L. A. Burns, D. G. A. Smith, A. C. Simmonett,
    A. E. DePrince III, E. G. Hohenstein, U. Bozkaya, A. Yu. Sokolov,
    R. Di Remigio, R. M. Richard, J. F. Gonthier, A. M. James,
    H. R. McAlexander, A. Kumar, M. Saitow, X. Wang, B. P. Pritchard,
    P. Verma, H. F. Schaefer III, K. Patkowski, R. A. King, E. F. Valeev,
    F. A. Evangelista, J. M. Turney, T. D. Crawford, and C. D. Sherrill,
    J. Chem. Theory Comput. 13(7) pp 3185--3197 (2017).
    (doi: 10.1021/acs.jctc.7b00174)

    -----------------------------------------------------------------------


    Psi4 started on: Wednesday, 26 August 2020 09:23AM

    Process ID: 498751
    PSIDATADIR: /home/irmler/Programs/psi4/beforeGrueneis4/stage/usr/local/psi4/share/psi4
    Memory:     500.0 MiB
    Threads:    4
    
  ==> Input File <==

--------------------------------------------------------------------------
# Any line starting with the # character is a comment line
memory 250000 mb
molecule molecule{
0 3
O          0.0000000000        0.0000000000        0.0000000000
}

set {
  reference uhf
  basis aug-cc-pv(6+d)z
  scf_type OUT_OF_CORE
  freeze_core true
}

energy('ccsd')
--------------------------------------------------------------------------

  Memory set to 232.831 GiB by Python driver.

*** tstart() called on cqc05
*** at Wed Aug 26 09:23:22 2020

   => Loading Basis Set <=

    Name: AUG-CC-PV(6+D)Z
    Role: ORBITAL
    Keyword: BASIS
    atoms 1 entry O          line   459 file /home/irmler/Programs/psi4/beforeGrueneis4/stage/usr/local/psi4/share/psi4/basis/aug-cc-pv_6pd_z.gbs 


         ---------------------------------------------------------
                                   SCF
            by Justin Turney, Rob Parrish, Andy Simmonett
                             and Daniel Smith
                              UHF Reference
                        4 Threads, 238418 MiB Core
         ---------------------------------------------------------

  ==> Geometry <==

    Molecular point group: d2h
    Geometry (in Angstrom), charge = 0, multiplicity = 3:

       Center              X                  Y                   Z               Mass       
    ------------   -----------------  -----------------  -----------------  -----------------
           O          0.000000000000     0.000000000000     0.000000000000    15.994914619560

  Running in d2h symmetry.

  Rotational constants: A = ************  B = ************  C = ************ [cm^-1]
  Rotational constants: A = ************  B = ************  C = ************ [MHz]
  Nuclear repulsion =    0.000000000000000

  Charge       = 0
  Multiplicity = 3
  Electrons    = 8
  Nalpha       = 5
  Nbeta        = 3

  ==> Algorithm <==

  SCF Algorithm Type is OUT_OF_CORE.
  DIIS enabled.
  MOM disabled.
  Fractional occupation disabled.
  Guess Type is GWH.
  Energy threshold   = 1.00e-08
  Density threshold  = 1.00e-08
  Integral threshold = 0.00e+00

  ==> Primary Basis <==

  Basis Set: AUG-CC-PV(6+D)Z
    Blend: AUG-CC-PV(6+D)Z
    Number of shells: 35
    Number of basis function: 189
    Number of Cartesian functions: 294
    Spherical Harmonics?: true
    Max angular momentum: 6

  ==> Pre-Iterations <==

   -------------------------------------------------------
    Irrep   Nso     Nmo     Nalpha   Nbeta   Ndocc  Nsocc
   -------------------------------------------------------
     Ag        40      40       0       0       0       0
     B1g       20      20       0       0       0       0
     B2g       20      20       0       0       0       0
     B3g       20      20       0       0       0       0
     Au        11      11       0       0       0       0
     B1u       26      26       0       0       0       0
     B2u       26      26       0       0       0       0
     B3u       26      26       0       0       0       0
   -------------------------------------------------------
    Total     189     189       5       3       3       2
   -------------------------------------------------------

  ==> Integral Setup <==

  ==> DiskJK: Disk-Based J/K Matrices <==

    J tasked:                  Yes
    K tasked:                  Yes
    wK tasked:                  No
    Memory (MB):            178813
    Schwarz Cutoff:          1E-12

  Minimum eigenvalue in the overlap matrix is 6.3360062388E-04.
  Using Symmetric Orthogonalization.

  SCF Guess: Generalized Wolfsberg-Helmholtz.

  ==> Iterations <==

                        Total Energy        Delta E     RMS |[F,P]|

    Occupation by irrep:
             Ag   B1g   B2g   B3g    Au   B1u   B2u   B3u 
    DOCC [     2,    0,    0,    0,    0,    1,    0,    0 ]
    SOCC [     0,    0,    0,    0,    0,    0,    1,    1 ]

   @UHF iter   1:     8.76755225981405    8.76755e+00   4.06766e-01 
   @UHF iter   2:   -69.57964349167322   -7.83472e+01   2.53019e-02 DIIS
   @UHF iter   3:   -73.74488203948374   -4.16524e+00   4.09995e-02 DIIS
   @UHF iter   4:   -74.37430542417070   -6.29423e-01   2.47273e-02 DIIS
   @UHF iter   5:   -74.75636083678498   -3.82055e-01   8.32947e-03 DIIS
   @UHF iter   6:   -74.81685981155434   -6.04990e-02   1.37393e-03 DIIS
   @UHF iter   7:   -74.81891003664228   -2.05023e-03   1.33746e-04 DIIS
   @UHF iter   8:   -74.81895494935600   -4.49127e-05   4.27924e-05 DIIS
   @UHF iter   9:   -74.81896120811946   -6.25876e-06   1.10617e-05 DIIS
   @UHF iter  10:   -74.81896136550785   -1.57388e-07   1.20168e-06 DIIS
   @UHF iter  11:   -74.81896136907648   -3.56863e-09   1.87485e-07 DIIS
   @UHF iter  12:   -74.81896136914763   -7.11537e-11   4.34037e-08 DIIS
   @UHF iter  13:   -74.81896136915005   -2.41585e-12   6.03996e-09 DIIS

  ==> Post-Iterations <==

   @Spin Contamination Metric:   9.376520311E-03
   @S^2 Expected:                2.000000000E+00
   @S^2 Observed:                2.009376520E+00
   @S   Expected:                1.000000000E+00
   @S   Observed:                1.000000000E+00

    Orbital Energies (a.u.)
    -----------------------

    Alpha Occupied:                                                       

       1Ag   -20.707503     2Ag    -1.418291     1B2u   -0.711064  
       1B3u   -0.711064     1B1u   -0.611621  

    Alpha Virtual:                                                        

       2B2u    0.077642     2B3u    0.077642     2B1u    0.081342  
       3Ag     0.103152     4Ag     0.341863     1B1g    0.341863  
       3B2u    0.343186     3B3u    0.343186     1B2g    0.349267  
       1B3g    0.349267     5Ag     0.351835     3B1u    0.359091  
       6Ag     0.575171     4B2u    0.781428     4B3u    0.781428  
       4B1u    0.789066     1Au     0.789066     5B2u    0.793710  
       5B3u    0.793710     5B1u    0.795275     2B1g    1.031534  
       7Ag     1.031534     2B2g    1.056068     2B3g    1.056068  
       8Ag     1.064830     6B2u    1.089678     6B3u    1.089678  
       6B1u    1.127075     9Ag     2.014230     3B1g    2.014230  
       3B3g    2.025771     3B2g    2.025771     4B1g    2.034162  
      10Ag     2.034162     4B3g    2.039261     4B2g    2.039261  
      11Ag     2.040968    12Ag     2.048966     7B2u    2.238034  
       7B3u    2.238034     2Au     2.259341     7B1u    2.259341  
       8B2u    2.272250     8B3u    2.272250     8B1u    2.276592  
       5B1g    2.524058    13Ag     2.524058     5B3g    2.568812  
       5B2g    2.568812    14Ag     2.584672     9B2u    2.971037  
       9B3u    2.971037     9B1u    3.031233    10B3u    4.379444  
      10B2u    4.379444     3Au     4.394396    10B1u    4.394396  
      11B2u    4.406136    11B3u    4.406136     4Au     4.414584  
      11B1u    4.414584    12B2u    4.419678    12B3u    4.419678  
      12B1u    4.421380    13B2u    5.313113    13B3u    5.313113  
       5Au     5.351027    13B1u    5.351027    15Ag     5.358065  
       6B1g    5.358065    14B2u    5.374023    14B3u    5.374023  
      14B1u    5.381740     6B3g    5.383504     6B2g    5.383504  
       7B1g    5.401890    16Ag     5.401890     7B3g    5.413020  
       7B2g    5.413020    17Ag     5.416748     8B1g    5.941761  
      18Ag     5.941761     8B3g    5.999448     8B2g    5.999448  
      19Ag     6.019472    20Ag     6.274490    15B2u    7.612430  
      15B3u    7.612430    15B1u    7.687673     9B1g    9.295959  
      21Ag     9.295959     9B2g    9.314899     9B3g    9.314899  
      10B1g    9.330506    22Ag     9.330506    10B3g    9.342714  
      10B2g    9.342714    11B1g    9.351473    23Ag     9.351473  
      11B3g    9.356743    11B2g    9.356743    24Ag     9.358503  
      16B3u   10.706932    16B2u   10.706932     6Au    10.733803  
      16B1u   10.733803    17B2u   10.754874    17B3u   10.754874  
       7Au    10.770018    17B1u   10.770018    18B2u   10.779142  
      18B3u   10.779142    18B1u   10.782190    19B2u   12.130485  
      19B3u   12.130485     8Au    12.179560    19B1u   12.179560  
      20B2u   12.209283    20B3u   12.209283    20B1u   12.219241  
      12B1g   12.863780    25Ag    12.863780    12B3g   12.902364  
      12B2g   12.902364    13B1g   12.930093    26Ag    12.930093  
      13B3g   12.946805    13B2g   12.946805    27Ag    12.952390  
      14B1g   14.127859    28Ag    14.127859    14B3g   14.189712  
      14B2g   14.189712    29Ag    14.210847    30Ag    19.668674  
      21B2u   22.333330    21B3u   22.333330    21B1u   22.395940  
      15B1g   22.609327    31Ag    22.609327    15B3g   22.637882  
      15B2g   22.637882    32Ag    22.661370    16B1g   22.661370  
      16B3g   22.679718    16B2g   22.679718    17B1g   22.692866  
      33Ag    22.692866    17B2g   22.700772    17B3g   22.700772  
      34Ag    22.703410    22B3u   26.670189    22B2u   26.670189  
       9Au    26.706037    22B1u   26.706037    23B2u   26.734047  
      23B3u   26.734047    10Au    26.754123    23B1u   26.754123  
      24B3u   26.766196    24B2u   26.766196    24B1u   26.770225  
      25B2u   28.317992    25B3u   28.317992    11Au    28.366265  
      25B1u   28.366265    26B3u   28.395413    26B2u   28.395413  
      26B1u   28.405162    35Ag    31.333436    18B1g   31.333436  
      18B3g   31.375308    18B2g   31.375308    19B1g   31.405345  
      36Ag    31.405345    19B2g   31.423419    19B3g   31.423419  
      37Ag    31.429453    20B1g   34.377623    38Ag    34.377623  
      20B2g   34.429911    20B3g   34.429911    39Ag    34.447577  
      40Ag    99.373997  

    Beta Occupied:                                                        

       1Ag   -20.629211     2Ag    -1.075548     1B1u   -0.521685  

    Beta Virtual:                                                         

       1B2u    0.050753     1B3u    0.050753     2B1u    0.082443  
       3Ag     0.110176     2B3u    0.126234     2B2u    0.126234  
       4Ag     0.349383     1B1g    0.349383     1B3g    0.352024  
       1B2g    0.352024     5Ag     0.353068     3B1u    0.367717  
       3B3u    0.420156     3B2u    0.420156     6Ag     0.607319  
       4B3u    0.786121     4B2u    0.786121     1Au     0.791633  
       4B1u    0.791633     5B2u    0.794956     5B3u    0.794956  
       5B1u    0.796065     7Ag     1.084976     2B3g    1.086328  
       2B2g    1.086328     8Ag     1.092486     2B1g    1.092486  
       6B1u    1.148688     6B2u    1.200151     6B3u    1.200151  
       3B1g    2.023095     9Ag     2.023095     3B3g    2.031876  
       3B2g    2.031876     4B1g    2.038171    10Ag     2.038171  
       4B3g    2.041952     4B2g    2.041952    11Ag     2.043212  
      12Ag     2.113191     7B3u    2.271039     7B2u    2.271039  
       2Au     2.280763     7B1u    2.280763     8B2u    2.286534  
       8B3u    2.286534     8B1u    2.288447    13Ag     2.638757  
       5B3g    2.641971     5B2g    2.641971    14Ag     2.654572  
       5B1g    2.654572     9B1u    3.062704     9B3u    3.091083  
       9B2u    3.091083    10B2u    4.392728    10B3u    4.392728  
       3Au     4.404599    10B1u    4.404599    11B2u    4.413876  
      11B3u    4.413876     4Au     4.420527    11B1u    4.420527  
      12B2u    4.424527    12B3u    4.424527    12B1u    4.425862  
      13B3u    5.389072    13B2u    5.389072     6B1g    5.394882  
      15Ag     5.394882    13B1u    5.403935     5Au     5.403935  
       6B2g    5.411061     6B3g    5.411061    14B2u    5.412788  
      14B3u    5.412788    14B1u    5.415729     7B1g    5.422588  
      16Ag     5.422588     7B3g    5.429483     7B2g    5.429483  
      17Ag     5.431778    18Ag     6.084307    19Ag     6.084533  
       8B1g    6.084533     8B2g    6.084579     8B3g    6.084579  
      20Ag     6.352374    15B3u    7.721173    15B2u    7.721173  
      15B1u    7.723329     9B1g    9.315571    21Ag     9.315571  
       9B2g    9.330998     9B3g    9.330998    22Ag     9.343678  
      10B1g    9.343678    10B3g    9.353578    10B2g    9.353578  
      11B1g    9.360670    23Ag     9.360670    11B3g    9.364933  
      11B2g    9.364933    24Ag     9.366356    16B3u   10.743212  
      16B2u   10.743212     6Au    10.762976    16B1u   10.762976  
      17B3u   10.778421    17B2u   10.778421     7Au    10.789493  
      17B1u   10.789493    18B2u   10.796151    18B3u   10.796151  
      18B1u   10.798374    19B3u   12.224448    19B2u   12.224448  
      19B1u   12.247396     8Au    12.247396    20B3u   12.261191  
      20B2u   12.261191    20B1u   12.265794    12B1g   12.929554  
      25Ag    12.929554    12B3g   12.953482    12B2g   12.953482  
      26Ag    12.970569    13B1g   12.970569    13B2g   12.980818  
      13B3g   12.980818    27Ag    12.984234    14B1g   14.239543  
      28Ag    14.239543    14B2g   14.258689    14B3g   14.258689  
      29Ag    14.265187    30Ag    19.726848    21B3u   22.405223  
      21B2u   22.405223    21B1u   22.422311    15B1g   22.647236  
      31Ag    22.647236    15B2g   22.669871    15B3g   22.669871  
      16B1g   22.688468    32Ag    22.688468    16B3g   22.702982  
      16B2g   22.702982    17B1g   22.713375    33Ag    22.713375  
      17B2g   22.719621    17B3g   22.719621    34Ag    22.721705  
      22B3u   26.724874    22B2u   26.724874     9Au    26.751098  
      22B1u   26.751098    23B3u   26.771569    23B2u   26.771569  
      10Au    26.786231    23B1u   26.786231    24B3u   26.795044  
      24B2u   26.795044    24B1u   26.797984    25B2u   28.395534  
      25B3u   28.395534    25B1u   28.423211    11Au    28.423211  
      26B3u   28.439886    26B2u   28.439886    26B1u   28.445455  
      35Ag    31.399727    18B1g   31.399727    18B3g   31.427809  
      18B2g   31.427809    19B1g   31.447921    36Ag    31.447921  
      19B2g   31.460010    19B3g   31.460010    37Ag    31.464043  
      38Ag    34.445647    20B1g   34.445647    20B2g   34.472756  
      20B3g   34.472756    39Ag    34.481886    40Ag    99.394407  

    Final Occupation by Irrep:
             Ag   B1g   B2g   B3g    Au   B1u   B2u   B3u 
    DOCC [     2,    0,    0,    0,    0,    1,    0,    0 ]
    SOCC [     0,    0,    0,    0,    0,    0,    1,    1 ]

  Energy converged.

  @UHF Final Energy:   -74.81896136915005

   => Energetics <=

    Nuclear Repulsion Energy =              0.0000000000000000
    One-Electron Energy =                -103.2519325800020624
    Two-Electron Energy =                  28.4329712108520170
    PCM Polarization Energy =               0.0000000000000000
    Total Energy =                        -74.8189613691500455

    Alert: EFP and PCM quantities not currently incorporated into SCF psivars.
  UHF NO Occupations:
  HONO-2 :    2 Ag 1.9970253
  HONO-1 :    1B2u 1.0000000
  HONO-0 :    1B3u 1.0000000
  LUNO+0 :    3 Ag 0.0029747
  LUNO+1 :    2B1u 0.0017167
  LUNO+2 :    4 Ag 0.0000027
  LUNO+3 :    2B2u 0.0000000



Properties will be evaluated at   0.000000,   0.000000,   0.000000 Bohr

Properties computed using the SCF density matrix

  Nuclear Dipole Moment: (a.u.)
     X:     0.0000      Y:     0.0000      Z:     0.0000

  Electronic Dipole Moment: (a.u.)
     X:     0.0000      Y:     0.0000      Z:     0.0000

  Dipole Moment: (a.u.)
     X:     0.0000      Y:     0.0000      Z:     0.0000     Total:     0.0000

  Dipole Moment: (Debye)
     X:     0.0000      Y:     0.0000      Z:     0.0000     Total:     0.0000


*** tstop() called on cqc05 at Wed Aug 26 09:24:03 2020
Module time:
	user time   =      40.01 seconds =       0.67 minutes
	system time =       0.75 seconds =       0.01 minutes
	total time  =         41 seconds =       0.68 minutes
Total time:
	user time   =      40.01 seconds =       0.67 minutes
	system time =       0.75 seconds =       0.01 minutes
	total time  =         41 seconds =       0.68 minutes

*** tstart() called on cqc05
*** at Wed Aug 26 09:24:03 2020


	Wfn Parameters:
	--------------------
	Wavefunction         = CCSD
	Number of irreps     = 8
	Number of MOs        = 189
	Number of active MOs = 188
	AO-Basis             = NONE
	Semicanonical        = false
	Reference            = UHF
	Print Level          = 1

	IRREP	# MOs	# FZDC	# DOCC	# SOCC	# VIRT	# FZVR
	-----	-----	------	------	------	------	------
	 Ag	   40	    1	    1	    0	    38	    0
	 B1g	   20	    0	    0	    0	    20	    0
	 B2g	   20	    0	    0	    0	    20	    0
	 B3g	   20	    0	    0	    0	    20	    0
	 Au	   11	    0	    0	    0	    11	    0
	 B1u	   26	    0	    1	    0	    25	    0
	 B2u	   26	    0	    0	    1	    25	    0
	 B3u	   26	    0	    0	    1	    25	    0
	Transforming integrals...
	IWL integrals will be deleted.
	(OO|OO)...
	Presorting SO-basis two-electron integrals.
	Sorting File: SO Ints (nn|nn) nbuckets = 1
	Transforming the one-electron integrals and constructing Fock matrices
	Starting AA/AB first half-transformation.
	Sorting AA/AB half-transformed integrals.
	Starting BB first half-transformation.
	Sorting BB half-transformed integrals.
	First half integral transformation complete.
	Starting AA second half-transformation.
	Starting AB second half-transformation.
	Starting BB second half-transformation.
	Two-electron integral transformation complete.
	(OO|OV)...
	Starting AA second half-transformation.
	Starting AB second half-transformation.
	Starting BB second half-transformation.
	Two-electron integral transformation complete.
	(OO|VV)...
	Starting AA second half-transformation.
	Starting AB second half-transformation.
	Starting BB second half-transformation.
	Two-electron integral transformation complete.
	(OV|OO)...
	Starting AA/AB first half-transformation.
	Sorting AA/AB half-transformed integrals.
	Starting BB first half-transformation.
	Sorting BB half-transformed integrals.
	First half integral transformation complete.
	Starting AA second half-transformation.
	Starting AB second half-transformation.
	Starting BB second half-transformation.
	Two-electron integral transformation complete.
	(OV|OV)...
	Starting AA second half-transformation.
	Starting AB second half-transformation.
	Starting BB second half-transformation.
	Two-electron integral transformation complete.
	(OV|VV)...
	Starting AA second half-transformation.
	Starting AB second half-transformation.
	Starting BB second half-transformation.
	Two-electron integral transformation complete.
	(VV|OO)...
	Starting AA/AB first half-transformation.
	Sorting AA/AB half-transformed integrals.
	Starting BB first half-transformation.
	Sorting BB half-transformed integrals.
	First half integral transformation complete.
	Starting AA second half-transformation.
	Starting AB second half-transformation.
	Starting BB second half-transformation.
	Two-electron integral transformation complete.
	(VV|OV)...
	Starting AA second half-transformation.
	Starting AB second half-transformation.
	Starting BB second half-transformation.
	Two-electron integral transformation complete.
	(VV|VV)...
	Starting AA second half-transformation.
	Starting AB second half-transformation.
	Starting BB second half-transformation.
	Two-electron integral transformation complete.
	Frozen core energy     =    -59.10680706475684

	Size of irrep 0 of <AB|CD> integrals:      4.964 (MW) /     39.712 (MB)
	Size of irrep 1 of <AB|CD> integrals:      4.244 (MW) /     33.949 (MB)
	Size of irrep 2 of <AB|CD> integrals:      4.244 (MW) /     33.949 (MB)
	Size of irrep 3 of <AB|CD> integrals:      4.244 (MW) /     33.949 (MB)
	Size of irrep 4 of <AB|CD> integrals:      3.679 (MW) /     29.430 (MB)
	Size of irrep 5 of <AB|CD> integrals:      4.709 (MW) /     37.671 (MB)
	Size of irrep 6 of <AB|CD> integrals:      4.709 (MW) /     37.671 (MB)
	Size of irrep 7 of <AB|CD> integrals:      4.709 (MW) /     37.671 (MB)
	Total:                                    35.500 (MW) /    284.002 (MB)

	Size of irrep 0 of <ab|cd> integrals:      5.189 (MW) /     41.514 (MB)
	Size of irrep 1 of <ab|cd> integrals:      4.456 (MW) /     35.651 (MB)
	Size of irrep 2 of <ab|cd> integrals:      4.393 (MW) /     35.146 (MB)
	Size of irrep 3 of <ab|cd> integrals:      4.393 (MW) /     35.146 (MB)
	Size of irrep 4 of <ab|cd> integrals:      3.834 (MW) /     30.670 (MB)
	Size of irrep 5 of <ab|cd> integrals:      4.884 (MW) /     39.073 (MB)
	Size of irrep 6 of <ab|cd> integrals:      4.964 (MW) /     39.712 (MB)
	Size of irrep 7 of <ab|cd> integrals:      4.964 (MW) /     39.712 (MB)
	Total:                                    37.078 (MW) /    296.623 (MB)

	Size of irrep 0 of <Ab|Cd> integrals:     21.996 (MW) /    175.969 (MB)
	Size of irrep 1 of <Ab|Cd> integrals:     17.389 (MW) /    139.111 (MB)
	Size of irrep 2 of <Ab|Cd> integrals:     17.272 (MW) /    138.179 (MB)
	Size of irrep 3 of <Ab|Cd> integrals:     17.272 (MW) /    138.179 (MB)
	Size of irrep 4 of <Ab|Cd> integrals:     15.023 (MW) /    120.187 (MB)
	Size of irrep 5 of <Ab|Cd> integrals:     19.184 (MW) /    153.475 (MB)
	Size of irrep 6 of <Ab|Cd> integrals:     19.342 (MW) /    154.739 (MB)
	Size of irrep 7 of <Ab|Cd> integrals:     19.342 (MW) /    154.739 (MB)
	Total:                                   146.822 (MW) /   1174.578 (MB)

	Size of irrep 0 of <IA|BC> integrals:      0.524 (MW) /      4.195 (MB)
	Size of irrep 1 of <IA|BC> integrals:      0.334 (MW) /      2.670 (MB)
	Size of irrep 2 of <IA|BC> integrals:      0.334 (MW) /      2.670 (MB)
	Size of irrep 3 of <IA|BC> integrals:      0.334 (MW) /      2.670 (MB)
	Size of irrep 4 of <IA|BC> integrals:      0.272 (MW) /      2.179 (MB)
	Size of irrep 5 of <IA|BC> integrals:      0.447 (MW) /      3.576 (MB)
	Size of irrep 6 of <IA|BC> integrals:      0.447 (MW) /      3.576 (MB)
	Size of irrep 7 of <IA|BC> integrals:      0.447 (MW) /      3.576 (MB)
	Total:                                     3.139 (MW) /     25.111 (MB)

	Size of irrep 0 of <ia|bc> integrals:      0.299 (MW) /      2.390 (MB)
	Size of irrep 1 of <ia|bc> integrals:      0.131 (MW) /      1.047 (MB)
	Size of irrep 2 of <ia|bc> integrals:      0.193 (MW) /      1.543 (MB)
	Size of irrep 3 of <ia|bc> integrals:      0.193 (MW) /      1.543 (MB)
	Size of irrep 4 of <ia|bc> integrals:      0.121 (MW) /      0.971 (MB)
	Size of irrep 5 of <ia|bc> integrals:      0.278 (MW) /      2.228 (MB)
	Size of irrep 6 of <ia|bc> integrals:      0.205 (MW) /      1.640 (MB)
	Size of irrep 7 of <ia|bc> integrals:      0.205 (MW) /      1.640 (MB)
	Total:                                     1.625 (MW) /     13.001 (MB)

	Size of irrep 0 of <Ia|Bc> integrals:      0.539 (MW) /      4.315 (MB)
	Size of irrep 1 of <Ia|Bc> integrals:      0.346 (MW) /      2.769 (MB)
	Size of irrep 2 of <Ia|Bc> integrals:      0.341 (MW) /      2.726 (MB)
	Size of irrep 3 of <Ia|Bc> integrals:      0.341 (MW) /      2.726 (MB)
	Size of irrep 4 of <Ia|Bc> integrals:      0.275 (MW) /      2.202 (MB)
	Size of irrep 5 of <Ia|Bc> integrals:      0.451 (MW) /      3.609 (MB)
	Size of irrep 6 of <Ia|Bc> integrals:      0.457 (MW) /      3.659 (MB)
	Size of irrep 7 of <Ia|Bc> integrals:      0.457 (MW) /      3.659 (MB)
	Total:                                     3.208 (MW) /     25.665 (MB)

	Size of irrep 0 of <iA|bC> integrals:      0.295 (MW) /      2.364 (MB)
	Size of irrep 1 of <iA|bC> integrals:      0.129 (MW) /      1.034 (MB)
	Size of irrep 2 of <iA|bC> integrals:      0.187 (MW) /      1.496 (MB)
	Size of irrep 3 of <iA|bC> integrals:      0.187 (MW) /      1.496 (MB)
	Size of irrep 4 of <iA|bC> integrals:      0.120 (MW) /      0.961 (MB)
	Size of irrep 5 of <iA|bC> integrals:      0.276 (MW) /      2.208 (MB)
	Size of irrep 6 of <iA|bC> integrals:      0.198 (MW) /      1.583 (MB)
	Size of irrep 7 of <iA|bC> integrals:      0.198 (MW) /      1.583 (MB)
	Total:                                     1.591 (MW) /     12.726 (MB)

	Size of irrep 0 of tIjAb amplitudes:       0.009 (MW) /      0.075 (MB)
	Size of irrep 1 of tIjAb amplitudes:       0.000 (MW) /      0.000 (MB)
	Size of irrep 2 of tIjAb amplitudes:       0.004 (MW) /      0.033 (MB)
	Size of irrep 3 of tIjAb amplitudes:       0.004 (MW) /      0.033 (MB)
	Size of irrep 4 of tIjAb amplitudes:       0.000 (MW) /      0.000 (MB)
	Size of irrep 5 of tIjAb amplitudes:       0.009 (MW) /      0.070 (MB)
	Size of irrep 6 of tIjAb amplitudes:       0.004 (MW) /      0.035 (MB)
	Size of irrep 7 of tIjAb amplitudes:       0.004 (MW) /      0.035 (MB)
	Total:                                     0.035 (MW) /      0.282 (MB)

	Nuclear Rep. energy          =      0.00000000000000
	SCF energy                   =    -74.81896136915005
	One-electron energy          =    -26.37503313699100
	Two-electron (AA) energy     =      3.99042379623396
	Two-electron (BB) energy     =      0.58787559566057
	Two-electron (AB) energy     =      6.08457944070330
	Two-electron energy          =     10.66287883259783
	Reference energy             =    -74.81896136915000

*** tstop() called on cqc05 at Wed Aug 26 09:24:21 2020
Module time:
	user time   =      11.40 seconds =       0.19 minutes
	system time =       6.22 seconds =       0.10 minutes
	total time  =         18 seconds =       0.30 minutes
Total time:
	user time   =      51.41 seconds =       0.86 minutes
	system time =       6.97 seconds =       0.12 minutes
	total time  =         59 seconds =       0.98 minutes

*** tstart() called on cqc05
*** at Wed Aug 26 09:24:21 2020

            **************************
            *                        *
            *        CCENERGY        *
            *                        *
            **************************

    Nuclear Rep. energy (wfn)     =    0.000000000000000
    SCF energy          (wfn)     =  -74.818961369150045
    Reference energy    (file100) =  -74.818961369150003

    Input parameters:
    -----------------
    Wave function   =     CCSD
    Reference wfn   =     UHF
    Brueckner       =     No
    Memory (Mbytes) =     250000.0
    Maxiter         =     50
    R_Convergence   =     1.0e-07
    E_Convergence   =     1.0e-06
    Restart         =     Yes
    DIIS            =     Yes
    AO Basis        =     NONE
    ABCD            =     NEW
    Cache Level     =     2
    Cache Type      =     LRU
    Print Level     =     1
    Num. of threads =     4
    # Amps to Print =     10
    Print MP2 Amps? =     No
    Analyze T2 Amps =     No
    Print Pair Ener =     No
    Local CC        =     No
    SCS-MP2         =     False
    SCSN-MP2        =     False
    SCS-CCSD        =     False

MP2 correlation energy -0.1668743647689880
                Solving CC Amplitude Equations
                ------------------------------
  Iter             Energy              RMS        T1Diag      D1Diag    New D1Diag    D2Diag
  ----     ---------------------    ---------   ----------  ----------  ----------   --------
     0        -0.166874364768988    0.000e+00    0.000000    0.000000    0.000000    0.000000
     1        -0.175790154014215    2.726e-02    0.006384    0.000000    0.000000    0.000000
     2        -0.179221130218926    1.008e-02    0.008803    0.000000    0.000000    0.000000
     3        -0.179504532716224    3.772e-03    0.009876    0.000000    0.000000    0.000000
     4        -0.179455843816038    1.669e-03    0.010126    0.000000    0.000000    0.000000
     5        -0.179486143209310    6.775e-04    0.010160    0.000000    0.000000    0.000000
     6        -0.179493401908436    2.342e-04    0.010141    0.000000    0.000000    0.000000
     7        -0.179493168756551    7.873e-05    0.010133    0.000000    0.000000    0.000000
     8        -0.179493567165321    2.629e-05    0.010134    0.000000    0.000000    0.000000
     9        -0.179493117081718    9.869e-06    0.010135    0.000000    0.000000    0.000000
    10        -0.179493163516720    3.581e-06    0.010135    0.000000    0.000000    0.000000
    11        -0.179493226102541    1.050e-06    0.010136    0.000000    0.000000    0.000000
    12        -0.179493252477099    3.867e-07    0.010136    0.000000    0.000000    0.000000
    13        -0.179493258623230    1.188e-07    0.010136    0.000000    0.000000    0.000000
    14        -0.179493258802936    4.377e-08    0.010136    0.000000    0.000000    0.000000
    14        -0.179493258802936    4.377e-08    0.010136    0.000000    0.000000    0.000000

    Iterations converged.


    CCSD corr. energy   =   -0.179493258802936
    PPL corr. energy    =    0.036844448815945
    OS PPL corr. energy =    0.031083261355596
    SS PPL corr. energy =    0.005761187460349
    Largest TIA Amplitudes:
              3 160        -0.0084510070
              2 135        -0.0084510068
              1 110        -0.0083644076
              1 109        -0.0058901699
              2 134        -0.0054913196
              3 159        -0.0054913195
              0   0         0.0047838355
              0   3        -0.0044579302
              0   5        -0.0034436595
              1 116         0.0023875890

    Largest Tia Amplitudes:
              0   4        -0.0073786175
              0  10         0.0057509338
              1 116         0.0050345328
              0   9         0.0044463797
              0   3        -0.0039200218
              0   2         0.0037285888
              1 113         0.0037173675
              1 109        -0.0031873836
              1 110        -0.0022745699
              0  17        -0.0022489188

    Largest TIJAB Amplitudes:
      3   1 163 113        -0.0160691279
      2   1 138 113        -0.0160691279
      3   2 163 138        -0.0160132386
      3   1 163 110        -0.0134056574
      2   1 138 110        -0.0134056574
      3   1 160 113        -0.0128521258
      2   1 135 113        -0.0128521257
      3   2 160 138        -0.0127227492
      3   2 163 135        -0.0127227491
      3   2  39   4         0.0123566644

    Largest Tijab Amplitudes:
      1   0 135  79         0.0107379560
      1   0 161  59         0.0107379560
      1   0 160  59         0.0082506305
      1   0 134  79         0.0082506305
      1   0 110   3         0.0081249894
      1   0 113   3         0.0081173121
      1   0 135  82        -0.0080955937
      1   0 161  62        -0.0080955937
      1   0 113   9        -0.0073124191
      1   0 136  79         0.0071096384

    Largest TIjAb Amplitudes:
      1   1 113 113        -0.0315971049
      1   1 113 110        -0.0260516706
      1   1 110 110        -0.0253226903
      1   1 110 113        -0.0253155055
      3   1 163 113        -0.0214100176
      2   1 138 113        -0.0214100175
      3   0   4 161        -0.0203371066
      3   0  39 135        -0.0203371066
      2   0  39 161        -0.0203371066
      2   0   4 135         0.0203371066

    SCF energy       (wfn)                    =  -74.818961369150045
    Reference energy (file100)                =  -74.818961369150003

    Opposite-spin MP2 correlation energy      =   -0.128070672812233
    Same-spin MP2 correlation energy          =   -0.038803691956751
    MP2 correlation energy                    =   -0.166874364768988
      * MP2 total energy                      =  -74.985835733918989

    Opposite-spin CCSD correlation energy     =   -0.140463196649683
    Same-spin CCSD correlation energy         =   -0.039030061419625
    CCSD correlation energy                   =   -0.179493258802936
      * CCSD total energy                     =  -74.998454627952938


*** tstop() called on cqc05 at Wed Aug 26 09:24:36 2020
Module time:
	user time   =       6.58 seconds =       0.11 minutes
	system time =       7.46 seconds =       0.12 minutes
	total time  =         15 seconds =       0.25 minutes
Total time:
	user time   =      57.99 seconds =       0.97 minutes
	system time =      14.43 seconds =       0.24 minutes
	total time  =         74 seconds =       1.23 minutes

*** Psi4 exiting successfully. Buy a developer a beer!
