
    -----------------------------------------------------------------------
          Psi4: An Open-Source Ab Initio Electronic Structure Package
                               Psi4 1.2a1.dev938 

                         Git: Rev {HEAD} fc51d9a dirty


    R. M. Parrish, L. A. Burns, D. G. A. Smith, A. C. Simmonett,
    A. E. DePrince III, E. G. Hohenstein, U. Bozkaya, A. Yu. Sokolov,
    R. Di Remigio, R. M. Richard, J. F. Gonthier, A. M. James,
    H. R. McAlexander, A. Kumar, M. Saitow, X. Wang, B. P. Pritchard,
    P. Verma, H. F. Schaefer III, K. Patkowski, R. A. King, E. F. Valeev,
    F. A. Evangelista, J. M. Turney, T. D. Crawford, and C. D. Sherrill,
    J. Chem. Theory Comput. 13(7) pp 3185--3197 (2017).
    (doi: 10.1021/acs.jctc.7b00174)

    -----------------------------------------------------------------------


    Psi4 started on: Thursday, 20 August 2020 10:41PM

    Process ID: 425495
    PSIDATADIR: /home/irmler/Programs/psi4/beforeGrueneis3/stage/usr/local/psi4/share/psi4
    Memory:     500.0 MiB
    Threads:    4
    
  ==> Input File <==

--------------------------------------------------------------------------
# Any line starting with the # character is a comment line
memory 250000 mb
molecule molecule{
0 3
O          0.0000000000        0.0000000000        0.0000000000
}

set {
  reference uhf
  basis aug-cc-pv(q+d)z
  scf_type OUT_OF_CORE
  freeze_core true
}

energy('ccsd')
--------------------------------------------------------------------------

  Memory set to 232.831 GiB by Python driver.

*** tstart() called on cqc05
*** at Thu Aug 20 22:41:58 2020

   => Loading Basis Set <=

    Name: AUG-CC-PV(Q+D)Z
    Role: ORBITAL
    Keyword: BASIS
    atoms 1 entry O          line   439 file /home/irmler/Programs/psi4/beforeGrueneis3/stage/usr/local/psi4/share/psi4/basis/aug-cc-pv_qpd_z.gbs 


         ---------------------------------------------------------
                                   SCF
            by Justin Turney, Rob Parrish, Andy Simmonett
                             and Daniel Smith
                              UHF Reference
                        4 Threads, 238418 MiB Core
         ---------------------------------------------------------

  ==> Geometry <==

    Molecular point group: d2h
    Geometry (in Angstrom), charge = 0, multiplicity = 3:

       Center              X                  Y                   Z               Mass       
    ------------   -----------------  -----------------  -----------------  -----------------
           O          0.000000000000     0.000000000000     0.000000000000    15.994914619560

  Running in d2h symmetry.

  Rotational constants: A = ************  B = ************  C = ************ [cm^-1]
  Rotational constants: A = ************  B = ************  C = ************ [MHz]
  Nuclear repulsion =    0.000000000000000

  Charge       = 0
  Multiplicity = 3
  Electrons    = 8
  Nalpha       = 5
  Nbeta        = 3

  ==> Algorithm <==

  SCF Algorithm Type is OUT_OF_CORE.
  DIIS enabled.
  MOM disabled.
  Fractional occupation disabled.
  Guess Type is GWH.
  Energy threshold   = 1.00e-08
  Density threshold  = 1.00e-08
  Integral threshold = 0.00e+00

  ==> Primary Basis <==

  Basis Set: AUG-CC-PV(Q+D)Z
    Blend: AUG-CC-PV(Q+D)Z
    Number of shells: 20
    Number of basis function: 80
    Number of Cartesian functions: 105
    Spherical Harmonics?: true
    Max angular momentum: 4

  ==> Pre-Iterations <==

   -------------------------------------------------------
    Irrep   Nso     Nmo     Nalpha   Nbeta   Ndocc  Nsocc
   -------------------------------------------------------
     Ag        20      20       0       0       0       0
     B1g        8       8       0       0       0       0
     B2g        8       8       0       0       0       0
     B3g        8       8       0       0       0       0
     Au         3       3       0       0       0       0
     B1u       11      11       0       0       0       0
     B2u       11      11       0       0       0       0
     B3u       11      11       0       0       0       0
   -------------------------------------------------------
    Total      80      80       5       3       3       2
   -------------------------------------------------------

  ==> Integral Setup <==

  ==> DiskJK: Disk-Based J/K Matrices <==

    J tasked:                  Yes
    K tasked:                  Yes
    wK tasked:                  No
    Memory (MB):            178813
    Schwarz Cutoff:          1E-12

  Minimum eigenvalue in the overlap matrix is 3.6101200079E-03.
  Using Symmetric Orthogonalization.

  SCF Guess: Generalized Wolfsberg-Helmholtz.

  ==> Iterations <==

                        Total Energy        Delta E     RMS |[F,P]|

   @UHF iter   1:   -70.49191956158940   -7.04919e+01   2.71085e-01 
   @UHF iter   2:   -71.97687938436928   -1.48496e+00   9.23296e-02 DIIS
   @UHF iter   3:   -74.43210089695229   -2.45522e+00   5.14912e-02 DIIS
   @UHF iter   4:   -74.79458140138172   -3.62481e-01   1.07564e-02 DIIS
   @UHF iter   5:   -74.81743430538603   -2.28529e-02   8.09299e-04 DIIS
   @UHF iter   6:   -74.81760321691667   -1.68912e-04   1.90596e-04 DIIS
   @UHF iter   7:   -74.81762144352319   -1.82266e-05   7.16302e-05 DIIS
   @UHF iter   8:   -74.81762497110964   -3.52759e-06   1.25184e-05 DIIS
   @UHF iter   9:   -74.81762505707992   -8.59703e-08   1.35522e-06 DIIS
   @UHF iter  10:   -74.81762505822169   -1.14177e-09   3.83133e-07 DIIS
   @UHF iter  11:   -74.81762505831628   -9.45874e-11   5.52420e-08 DIIS
   @UHF iter  12:   -74.81762505831738   -1.09424e-12   4.28703e-09 DIIS

  ==> Post-Iterations <==

   @Spin Contamination Metric:   9.359305336E-03
   @S^2 Expected:                2.000000000E+00
   @S^2 Observed:                2.009359305E+00
   @S   Expected:                1.000000000E+00
   @S   Observed:                1.000000000E+00

    Orbital Energies (a.u.)
    -----------------------

    Alpha Occupied:                                                       

       1Ag   -20.708587     2Ag    -1.418674     1B1u   -0.711081  
       1B2u   -0.711081     1B3u   -0.611668  

    Alpha Virtual:                                                        

       2B1u    0.132279     2B2u    0.132279     3Ag     0.136137  
       2B3u    0.140006     4Ag     0.460958     1B3g    0.460958  
       1B1g    0.472606     1B2g    0.472606     5Ag     0.476677  
       3B2u    0.677761     3B1u    0.677761     3B3u    0.711774  
       6Ag     0.873343     4B1u    1.308778     4B2u    1.308778  
       4B3u    1.323556     1Au     1.323556     5B2u    1.332689  
       5B1u    1.332689     5B3u    1.335789     7Ag     1.464991  
       2B3g    1.464991     2B1g    1.501964     2B2g    1.501964  
       8Ag     1.515185     6B2u    2.663774     6B1u    2.663774  
       6B3u    2.732009     3B3g    3.590581     9Ag     3.590581  
       3B1g    3.611719     3B2g    3.611719    10Ag     3.627057  
       4B3g    3.627057     4B1g    3.636363     4B2g    3.636363  
      11Ag     3.639483    12Ag     3.884938     7B2u    3.963901  
       7B1u    3.963901     7B3u    3.999988     2Au     3.999988  
       8B2u    4.022237     8B1u    4.022237     8B3u    4.029778  
      13Ag     4.221634     5B3g    4.221634     5B1g    4.281646  
       5B2g    4.281646    14Ag     4.302747     9B1u   10.275062  
       9B2u   10.275062     9B3u   10.346183     6B3g   10.490671  
      15Ag    10.490671     6B1g   10.528836     6B2g   10.528836  
       7B3g   10.556375    16Ag    10.556375     7B1g   10.573015  
       7B2g   10.573015    17Ag    10.578581    10B2u   11.704827  
      10B1u   11.704827     3Au    11.756664    10B3u   11.756664  
      11B2u   11.788358    11B1u   11.788358    11B3u   11.799047  
      18Ag    12.527985     8B3g   12.527985     8B1g   12.591008  
       8B2g   12.591008    19Ag    12.612472    20Ag    40.403558  

    Beta Occupied:                                                        

       1Ag   -20.629881     2Ag    -1.075945     1B3u   -0.521728  

    Beta Virtual:                                                         

       1B1u    0.062468     1B2u    0.062468     2B3u    0.143166  
       3Ag     0.146810     2B1u    0.197792     2B2u    0.197792  
       4Ag     0.477899     1B3g    0.477899     1B1g    0.479492  
       1B2g    0.479492     5Ag     0.480314     3B3u    0.732832  
       3B2u    0.804407     3B1u    0.804407     6Ag     0.925802  
       4B1u    1.325640     4B2u    1.325640     4B3u    1.333751  
       1Au     1.333751     5B2u    1.338652     5B1u    1.338652  
       5B3u    1.340270     7Ag     1.555319     2B1g    1.558970  
       2B2g    1.558970     8Ag     1.573015     2B3g    1.573015  
       6B3u    2.773764     6B2u    2.823604     6B1u    2.823604  
       3B3g    3.618289     9Ag     3.618289     3B1g    3.631919  
       3B2g    3.631919    10Ag     3.641658     4B3g    3.641658  
       4B1g    3.647495     4B2g    3.647495    11Ag     3.649440  
      12Ag     3.980704     7B2u    4.039017     7B1u    4.039017  
       7B3u    4.051420     2Au     4.051420     8B2u    4.058826  
       8B1u    4.058826     8B3u    4.061283    13Ag     4.381800  
       5B1g    4.385343     5B2g    4.385343    14Ag     4.398819  
       5B3g    4.398819     9B3u   10.385211     9B1u   10.395384  
       9B2u   10.395384    15Ag    10.561855     6B3g   10.561855  
       6B2g   10.583848     6B1g   10.583848     7B3g   10.599591  
      16Ag    10.599591     7B1g   10.609048     7B2g   10.609048  
      17Ag    10.612202    10B2u   11.821443    10B1u   11.821443  
       3Au    11.840748    10B3u   11.840748    11B2u   11.852379  
      11B1u   11.852379    11B3u   11.856263    18Ag    12.668144  
       8B3g   12.668144     8B1g   12.676927     8B2g   12.676927  
      19Ag    12.679940    20Ag    40.452241  

    Final Occupation by Irrep:
             Ag   B1g   B2g   B3g    Au   B1u   B2u   B3u 
    DOCC [     2,    0,    0,    0,    0,    0,    0,    1 ]
    SOCC [     0,    0,    0,    0,    0,    1,    1,    0 ]

  Energy converged.

  @UHF Final Energy:   -74.81762505831738

   => Energetics <=

    Nuclear Repulsion Energy =              0.0000000000000000
    One-Electron Energy =                -103.2466049724470878
    Two-Electron Energy =                  28.4289799141297195
    PCM Polarization Energy =               0.0000000000000000
    Total Energy =                        -74.8176250583173612

    Alert: EFP and PCM quantities not currently incorporated into SCF psivars.
  UHF NO Occupations:
  HONO-2 :    2 Ag 1.9970281
  HONO-1 :    1B1u 1.0000000
  HONO-0 :    1B2u 1.0000000
  LUNO+0 :    3 Ag 0.0029719
  LUNO+1 :    2B3u 0.0017112
  LUNO+2 :    4 Ag 0.0000024
  LUNO+3 :    5 Ag 0.0000000



Properties will be evaluated at   0.000000,   0.000000,   0.000000 Bohr

Properties computed using the SCF density matrix

  Nuclear Dipole Moment: (a.u.)
     X:     0.0000      Y:     0.0000      Z:     0.0000

  Electronic Dipole Moment: (a.u.)
     X:     0.0000      Y:     0.0000      Z:     0.0000

  Dipole Moment: (a.u.)
     X:     0.0000      Y:     0.0000      Z:     0.0000     Total:     0.0000

  Dipole Moment: (Debye)
     X:     0.0000      Y:     0.0000      Z:     0.0000     Total:     0.0000


*** tstop() called on cqc05 at Thu Aug 20 22:41:58 2020
Module time:
	user time   =       1.42 seconds =       0.02 minutes
	system time =       0.06 seconds =       0.00 minutes
	total time  =          0 seconds =       0.00 minutes
Total time:
	user time   =       1.42 seconds =       0.02 minutes
	system time =       0.06 seconds =       0.00 minutes
	total time  =          0 seconds =       0.00 minutes

*** tstart() called on cqc05
*** at Thu Aug 20 22:41:58 2020


	Wfn Parameters:
	--------------------
	Wavefunction         = CCSD
	Number of irreps     = 8
	Number of MOs        = 80
	Number of active MOs = 79
	AO-Basis             = NONE
	Semicanonical        = false
	Reference            = UHF
	Print Level          = 1

	IRREP	# MOs	# FZDC	# DOCC	# SOCC	# VIRT	# FZVR
	-----	-----	------	------	------	------	------
	 Ag	   20	    1	    1	    0	    18	    0
	 B1g	   8	    0	    0	    0	    8	    0
	 B2g	   8	    0	    0	    0	    8	    0
	 B3g	   8	    0	    0	    0	    8	    0
	 Au	   3	    0	    0	    0	    3	    0
	 B1u	   11	    0	    0	    1	    10	    0
	 B2u	   11	    0	    0	    1	    10	    0
	 B3u	   11	    0	    1	    0	    10	    0
	Transforming integrals...
	IWL integrals will be deleted.
	(OO|OO)...
	Presorting SO-basis two-electron integrals.
	Sorting File: SO Ints (nn|nn) nbuckets = 1
	Transforming the one-electron integrals and constructing Fock matrices
	Starting AA/AB first half-transformation.
	Sorting AA/AB half-transformed integrals.
	Starting BB first half-transformation.
	Sorting BB half-transformed integrals.
	First half integral transformation complete.
	Starting AA second half-transformation.
	Starting AB second half-transformation.
	Starting BB second half-transformation.
	Two-electron integral transformation complete.
	(OO|OV)...
	Starting AA second half-transformation.
	Starting AB second half-transformation.
	Starting BB second half-transformation.
	Two-electron integral transformation complete.
	(OO|VV)...
	Starting AA second half-transformation.
	Starting AB second half-transformation.
	Starting BB second half-transformation.
	Two-electron integral transformation complete.
	(OV|OO)...
	Starting AA/AB first half-transformation.
	Sorting AA/AB half-transformed integrals.
	Starting BB first half-transformation.
	Sorting BB half-transformed integrals.
	First half integral transformation complete.
	Starting AA second half-transformation.
	Starting AB second half-transformation.
	Starting BB second half-transformation.
	Two-electron integral transformation complete.
	(OV|OV)...
	Starting AA second half-transformation.
	Starting AB second half-transformation.
	Starting BB second half-transformation.
	Two-electron integral transformation complete.
	(OV|VV)...
	Starting AA second half-transformation.
	Starting AB second half-transformation.
	Starting BB second half-transformation.
	Two-electron integral transformation complete.
	(VV|OO)...
	Starting AA/AB first half-transformation.
	Sorting AA/AB half-transformed integrals.
	Starting BB first half-transformation.
	Sorting BB half-transformed integrals.
	First half integral transformation complete.
	Starting AA second half-transformation.
	Starting AB second half-transformation.
	Starting BB second half-transformation.
	Two-electron integral transformation complete.
	(VV|OV)...
	Starting AA second half-transformation.
	Starting AB second half-transformation.
	Starting BB second half-transformation.
	Two-electron integral transformation complete.
	(VV|VV)...
	Starting AA second half-transformation.
	Starting AB second half-transformation.
	Starting BB second half-transformation.
	Two-electron integral transformation complete.
	Frozen core energy     =    -59.10665592630049

	Size of irrep 0 of <AB|CD> integrals:      0.141 (MW) /      1.125 (MB)
	Size of irrep 1 of <AB|CD> integrals:      0.114 (MW) /      0.914 (MB)
	Size of irrep 2 of <AB|CD> integrals:      0.114 (MW) /      0.914 (MB)
	Size of irrep 3 of <AB|CD> integrals:      0.114 (MW) /      0.914 (MB)
	Size of irrep 4 of <AB|CD> integrals:      0.086 (MW) /      0.691 (MB)
	Size of irrep 5 of <AB|CD> integrals:      0.132 (MW) /      1.060 (MB)
	Size of irrep 6 of <AB|CD> integrals:      0.132 (MW) /      1.060 (MB)
	Size of irrep 7 of <AB|CD> integrals:      0.132 (MW) /      1.060 (MB)
	Total:                                     0.967 (MW) /      7.738 (MB)

	Size of irrep 0 of <ab|cd> integrals:      0.156 (MW) /      1.248 (MB)
	Size of irrep 1 of <ab|cd> integrals:      0.123 (MW) /      0.986 (MB)
	Size of irrep 2 of <ab|cd> integrals:      0.123 (MW) /      0.986 (MB)
	Size of irrep 3 of <ab|cd> integrals:      0.129 (MW) /      1.031 (MB)
	Size of irrep 4 of <ab|cd> integrals:      0.096 (MW) /      0.769 (MB)
	Size of irrep 5 of <ab|cd> integrals:      0.152 (MW) /      1.217 (MB)
	Size of irrep 6 of <ab|cd> integrals:      0.152 (MW) /      1.217 (MB)
	Size of irrep 7 of <ab|cd> integrals:      0.144 (MW) /      1.155 (MB)
	Total:                                     1.076 (MW) /      8.608 (MB)

	Size of irrep 0 of <Ab|Cd> integrals:      0.714 (MW) /      5.712 (MB)
	Size of irrep 1 of <Ab|Cd> integrals:      0.475 (MW) /      3.798 (MB)
	Size of irrep 2 of <Ab|Cd> integrals:      0.475 (MW) /      3.798 (MB)
	Size of irrep 3 of <Ab|Cd> integrals:      0.484 (MW) /      3.875 (MB)
	Size of irrep 4 of <Ab|Cd> integrals:      0.365 (MW) /      2.919 (MB)
	Size of irrep 5 of <Ab|Cd> integrals:      0.569 (MW) /      4.548 (MB)
	Size of irrep 6 of <Ab|Cd> integrals:      0.569 (MW) /      4.548 (MB)
	Size of irrep 7 of <Ab|Cd> integrals:      0.554 (MW) /      4.428 (MB)
	Total:                                     4.203 (MW) /     33.626 (MB)

	Size of irrep 0 of <IA|BC> integrals:      0.040 (MW) /      0.317 (MB)
	Size of irrep 1 of <IA|BC> integrals:      0.021 (MW) /      0.168 (MB)
	Size of irrep 2 of <IA|BC> integrals:      0.021 (MW) /      0.168 (MB)
	Size of irrep 3 of <IA|BC> integrals:      0.021 (MW) /      0.168 (MB)
	Size of irrep 4 of <IA|BC> integrals:      0.016 (MW) /      0.127 (MB)
	Size of irrep 5 of <IA|BC> integrals:      0.032 (MW) /      0.256 (MB)
	Size of irrep 6 of <IA|BC> integrals:      0.032 (MW) /      0.256 (MB)
	Size of irrep 7 of <IA|BC> integrals:      0.032 (MW) /      0.256 (MB)
	Total:                                     0.214 (MW) /      1.716 (MB)

	Size of irrep 0 of <ia|bc> integrals:      0.024 (MW) /      0.194 (MB)
	Size of irrep 1 of <ia|bc> integrals:      0.013 (MW) /      0.107 (MB)
	Size of irrep 2 of <ia|bc> integrals:      0.013 (MW) /      0.107 (MB)
	Size of irrep 3 of <ia|bc> integrals:      0.008 (MW) /      0.063 (MB)
	Size of irrep 4 of <ia|bc> integrals:      0.007 (MW) /      0.055 (MB)
	Size of irrep 5 of <ia|bc> integrals:      0.015 (MW) /      0.119 (MB)
	Size of irrep 6 of <ia|bc> integrals:      0.015 (MW) /      0.119 (MB)
	Size of irrep 7 of <ia|bc> integrals:      0.021 (MW) /      0.170 (MB)
	Total:                                     0.117 (MW) /      0.933 (MB)

	Size of irrep 0 of <Ia|Bc> integrals:      0.042 (MW) /      0.338 (MB)
	Size of irrep 1 of <Ia|Bc> integrals:      0.022 (MW) /      0.176 (MB)
	Size of irrep 2 of <Ia|Bc> integrals:      0.022 (MW) /      0.176 (MB)
	Size of irrep 3 of <Ia|Bc> integrals:      0.023 (MW) /      0.184 (MB)
	Size of irrep 4 of <Ia|Bc> integrals:      0.016 (MW) /      0.130 (MB)
	Size of irrep 5 of <Ia|Bc> integrals:      0.034 (MW) /      0.271 (MB)
	Size of irrep 6 of <Ia|Bc> integrals:      0.034 (MW) /      0.271 (MB)
	Size of irrep 7 of <Ia|Bc> integrals:      0.033 (MW) /      0.262 (MB)
	Total:                                     0.226 (MW) /      1.810 (MB)

	Size of irrep 0 of <iA|bC> integrals:      0.024 (MW) /      0.189 (MB)
	Size of irrep 1 of <iA|bC> integrals:      0.012 (MW) /      0.099 (MB)
	Size of irrep 2 of <iA|bC> integrals:      0.012 (MW) /      0.099 (MB)
	Size of irrep 3 of <iA|bC> integrals:      0.008 (MW) /      0.061 (MB)
	Size of irrep 4 of <iA|bC> integrals:      0.007 (MW) /      0.053 (MB)
	Size of irrep 5 of <iA|bC> integrals:      0.014 (MW) /      0.109 (MB)
	Size of irrep 6 of <iA|bC> integrals:      0.014 (MW) /      0.109 (MB)
	Size of irrep 7 of <iA|bC> integrals:      0.021 (MW) /      0.167 (MB)
	Total:                                     0.111 (MW) /      0.886 (MB)

	Size of irrep 0 of tIjAb amplitudes:       0.002 (MW) /      0.014 (MB)
	Size of irrep 1 of tIjAb amplitudes:       0.001 (MW) /      0.006 (MB)
	Size of irrep 2 of tIjAb amplitudes:       0.001 (MW) /      0.006 (MB)
	Size of irrep 3 of tIjAb amplitudes:       0.000 (MW) /      0.000 (MB)
	Size of irrep 4 of tIjAb amplitudes:       0.000 (MW) /      0.000 (MB)
	Size of irrep 5 of tIjAb amplitudes:       0.001 (MW) /      0.006 (MB)
	Size of irrep 6 of tIjAb amplitudes:       0.001 (MW) /      0.006 (MB)
	Size of irrep 7 of tIjAb amplitudes:       0.001 (MW) /      0.012 (MB)
	Total:                                     0.006 (MW) /      0.049 (MB)

	Nuclear Rep. energy          =      0.00000000000000
	SCF energy                   =    -74.81762505831738
	One-electron energy          =    -26.37176080890016
	Two-electron (AA) energy     =      3.98951040151376
	Two-electron (BB) energy     =      0.58779376220506
	Two-electron (AB) energy     =      6.08348751316448
	Two-electron energy          =     10.66079167688331
	Reference energy             =    -74.81762505831735

*** tstop() called on cqc05 at Thu Aug 20 22:41:59 2020
Module time:
	user time   =       0.42 seconds =       0.01 minutes
	system time =       0.31 seconds =       0.01 minutes
	total time  =          1 seconds =       0.02 minutes
Total time:
	user time   =       1.84 seconds =       0.03 minutes
	system time =       0.37 seconds =       0.01 minutes
	total time  =          1 seconds =       0.02 minutes

*** tstart() called on cqc05
*** at Thu Aug 20 22:41:59 2020

            **************************
            *                        *
            *        CCENERGY        *
            *                        *
            **************************

    Nuclear Rep. energy (wfn)     =    0.000000000000000
    SCF energy          (wfn)     =  -74.817625058317375
    Reference energy    (file100) =  -74.817625058317347

    Input parameters:
    -----------------
    Wave function   =     CCSD
    Reference wfn   =     UHF
    Brueckner       =     No
    Memory (Mbytes) =     250000.0
    Maxiter         =     50
    R_Convergence   =     1.0e-07
    E_Convergence   =     1.0e-06
    Restart         =     Yes
    DIIS            =     Yes
    AO Basis        =     NONE
    ABCD            =     NEW
    Cache Level     =     2
    Cache Type      =     LRU
    Print Level     =     1
    Num. of threads =     4
    # Amps to Print =     10
    Print MP2 Amps? =     No
    Analyze T2 Amps =     No
    Print Pair Ener =     No
    Local CC        =     No
    SCS-MP2         =     False
    SCSN-MP2        =     False
    SCS-CCSD        =     False

MP2 correlation energy -0.1590839710242807
                Solving CC Amplitude Equations
                ------------------------------
  Iter             Energy              RMS        T1Diag      D1Diag    New D1Diag    D2Diag
  ----     ---------------------    ---------   ----------  ----------  ----------   --------
     0        -0.159083971024281    0.000e+00    0.000000    0.000000    0.000000    0.000000
     1        -0.170071126759906    2.816e-02    0.006640    0.000000    0.000000    0.000000
     2        -0.173450981794521    1.018e-02    0.009078    0.000000    0.000000    0.000000
     3        -0.173782947539785    3.837e-03    0.010165    0.000000    0.000000    0.000000
     4        -0.173740614745429    1.690e-03    0.010405    0.000000    0.000000    0.000000
     5        -0.173766235250757    6.838e-04    0.010429    0.000000    0.000000    0.000000
     6        -0.173773915678600    2.156e-04    0.010413    0.000000    0.000000    0.000000
     7        -0.173773839944485    7.348e-05    0.010406    0.000000    0.000000    0.000000
     8        -0.173773732592339    2.148e-05    0.010408    0.000000    0.000000    0.000000
     9        -0.173773389236950    6.695e-06    0.010409    0.000000    0.000000    0.000000
    10        -0.173773469785300    1.615e-06    0.010410    0.000000    0.000000    0.000000
    11        -0.173773477846588    4.104e-07    0.010410    0.000000    0.000000    0.000000
    12        -0.173773484572328    1.350e-07    0.010410    0.000000    0.000000    0.000000
    13        -0.173773484162933    4.039e-08    0.010410    0.000000    0.000000    0.000000
    13        -0.173773484162933    4.039e-08    0.010410    0.000000    0.000000    0.000000

    Iterations converged.


    CCSD corr. energy   =   -0.173773484162933
    PPL corr. energy    =    0.034170343595306
    OS PPL corr. energy =    0.028594762928285
    SS PPL corr. energy =    0.005575580667021
    Largest TIA Amplitudes:
              3  65        -0.0091152234
              1  45        -0.0083867536
              2  55        -0.0083867536
              1  46        -0.0066706604
              2  56        -0.0066706604
              3  66        -0.0064887489
              0   0        -0.0057147463
              0   3         0.0037920087
              0   5         0.0032435512
              0   2        -0.0026444716

    Largest Tia Amplitudes:
              0   4         0.0079820032
              1  71         0.0058725797
              1  67        -0.0052531846
              0   2        -0.0051679916
              0   3         0.0042264963
              0  10        -0.0038294401
              0   9        -0.0036489547
              0   0        -0.0015269263
              1  74         0.0013726164
              1  70         0.0013511664

    Largest TIJAB Amplitudes:
      3   2  66  56        -0.0211929765
      3   1  66  46        -0.0211929765
      2   1  56  46        -0.0205283747
      2   1  35   4        -0.0161242546
      3   2  19   5         0.0148755143
      3   1  27   5         0.0148755143
      3   2  66  59        -0.0134124684
      3   1  66  49        -0.0134124684
      2   1  56  49        -0.0132604217
      2   1  59  46        -0.0132604217

    Largest Tijab Amplitudes:
      1   0  68   3        -0.0112464139
      1   0  45  27        -0.0111601916
      1   0  56  19        -0.0111601916
      1   0  46  27        -0.0108186680
      1   0  57  19        -0.0108186680
      1   0  45  26         0.0080980761
      1   0  56  18         0.0080980761
      1   0  46  26         0.0073578807
      1   0  57  18         0.0073578807
      1   0  68   0         0.0069702180

    Largest TIjAb Amplitudes:
      3   1  66  68        -0.0426447433
      2   1  56  68        -0.0287428884
      1   1  46  68        -0.0287428884
      3   1  69  71        -0.0240824960
      3   1  69  68        -0.0233440565
      1   0   4  45         0.0230313949
      1   0  35  56         0.0230313949
      2   0   4  56        -0.0230313949
      2   0  35  45         0.0230313949
      3   0  19  56         0.0226096109

    SCF energy       (wfn)                    =  -74.817625058317375
    Reference energy (file100)                =  -74.817625058317347

    Opposite-spin MP2 correlation energy      =   -0.121099337102856
    Same-spin MP2 correlation energy          =   -0.037984633921424
    MP2 correlation energy                    =   -0.159083971024281
      * MP2 total energy                      =  -74.976709029341635

    Opposite-spin CCSD correlation energy     =   -0.135440089547650
    Same-spin CCSD correlation energy         =   -0.038333395174172
    CCSD correlation energy                   =   -0.173773484162933
      * CCSD total energy                     =  -74.991398542480283


*** tstop() called on cqc05 at Thu Aug 20 22:42:01 2020
Module time:
	user time   =       0.47 seconds =       0.01 minutes
	system time =       0.41 seconds =       0.01 minutes
	total time  =          2 seconds =       0.03 minutes
Total time:
	user time   =       2.31 seconds =       0.04 minutes
	system time =       0.78 seconds =       0.01 minutes
	total time  =          3 seconds =       0.05 minutes

*** Psi4 exiting successfully. Buy a developer a beer!
