
    -----------------------------------------------------------------------
          Psi4: An Open-Source Ab Initio Electronic Structure Package
                               Psi4 1.2a1.dev938 

                         Git: Rev {HEAD} fc51d9a dirty


    R. M. Parrish, L. A. Burns, D. G. A. Smith, A. C. Simmonett,
    A. E. DePrince III, E. G. Hohenstein, U. Bozkaya, A. Yu. Sokolov,
    R. Di Remigio, R. M. Richard, J. F. Gonthier, A. M. James,
    H. R. McAlexander, A. Kumar, M. Saitow, X. Wang, B. P. Pritchard,
    P. Verma, H. F. Schaefer III, K. Patkowski, R. A. King, E. F. Valeev,
    F. A. Evangelista, J. M. Turney, T. D. Crawford, and C. D. Sherrill,
    J. Chem. Theory Comput. 13(7) pp 3185--3197 (2017).
    (doi: 10.1021/acs.jctc.7b00174)

    -----------------------------------------------------------------------


    Psi4 started on: Thursday, 20 August 2020 07:54PM

    Process ID: 422536
    PSIDATADIR: /home/irmler/Programs/psi4/beforeGrueneis3/stage/usr/local/psi4/share/psi4
    Memory:     500.0 MiB
    Threads:    4
    
  ==> Input File <==

--------------------------------------------------------------------------
# Any line starting with the # character is a comment line
memory 250000 mb
molecule molecule{
0 2
Cl         0.0000000000        0.0000000000       -0.4834702805
O          0.0000000000        0.0000000000        1.0713196655
}

set {
  reference uhf
  basis aug-cc-pv(d+d)z
  scf_type OUT_OF_CORE
  freeze_core true
}

energy('ccsd')
--------------------------------------------------------------------------

  Memory set to 232.831 GiB by Python driver.

*** tstart() called on cqc05
*** at Thu Aug 20 19:54:06 2020

   => Loading Basis Set <=

    Name: AUG-CC-PV(D+D)Z
    Role: ORBITAL
    Keyword: BASIS
    atoms 1 entry CL         line   792 file /home/irmler/Programs/psi4/beforeGrueneis3/stage/usr/local/psi4/share/psi4/basis/aug-cc-pv_dpd_z.gbs 
    atoms 2 entry O          line   270 file /home/irmler/Programs/psi4/beforeGrueneis3/stage/usr/local/psi4/share/psi4/basis/aug-cc-pv_dpd_z.gbs 


         ---------------------------------------------------------
                                   SCF
            by Justin Turney, Rob Parrish, Andy Simmonett
                             and Daniel Smith
                              UHF Reference
                        4 Threads, 238418 MiB Core
         ---------------------------------------------------------

  ==> Geometry <==

    Molecular point group: c2v
    Full point group: C_inf_v

    Geometry (in Angstrom), charge = 0, multiplicity = 2:

       Center              X                  Y                   Z               Mass       
    ------------   -----------------  -----------------  -----------------  -----------------
          CL          0.000000000000     0.000000000000    -0.487968879743    34.968852682000
           O          0.000000000000     0.000000000000     1.066821066257    15.994914619560

  Running in c2v symmetry.

  Rotational constants: A = ************  B =      0.63541  C =      0.63541 [cm^-1]
  Rotational constants: A = ************  B =  19048.99041  C =  19048.99041 [MHz]
  Nuclear repulsion =   46.287989289737787

  Charge       = 0
  Multiplicity = 2
  Electrons    = 25
  Nalpha       = 13
  Nbeta        = 12

  ==> Algorithm <==

  SCF Algorithm Type is OUT_OF_CORE.
  DIIS enabled.
  MOM disabled.
  Fractional occupation disabled.
  Guess Type is GWH.
  Energy threshold   = 1.00e-08
  Density threshold  = 1.00e-08
  Integral threshold = 0.00e+00

  ==> Primary Basis <==

  Basis Set: AUG-CC-PV(D+D)Z
    Blend: AUG-CC-PV(D+D)Z
    Number of shells: 21
    Number of basis function: 55
    Number of Cartesian functions: 60
    Spherical Harmonics?: true
    Max angular momentum: 2

  ==> Pre-Iterations <==

   -------------------------------------------------------
    Irrep   Nso     Nmo     Nalpha   Nbeta   Ndocc  Nsocc
   -------------------------------------------------------
     A1        26      26       0       0       0       0
     A2         5       5       0       0       0       0
     B1        12      12       0       0       0       0
     B2        12      12       0       0       0       0
   -------------------------------------------------------
    Total      55      55      13      12      12       1
   -------------------------------------------------------

  ==> Integral Setup <==

  ==> DiskJK: Disk-Based J/K Matrices <==

    J tasked:                  Yes
    K tasked:                  Yes
    wK tasked:                  No
    Memory (MB):            178813
    Schwarz Cutoff:          1E-12

  Minimum eigenvalue in the overlap matrix is 3.2145661053E-03.
  Using Symmetric Orthogonalization.

  SCF Guess: Generalized Wolfsberg-Helmholtz.

  ==> Iterations <==

                        Total Energy        Delta E     RMS |[F,P]|

    Occupation by irrep:
             A1    A2    B1    B2 
    DOCC [     7,    0,    2,    3 ]
    SOCC [     0,    0,    1,    0 ]

   @UHF iter   1:  -475.02494223008858   -4.75025e+02   7.00155e-01 
    Occupation by irrep:
             A1    A2    B1    B2 
    DOCC [     8,    0,    2,    2 ]
    SOCC [     0,    0,    1,    0 ]

   @UHF iter   2:  -497.19473884678871   -2.21698e+01   4.32676e-01 DIIS
    Occupation by irrep:
             A1    A2    B1    B2 
    DOCC [     7,    0,    2,    3 ]
    SOCC [     0,    0,    1,    0 ]

   @UHF iter   3:  -525.57667810597638   -2.83819e+01   1.38819e-01 DIIS
   @UHF iter   4:  -528.22975914027211   -2.65308e+00   1.65016e-01 DIIS
   @UHF iter   5:  -532.86011071222424   -4.63035e+00   8.09580e-02 DIIS
   @UHF iter   6:  -533.94272087377487   -1.08261e+00   3.48529e-02 DIIS
   @UHF iter   7:  -534.22513423891041   -2.82413e-01   4.85992e-03 DIIS
   @UHF iter   8:  -534.23725824049734   -1.21240e-02   4.14624e-03 DIIS
   @UHF iter   9:  -534.24993619550946   -1.26780e-02   2.61211e-03 DIIS
   @UHF iter  10:  -534.26243576884326   -1.24996e-02   1.97471e-03 DIIS
   @UHF iter  11:  -534.27144752158040   -9.01175e-03   6.36060e-04 DIIS
   @UHF iter  12:  -534.27194577887030   -4.98257e-04   4.48652e-04 DIIS
   @UHF iter  13:  -534.27207942554196   -1.33647e-04   2.89433e-04 DIIS
   @UHF iter  14:  -534.27210255934983   -2.31338e-05   1.05932e-04 DIIS
   @UHF iter  15:  -534.27210899479985   -6.43545e-06   7.74438e-05 DIIS
   @UHF iter  16:  -534.27211221225389   -3.21745e-06   4.24599e-05 DIIS
   @UHF iter  17:  -534.27211351457470   -1.30232e-06   5.01026e-06 DIIS
   @UHF iter  18:  -534.27211354580436   -3.12297e-08   2.04428e-06 DIIS
   @UHF iter  19:  -534.27211354763233   -1.82797e-09   1.17958e-06 DIIS
   @UHF iter  20:  -534.27211354846429   -8.31960e-10   2.34529e-07 DIIS
   @UHF iter  21:  -534.27211354849703   -3.27418e-11   3.53772e-08 DIIS
   @UHF iter  22:  -534.27211354849851   -1.47793e-12   8.69499e-09 DIIS

  ==> Post-Iterations <==

   @Spin Contamination Metric:   1.825140486E-02
   @S^2 Expected:                7.500000000E-01
   @S^2 Observed:                7.682514049E-01
   @S   Expected:                5.000000000E-01
   @S   Observed:                5.000000000E-01

    Orbital Energies (a.u.)
    -----------------------

    Alpha Occupied:                                                       

       1A1  -104.919953     2A1   -20.707925     3A1   -10.642146  
       1B1    -8.109440     4A1    -8.108775     1B2    -8.104463  
       5A1    -1.497435     6A1    -1.066834     2B1    -0.744058  
       7A1    -0.674653     2B2    -0.674314     3B1    -0.489569  
       3B2    -0.455600  

    Alpha Virtual:                                                        

       8A1     0.070617     9A1     0.124393     4B1     0.126939  
       4B2     0.130544    10A1     0.191770    11A1     0.217996  
       5B1     0.226151     5B2     0.236041    12A1     0.395774  
       1A2     0.423354    13A1     0.423453     6B1     0.506473  
       6B2     0.520364    14A1     0.697240    15A1     0.857057  
       7B1     0.859244     7B2     0.870295    16A1     0.986550  
       2A2     0.986650    17A1     1.068272     8B1     1.098588  
       8B2     1.119520    18A1     1.242617     3A2     1.242866  
       9B1     1.272625     9B2     1.299395    19A1     1.331158  
      20A1     1.444956    10B1     1.475084    10B2     1.514547  
      21A1     1.728404    22A1     2.828300    23A1     3.461023  
       4A2     3.468035    11B1     3.557238    24A1     3.596001  
      11B2     3.610654    25A1     5.903649     5A2     5.903717  
      12B1     5.926593    12B2     5.933420    26A1     6.071736  

    Beta Occupied:                                                        

       1A1  -104.918721     2A1   -20.667136     3A1   -10.640885  
       4A1    -8.111442     1B2    -8.103843     1B1    -8.101012  
       5A1    -1.391660     6A1    -1.007198     2B2    -0.645272  
       7A1    -0.636409     2B1    -0.529870     3B2    -0.436458  

    Beta Virtual:                                                         

       3B1     0.043974     8A1     0.075832     9A1     0.125950  
       4B1     0.128693     4B2     0.130484    10A1     0.203081  
      11A1     0.221475     5B2     0.238512     5B1     0.269076  
      12A1     0.402394     1A2     0.429926    13A1     0.430254  
       6B2     0.518228     6B1     0.544187    14A1     0.708446  
      15A1     0.861463     7B2     0.871097     7B1     0.873848  
       2A2     1.016911    16A1     1.017477    17A1     1.073326  
       8B2     1.120929     8B1     1.129284     3A2     1.251534  
      18A1     1.251556     9B2     1.305188     9B1     1.331846  
      19A1     1.341707    20A1     1.456170    10B2     1.527051  
      10B1     1.580170    21A1     1.750837    22A1     2.856758  
      23A1     3.559549     4A2     3.560732    11B2     3.630005  
      24A1     3.635113    11B1     3.647999    25A1     5.905576  
       5A2     5.905607    12B1     5.928446    12B2     5.932949  
      26A1     6.072530  

    Final Occupation by Irrep:
             A1    A2    B1    B2 
    DOCC [     7,    0,    2,    3 ]
    SOCC [     0,    0,    1,    0 ]

  Energy converged.

  @UHF Final Energy:  -534.27211354849851

   => Energetics <=

    Nuclear Repulsion Energy =             46.2879892897377871
    One-Electron Energy =                -829.7351328296357451
    Two-Electron Energy =                 249.1750299913994979
    PCM Polarization Energy =               0.0000000000000000
    Total Energy =                       -534.2721135484985098

    Alert: EFP and PCM quantities not currently incorporated into SCF psivars.
  UHF NO Occupations:
  HONO-2 :    7 A1 1.9975153
  HONO-1 :    2 B1 1.9951405
  HONO-0 :    3 B1 1.0000000
  LUNO+0 :    4 B1 0.0048595
  LUNO+1 :    8 A1 0.0024847
  LUNO+2 :    9 A1 0.0011956
  LUNO+3 :    4 B2 0.0004142



Properties will be evaluated at   0.000000,   0.000000,   0.000000 Bohr

Properties computed using the SCF density matrix

  Nuclear Dipole Moment: (a.u.)
     X:     0.0000      Y:     0.0000      Z:     0.4518

  Electronic Dipole Moment: (a.u.)
     X:     0.0000      Y:     0.0000      Z:    -0.7812

  Dipole Moment: (a.u.)
     X:     0.0000      Y:     0.0000      Z:    -0.3294     Total:     0.3294

  Dipole Moment: (Debye)
     X:     0.0000      Y:     0.0000      Z:    -0.8372     Total:     0.8372


*** tstop() called on cqc05 at Thu Aug 20 19:54:06 2020
Module time:
	user time   =       1.37 seconds =       0.02 minutes
	system time =       0.02 seconds =       0.00 minutes
	total time  =          0 seconds =       0.00 minutes
Total time:
	user time   =       1.37 seconds =       0.02 minutes
	system time =       0.02 seconds =       0.00 minutes
	total time  =          0 seconds =       0.00 minutes

*** tstart() called on cqc05
*** at Thu Aug 20 19:54:06 2020


	Wfn Parameters:
	--------------------
	Wavefunction         = CCSD
	Number of irreps     = 4
	Number of MOs        = 55
	Number of active MOs = 49
	AO-Basis             = NONE
	Semicanonical        = false
	Reference            = UHF
	Print Level          = 1

	IRREP	# MOs	# FZDC	# DOCC	# SOCC	# VIRT	# FZVR
	-----	-----	------	------	------	------	------
	 A1	   26	    4	    3	    0	    19	    0
	 A2	   5	    0	    0	    0	    5	    0
	 B1	   12	    1	    1	    1	    9	    0
	 B2	   12	    1	    2	    0	    9	    0
	Transforming integrals...
	IWL integrals will be deleted.
	(OO|OO)...
	Presorting SO-basis two-electron integrals.
	Sorting File: SO Ints (nn|nn) nbuckets = 1
	Transforming the one-electron integrals and constructing Fock matrices
	Starting AA/AB first half-transformation.
	Sorting AA/AB half-transformed integrals.
	Starting BB first half-transformation.
	Sorting BB half-transformed integrals.
	First half integral transformation complete.
	Starting AA second half-transformation.
	Starting AB second half-transformation.
	Starting BB second half-transformation.
	Two-electron integral transformation complete.
	(OO|OV)...
	Starting AA second half-transformation.
	Starting AB second half-transformation.
	Starting BB second half-transformation.
	Two-electron integral transformation complete.
	(OO|VV)...
	Starting AA second half-transformation.
	Starting AB second half-transformation.
	Starting BB second half-transformation.
	Two-electron integral transformation complete.
	(OV|OO)...
	Starting AA/AB first half-transformation.
	Sorting AA/AB half-transformed integrals.
	Starting BB first half-transformation.
	Sorting BB half-transformed integrals.
	First half integral transformation complete.
	Starting AA second half-transformation.
	Starting AB second half-transformation.
	Starting BB second half-transformation.
	Two-electron integral transformation complete.
	(OV|OV)...
	Starting AA second half-transformation.
	Starting AB second half-transformation.
	Starting BB second half-transformation.
	Two-electron integral transformation complete.
	(OV|VV)...
	Starting AA second half-transformation.
	Starting AB second half-transformation.
	Starting BB second half-transformation.
	Two-electron integral transformation complete.
	(VV|OO)...
	Starting AA/AB first half-transformation.
	Sorting AA/AB half-transformed integrals.
	Starting BB first half-transformation.
	Sorting BB half-transformed integrals.
	First half integral transformation complete.
	Starting AA second half-transformation.
	Starting AB second half-transformation.
	Starting BB second half-transformation.
	Two-electron integral transformation complete.
	(VV|OV)...
	Starting AA second half-transformation.
	Starting AB second half-transformation.
	Starting BB second half-transformation.
	Two-electron integral transformation complete.
	(VV|VV)...
	Starting AA second half-transformation.
	Starting AB second half-transformation.
	Starting BB second half-transformation.
	Two-electron integral transformation complete.
	Frozen core energy     =   -535.83783264358976

	Size of irrep 0 of <AB|CD> integrals:      0.064 (MW) /      0.512 (MB)
	Size of irrep 1 of <AB|CD> integrals:      0.031 (MW) /      0.248 (MB)
	Size of irrep 2 of <AB|CD> integrals:      0.047 (MW) /      0.373 (MB)
	Size of irrep 3 of <AB|CD> integrals:      0.047 (MW) /      0.373 (MB)
	Total:                                     0.188 (MW) /      1.506 (MB)

	Size of irrep 0 of <ab|cd> integrals:      0.069 (MW) /      0.549 (MB)
	Size of irrep 1 of <ab|cd> integrals:      0.034 (MW) /      0.274 (MB)
	Size of irrep 2 of <ab|cd> integrals:      0.055 (MW) /      0.442 (MB)
	Size of irrep 3 of <ab|cd> integrals:      0.049 (MW) /      0.391 (MB)
	Total:                                     0.207 (MW) /      1.655 (MB)

	Size of irrep 0 of <Ab|Cd> integrals:      0.310 (MW) /      2.482 (MB)
	Size of irrep 1 of <Ab|Cd> integrals:      0.130 (MW) /      1.043 (MB)
	Size of irrep 2 of <Ab|Cd> integrals:      0.203 (MW) /      1.627 (MB)
	Size of irrep 3 of <Ab|Cd> integrals:      0.191 (MW) /      1.528 (MB)
	Total:                                     0.835 (MW) /      6.680 (MB)

	Size of irrep 0 of <IA|BC> integrals:      0.051 (MW) /      0.408 (MB)
	Size of irrep 1 of <IA|BC> integrals:      0.018 (MW) /      0.144 (MB)
	Size of irrep 2 of <IA|BC> integrals:      0.032 (MW) /      0.259 (MB)
	Size of irrep 3 of <IA|BC> integrals:      0.032 (MW) /      0.259 (MB)
	Total:                                     0.134 (MW) /      1.070 (MB)

	Size of irrep 0 of <ia|bc> integrals:      0.048 (MW) /      0.386 (MB)
	Size of irrep 1 of <ia|bc> integrals:      0.016 (MW) /      0.130 (MB)
	Size of irrep 2 of <ia|bc> integrals:      0.028 (MW) /      0.222 (MB)
	Size of irrep 3 of <ia|bc> integrals:      0.031 (MW) /      0.248 (MB)
	Total:                                     0.123 (MW) /      0.985 (MB)

	Size of irrep 0 of <Ia|Bc> integrals:      0.053 (MW) /      0.423 (MB)
	Size of irrep 1 of <Ia|Bc> integrals:      0.019 (MW) /      0.153 (MB)
	Size of irrep 2 of <Ia|Bc> integrals:      0.035 (MW) /      0.281 (MB)
	Size of irrep 3 of <Ia|Bc> integrals:      0.033 (MW) /      0.262 (MB)
	Total:                                     0.140 (MW) /      1.120 (MB)

	Size of irrep 0 of <iA|bC> integrals:      0.047 (MW) /      0.374 (MB)
	Size of irrep 1 of <iA|bC> integrals:      0.015 (MW) /      0.121 (MB)
	Size of irrep 2 of <iA|bC> integrals:      0.025 (MW) /      0.202 (MB)
	Size of irrep 3 of <iA|bC> integrals:      0.031 (MW) /      0.245 (MB)
	Total:                                     0.118 (MW) /      0.942 (MB)

	Size of irrep 0 of tIjAb amplitudes:       0.008 (MW) /      0.067 (MB)
	Size of irrep 1 of tIjAb amplitudes:       0.002 (MW) /      0.017 (MB)
	Size of irrep 2 of tIjAb amplitudes:       0.004 (MW) /      0.032 (MB)
	Size of irrep 3 of tIjAb amplitudes:       0.005 (MW) /      0.042 (MB)
	Total:                                     0.020 (MW) /      0.159 (MB)

	Nuclear Rep. energy          =     46.28798928973779
	SCF energy                   =   -534.27211354849851
	One-electron energy          =    -79.19520930393870
	Two-electron (AA) energy     =      8.64821843491531
	Two-electron (BB) energy     =      5.88875390574670
	Two-electron (AB) energy     =     19.93596676862957
	Two-electron energy          =     34.47293910929159
	Reference energy             =   -534.27211354849908

*** tstop() called on cqc05 at Thu Aug 20 19:54:07 2020
Module time:
	user time   =       0.19 seconds =       0.00 minutes
	system time =       0.09 seconds =       0.00 minutes
	total time  =          1 seconds =       0.02 minutes
Total time:
	user time   =       1.56 seconds =       0.03 minutes
	system time =       0.11 seconds =       0.00 minutes
	total time  =          1 seconds =       0.02 minutes

*** tstart() called on cqc05
*** at Thu Aug 20 19:54:07 2020

            **************************
            *                        *
            *        CCENERGY        *
            *                        *
            **************************

    Nuclear Rep. energy (wfn)     =   46.287989289737787
    SCF energy          (wfn)     = -534.272113548498510
    Reference energy    (file100) = -534.272113548499078

    Input parameters:
    -----------------
    Wave function   =     CCSD
    Reference wfn   =     UHF
    Brueckner       =     No
    Memory (Mbytes) =     250000.0
    Maxiter         =     50
    R_Convergence   =     1.0e-07
    E_Convergence   =     1.0e-06
    Restart         =     Yes
    DIIS            =     Yes
    AO Basis        =     NONE
    ABCD            =     NEW
    Cache Level     =     2
    Cache Type      =     LRU
    Print Level     =     1
    Num. of threads =     4
    # Amps to Print =     10
    Print MP2 Amps? =     No
    Analyze T2 Amps =     No
    Print Pair Ener =     No
    Local CC        =     No
    SCS-MP2         =     False
    SCSN-MP2        =     False
    SCS-CCSD        =     False

MP2 correlation energy -0.3106067833758439
                Solving CC Amplitude Equations
                ------------------------------
  Iter             Energy              RMS        T1Diag      D1Diag    New D1Diag    D2Diag
  ----     ---------------------    ---------   ----------  ----------  ----------   --------
     0        -0.310606783375844    0.000e+00    0.000000    0.000000    0.000000    0.000000
     1        -0.323531261210560    9.088e-02    0.021864    0.000000    0.000000    0.000000
     2        -0.335106020387731    3.432e-02    0.028436    0.000000    0.000000    0.000000
     3        -0.339228127837809    2.876e-02    0.039819    0.000000    0.000000    0.000000
     4        -0.340207916983009    1.582e-02    0.052046    0.000000    0.000000    0.000000
     5        -0.340421676077189    4.810e-03    0.055379    0.000000    0.000000    0.000000
     6        -0.340469550817373    1.281e-03    0.055848    0.000000    0.000000    0.000000
     7        -0.340472893864223    4.975e-04    0.055907    0.000000    0.000000    0.000000
     8        -0.340471511127352    2.124e-04    0.055957    0.000000    0.000000    0.000000
     9        -0.340466901944299    8.491e-05    0.055956    0.000000    0.000000    0.000000
    10        -0.340466918819927    3.438e-05    0.055958    0.000000    0.000000    0.000000
    11        -0.340467838185049    1.330e-05    0.055963    0.000000    0.000000    0.000000
    12        -0.340468097787929    5.081e-06    0.055962    0.000000    0.000000    0.000000
    13        -0.340468178654160    1.763e-06    0.055962    0.000000    0.000000    0.000000
    14        -0.340468138661406    6.388e-07    0.055962    0.000000    0.000000    0.000000
    15        -0.340468134656483    2.392e-07    0.055962    0.000000    0.000000    0.000000
    16        -0.340468131295856    7.763e-08    0.055962    0.000000    0.000000    0.000000
    16        -0.340468131295856    7.763e-08    0.055962    0.000000    0.000000    0.000000

    Iterations converged.


    CCSD corr. energy   =   -0.340468131295856
    PPL corr. energy    =    0.071974949304429
    OS PPL corr. energy =    0.057194927172470
    SS PPL corr. energy =    0.014780022131959
    Largest TIA Amplitudes:
              2   2         0.0315588294
              3  25        -0.0239692339
              3  26        -0.0237072810
              2   0        -0.0236717044
              5  34        -0.0214793475
              5  35        -0.0196246855
              6  34        -0.0134892923
              2   4        -0.0119635089
              4  25        -0.0105198986
              2  11         0.0090319184

    Largest Tia Amplitudes:
              3  24        -0.1686610564
              3  26        -0.0603756666
              3  27        -0.0332881668
              3  31         0.0210467000
              4  36        -0.0178447347
              4  35        -0.0177832610
              3  30        -0.0157504728
              5  35        -0.0136087262
              2   2         0.0120917129
              2   0        -0.0087719962

    Largest TIJAB Amplitudes:
      6   4  19   5         0.0315192244
      6   2  35   2         0.0248483932
      4   2  26   2         0.0236954010
      6   4  35  26        -0.0182711321
      5   4  19   5        -0.0179118632
      6   2  35   0        -0.0170885068
      4   2  26   0        -0.0163049345
      6   4  21   5         0.0158085866
      6   4  19  10        -0.0157956775
      6   4  21  10        -0.0137428149

    Largest Tijab Amplitudes:
      3   2  24   2        -0.0511650280
      3   2  24   0         0.0354159540
      3   2  24   3         0.0352733288
      5   3  36  24         0.0348293086
      5   3  19   5         0.0259827344
      5   2  36   2         0.0240734376
      3   2  24   4         0.0220915409
      4   3  19   5        -0.0214091731
      3   2  26   2        -0.0202715199
      3   2  24   6        -0.0184188376

    Largest TIjAb Amplitudes:
      2   3   2  24        -0.0668587582
      2   2   2   2        -0.0566479112
      2   3   0  24         0.0456035592
      4   3  26  24         0.0434096225
      6   5  35  36        -0.0370182285
      2   2   0   2         0.0357484289
      6   3  35  24         0.0354096449
      2   2   2   3         0.0349580942
      2   2   2   0         0.0348012456
      4   3  19  19        -0.0322405753

    SCF energy       (wfn)                    = -534.272113548498510
    Reference energy (file100)                = -534.272113548499078

    Opposite-spin MP2 correlation energy      =   -0.226958018397230
    Same-spin MP2 correlation energy          =   -0.083648764978606
    MP2 correlation energy                    =   -0.310606783375844
      * MP2 total energy                      = -534.582720331874953

    Opposite-spin CCSD correlation energy     =   -0.260410867599704
    Same-spin CCSD correlation energy         =   -0.080057263452218
    CCSD correlation energy                   =   -0.340468131295856
      * CCSD total energy                     = -534.612581679794971


*** tstop() called on cqc05 at Thu Aug 20 19:54:09 2020
Module time:
	user time   =       0.55 seconds =       0.01 minutes
	system time =       0.31 seconds =       0.01 minutes
	total time  =          2 seconds =       0.03 minutes
Total time:
	user time   =       2.11 seconds =       0.04 minutes
	system time =       0.42 seconds =       0.01 minutes
	total time  =          3 seconds =       0.05 minutes

*** Psi4 exiting successfully. Buy a developer a beer!
