
    -----------------------------------------------------------------------
          Psi4: An Open-Source Ab Initio Electronic Structure Package
                               Psi4 1.2a1.dev938 

                         Git: Rev {HEAD} fc51d9a dirty


    R. M. Parrish, L. A. Burns, D. G. A. Smith, A. C. Simmonett,
    A. E. DePrince III, E. G. Hohenstein, U. Bozkaya, A. Yu. Sokolov,
    R. Di Remigio, R. M. Richard, J. F. Gonthier, A. M. James,
    H. R. McAlexander, A. Kumar, M. Saitow, X. Wang, B. P. Pritchard,
    P. Verma, H. F. Schaefer III, K. Patkowski, R. A. King, E. F. Valeev,
    F. A. Evangelista, J. M. Turney, T. D. Crawford, and C. D. Sherrill,
    J. Chem. Theory Comput. 13(7) pp 3185--3197 (2017).
    (doi: 10.1021/acs.jctc.7b00174)

    -----------------------------------------------------------------------


    Psi4 started on: Thursday, 20 August 2020 08:47PM

    Process ID: 424525
    PSIDATADIR: /home/irmler/Programs/psi4/beforeGrueneis3/stage/usr/local/psi4/share/psi4
    Memory:     500.0 MiB
    Threads:    4
    
  ==> Input File <==

--------------------------------------------------------------------------
# Any line starting with the # character is a comment line
memory 250000 mb
molecule molecule{
0 2
Cl         0.0000000000        0.0000000000       -0.4834702805
O          0.0000000000        0.0000000000        1.0713196655
}

set {
  reference uhf
  basis aug-cc-pv(q+d)z
  scf_type OUT_OF_CORE
  freeze_core true
}

energy('ccsd')
--------------------------------------------------------------------------

  Memory set to 232.831 GiB by Python driver.

*** tstart() called on cqc05
*** at Thu Aug 20 20:47:09 2020

   => Loading Basis Set <=

    Name: AUG-CC-PV(Q+D)Z
    Role: ORBITAL
    Keyword: BASIS
    atoms 1 entry CL         line  1246 file /home/irmler/Programs/psi4/beforeGrueneis3/stage/usr/local/psi4/share/psi4/basis/aug-cc-pv_qpd_z.gbs 
    atoms 2 entry O          line   439 file /home/irmler/Programs/psi4/beforeGrueneis3/stage/usr/local/psi4/share/psi4/basis/aug-cc-pv_qpd_z.gbs 


         ---------------------------------------------------------
                                   SCF
            by Justin Turney, Rob Parrish, Andy Simmonett
                             and Daniel Smith
                              UHF Reference
                        4 Threads, 238418 MiB Core
         ---------------------------------------------------------

  ==> Geometry <==

    Molecular point group: c2v
    Full point group: C_inf_v

    Geometry (in Angstrom), charge = 0, multiplicity = 2:

       Center              X                  Y                   Z               Mass       
    ------------   -----------------  -----------------  -----------------  -----------------
          CL          0.000000000000     0.000000000000    -0.487968879743    34.968852682000
           O          0.000000000000     0.000000000000     1.066821066257    15.994914619560

  Running in c2v symmetry.

  Rotational constants: A = ************  B =      0.63541  C =      0.63541 [cm^-1]
  Rotational constants: A = ************  B =  19048.99041  C =  19048.99041 [MHz]
  Nuclear repulsion =   46.287989289737787

  Charge       = 0
  Multiplicity = 2
  Electrons    = 25
  Nalpha       = 13
  Nbeta        = 12

  ==> Algorithm <==

  SCF Algorithm Type is OUT_OF_CORE.
  DIIS enabled.
  MOM disabled.
  Fractional occupation disabled.
  Guess Type is GWH.
  Energy threshold   = 1.00e-08
  Density threshold  = 1.00e-08
  Integral threshold = 0.00e+00

  ==> Primary Basis <==

  Basis Set: AUG-CC-PV(Q+D)Z
    Blend: AUG-CC-PV(Q+D)Z
    Number of shells: 43
    Number of basis function: 169
    Number of Cartesian functions: 220
    Spherical Harmonics?: true
    Max angular momentum: 4

  ==> Pre-Iterations <==

   -------------------------------------------------------
    Irrep   Nso     Nmo     Nalpha   Nbeta   Ndocc  Nsocc
   -------------------------------------------------------
     A1        66      66       0       0       0       0
     A2        23      23       0       0       0       0
     B1        40      40       0       0       0       0
     B2        40      40       0       0       0       0
   -------------------------------------------------------
    Total     169     169      13      12      12       1
   -------------------------------------------------------

  ==> Integral Setup <==

  ==> DiskJK: Disk-Based J/K Matrices <==

    J tasked:                  Yes
    K tasked:                  Yes
    wK tasked:                  No
    Memory (MB):            178813
    Schwarz Cutoff:          1E-12

  Minimum eigenvalue in the overlap matrix is 1.7306371256E-04.
  Using Symmetric Orthogonalization.

  SCF Guess: Generalized Wolfsberg-Helmholtz.

  ==> Iterations <==

                        Total Energy        Delta E     RMS |[F,P]|

    Occupation by irrep:
             A1    A2    B1    B2 
    DOCC [     8,    0,    2,    2 ]
    SOCC [     0,    1,    0,    0 ]

   @UHF iter   1:  -472.11680440607699   -4.72117e+02   4.08149e-01 
    Occupation by irrep:
             A1    A2    B1    B2 
    DOCC [     7,    1,    2,    2 ]
    SOCC [     0,    0,    0,    1 ]

   @UHF iter   2:  -405.09450945841780    6.70223e+01   2.12763e-01 DIIS
   @UHF iter   3:  -487.61405466678332   -8.25195e+01   2.57741e-01 DIIS
    Occupation by irrep:
             A1    A2    B1    B2 
    DOCC [     7,    0,    3,    2 ]
    SOCC [     0,    0,    0,    1 ]

   @UHF iter   4:  -505.38267921464671   -1.77686e+01   1.80999e-01 DIIS
   @UHF iter   5:  -531.11978101911041   -2.57371e+01   7.71380e-02 DIIS
   @UHF iter   6:  -532.81242437665969   -1.69264e+00   4.14035e-02 DIIS
   @UHF iter   7:  -534.14738063336085   -1.33496e+00   1.58746e-02 DIIS
   @UHF iter   8:  -534.30309876741558   -1.55718e-01   3.14457e-03 DIIS
   @UHF iter   9:  -534.31334267311161   -1.02439e-02   8.19659e-04 DIIS
   @UHF iter  10:  -534.31550977882318   -2.16711e-03   3.35308e-04 DIIS
   @UHF iter  11:  -534.31608433677479   -5.74558e-04   1.94495e-04 DIIS
   @UHF iter  12:  -534.31636591692745   -2.81580e-04   9.13912e-05 DIIS
   @UHF iter  13:  -534.31642636271624   -6.04458e-05   3.21767e-05 DIIS
   @UHF iter  14:  -534.31643145522162   -5.09251e-06   9.20846e-06 DIIS
   @UHF iter  15:  -534.31643188098496   -4.25763e-07   5.23039e-06 DIIS
   @UHF iter  16:  -534.31643205653518   -1.75550e-07   2.79052e-06 DIIS
   @UHF iter  17:  -534.31643211860626   -6.20711e-08   9.41032e-07 DIIS
   @UHF iter  18:  -534.31643212329948   -4.69322e-09   2.97385e-07 DIIS
   @UHF iter  19:  -534.31643212365850   -3.59023e-10   7.48333e-08 DIIS
   @UHF iter  20:  -534.31643212367885   -2.03499e-11   2.63584e-08 DIIS
   @UHF iter  21:  -534.31643212368147   -2.61480e-12   6.81717e-09 DIIS

  ==> Post-Iterations <==

   @Spin Contamination Metric:   2.009881158E-02
   @S^2 Expected:                7.500000000E-01
   @S^2 Observed:                7.700988116E-01
   @S   Expected:                5.000000000E-01
   @S   Observed:                5.000000000E-01

    Orbital Energies (a.u.)
    -----------------------

    Alpha Occupied:                                                       

       1A1  -104.918532     2A1   -20.695001     3A1   -10.639298  
       1B2    -8.107979     4A1    -8.104835     1B1    -8.103172  
       5A1    -1.490269     6A1    -1.063359     2B2    -0.743359  
       2B1    -0.673147     7A1    -0.672357     3B2    -0.489285  
       3B1    -0.454529  

    Alpha Virtual:                                                        

       8A1     0.059421     9A1     0.080489     4B2     0.090571  
       4B1     0.092901    10A1     0.144733     5B2     0.158942  
      11A1     0.162154     5B1     0.163530     1A2     0.244842  
      12A1     0.244902    13A1     0.292225     6B2     0.316707  
       6B1     0.322854    14A1     0.359604     7B2     0.426548  
       7B1     0.432726    15A1     0.469384    16A1     0.522161  
       2A2     0.523988    17A1     0.529564     8B2     0.569811  
       8B1     0.580374    18A1     0.615084     3A2     0.615089  
       9B2     0.670684     9B1     0.688483    19A1     0.776434  
      20A1     0.795999    10B2     0.801984    10B1     0.801995  
      11B2     0.837553    11B1     0.855347    21A1     0.882095  
       4A2     0.916570    22A1     0.916971    12B2     1.036167  
      12B1     1.044355    23A1     1.155852    24A1     1.309538  
      13B2     1.376062    13B1     1.376071    25A1     1.470656  
       5A2     1.472104    14B2     1.504352    26A1     1.505712  
      14B1     1.521006     6A2     1.559202    27A1     1.559638  
      15B2     1.624127    15B1     1.640731    28A1     1.655913  
       7A2     1.663661    29A1     1.672272    16B2     1.751441  
      16B1     1.762499     8A2     1.838303    30A1     1.838303  
      17B2     1.967367    17B1     1.967372    18B2     2.025431  
      18B1     2.025456    19B2     2.061859    19B1     2.078482  
      31A1     2.084878     9A2     2.094419    32A1     2.094803  
      33A1     2.151062    20B2     2.264421    20B1     2.282661  
      34A1     2.289096    21B2     2.305946    21B1     2.336780  
      10A2     2.371712    35A1     2.372886    36A1     2.786925  
      37A1     2.897450    22B2     3.341315    22B1     3.384608  
      38A1     3.610916    11A2     3.638592    39A1     3.638595  
      12A2     3.650526    40A1     3.650633    23B2     3.763998  
      23B1     3.782459    24B2     3.824465    24B1     3.824892  
      41A1     3.933834    13A2     3.994453    42A1     3.995129  
      25B2     4.061655    25B1     4.063647    26B2     4.069773  
      26B1     4.089390    43A1     4.184777    14A2     4.198873  
      44A1     4.216448    27B2     4.303577    27B1     4.327164  
      45A1     4.528363    15A2     4.626512    46A1     4.626547  
      28B2     4.647417    28B1     4.647423    47A1     4.675189  
      16A2     4.675202    48A1     4.679916    17A2     4.719119  
      49A1     4.719234    29B2     4.732404    29B1     4.732415  
      30B2     4.771027    30B1     4.800474    50A1     4.955562  
      18A2     5.187787    51A1     5.188399    31B2     5.237124  
      31B1     5.264815    52A1     5.346757    32B2     5.774347  
      32B1     5.794547    53A1     6.393265    33B2     6.550610  
      33B1     6.567402    54A1     8.072239    55A1    10.566220  
      19A2    10.566223    34B2    10.654487    34B1    10.655393  
      35B2    10.716994    35B1    10.777882    56A1    10.871843  
      36B2    10.877824    20A2    10.882210    36B1    10.927281  
      57A1    10.967760    58A1    11.326045    21A2    11.326063  
      59A1    11.499670    37B2    11.544177    37B1    11.556622  
      38B2    11.806146    38B1    11.806215    60A1    11.855359  
      22A2    11.936662    61A1    11.942675    39B2    12.384793  
      39B1    12.432495    62A1    12.716546    23A2    12.717041  
      63A1    13.038144    40B2    13.132942    40B1    13.188199  
      64A1    13.529886    65A1    25.398322    66A1    42.487620  

    Beta Occupied:                                                        

       1A1  -104.917244     2A1   -20.655150     3A1   -10.637975  
       4A1    -8.107541     1B1    -8.102523     1B2    -8.099193  
       5A1    -1.384373     6A1    -1.003171     2B1    -0.645321  
       7A1    -0.634480     2B2    -0.527281     3B1    -0.436131  

    Beta Virtual:                                                         

       3B2     0.046014     8A1     0.061888     9A1     0.081900  
       4B2     0.091484     4B1     0.092855    10A1     0.149200  
       5B1     0.164388    11A1     0.168416     5B2     0.180439  
       1A2     0.246426    12A1     0.246499    13A1     0.297205  
       6B1     0.322796     6B2     0.338132    14A1     0.365382  
       7B2     0.430368     7B1     0.432458    15A1     0.470757  
      16A1     0.526143     2A2     0.528039    17A1     0.530130  
       8B1     0.578821     8B2     0.585130    18A1     0.624867  
       3A2     0.624921     9B1     0.690709     9B2     0.725128  
      19A1     0.778044    10B1     0.803019    10B2     0.803020  
      20A1     0.806756    11B1     0.859262    11B2     0.885897  
      21A1     0.890908     4A2     0.917407    22A1     0.917655  
      12B2     1.041597    12B1     1.043443    23A1     1.163889  
      24A1     1.324933    13B1     1.380682    13B2     1.380688  
      25A1     1.506683     5A2     1.510645    26A1     1.513041  
      14B1     1.521130    14B2     1.521616     6A2     1.567043  
      27A1     1.567070    15B1     1.642853    15B2     1.650281  
      28A1     1.662184     7A2     1.666620    29A1     1.671527  
      16B2     1.753763    16B1     1.760614     8A2     1.839945  
      30A1     1.839945    17B2     1.967370    17B1     1.967372  
      18B1     2.032315    18B2     2.032315    19B1     2.079821  
      19B2     2.082056    31A1     2.095512     9A2     2.097774  
      32A1     2.100599    33A1     2.151628    20B1     2.284460  
      20B2     2.284733    34A1     2.292363    21B1     2.345791  
      21B2     2.368630    10A2     2.382498    35A1     2.382867  
      36A1     2.794974    37A1     2.912842    22B1     3.396730  
      22B2     3.412007    38A1     3.621005    11A2     3.648636  
      39A1     3.648638    12A2     3.656238    40A1     3.656275  
      23B2     3.774772    23B1     3.784155    24B2     3.834404  
      24B1     3.834428    41A1     3.952987    13A2     4.014845  
      42A1     4.015143    25B2     4.082790    25B1     4.088622  
      26B2     4.093121    26B1     4.094289    43A1     4.210378  
      14A2     4.226104    44A1     4.229592    27B2     4.320954  
      27B1     4.329331    45A1     4.549188    28B1     4.650745  
      28B2     4.650745    46A1     4.674481    15A2     4.675886  
      47A1     4.680478    16A2     4.680481    48A1     4.692131  
      17A2     4.726309    49A1     4.726590    29B1     4.738696  
      29B2     4.738697    30B1     4.806789    30B2     4.807679  
      50A1     4.965006    18A2     5.193834    51A1     5.194022  
      31B2     5.268970    31B1     5.270896    52A1     5.355198  
      32B2     5.792562    32B1     5.796994    53A1     6.414293  
      33B2     6.561803    33B1     6.568802    54A1     8.077189  
      55A1    10.599005    19A2    10.599005    34B2    10.682300  
      34B1    10.682396    35B2    10.788611    35B1    10.793974  
      56A1    10.898819    20A2    10.902859    36B2    10.919732  
      36B1    10.936761    57A1    10.977710    58A1    11.329108  
      21A2    11.329110    59A1    11.524249    37B2    11.552785  
      37B1    11.558150    38B2    11.860544    38B1    11.860544  
      60A1    11.869971    22A2    11.976841    61A1    11.977701  
      39B2    12.429463    39B1    12.445519    23A2    12.783103  
      62A1    12.783142    63A1    13.053150    40B2    13.196273  
      40B1    13.204683    64A1    13.557079    65A1    25.400210  
      66A1    42.511490  

    Final Occupation by Irrep:
             A1    A2    B1    B2 
    DOCC [     7,    0,    3,    2 ]
    SOCC [     0,    0,    0,    1 ]

  Energy converged.

  @UHF Final Energy:  -534.31643212368147

   => Energetics <=

    Nuclear Repulsion Energy =             46.2879892897377871
    One-Electron Energy =                -829.9033390726831385
    Two-Electron Energy =                 249.2989176592638501
    PCM Polarization Energy =               0.0000000000000000
    Total Energy =                       -534.3164321236815795

    Alert: EFP and PCM quantities not currently incorporated into SCF psivars.
  UHF NO Occupations:
  HONO-2 :    7 A1 1.9973667
  HONO-1 :    2 B2 1.9946222
  HONO-0 :    3 B2 1.0000000
  LUNO+0 :    4 B2 0.0053778
  LUNO+1 :    8 A1 0.0026333
  LUNO+2 :    9 A1 0.0013135
  LUNO+3 :    4 B1 0.0004759



Properties will be evaluated at   0.000000,   0.000000,   0.000000 Bohr

Properties computed using the SCF density matrix

  Nuclear Dipole Moment: (a.u.)
     X:     0.0000      Y:     0.0000      Z:     0.4518

  Electronic Dipole Moment: (a.u.)
     X:     0.0000      Y:     0.0000      Z:    -0.7769

  Dipole Moment: (a.u.)
     X:     0.0000      Y:     0.0000      Z:    -0.3251     Total:     0.3251

  Dipole Moment: (Debye)
     X:     0.0000      Y:     0.0000      Z:    -0.8263     Total:     0.8263


*** tstop() called on cqc05 at Thu Aug 20 20:47:34 2020
Module time:
	user time   =      24.22 seconds =       0.40 minutes
	system time =       1.25 seconds =       0.02 minutes
	total time  =         25 seconds =       0.42 minutes
Total time:
	user time   =      24.22 seconds =       0.40 minutes
	system time =       1.25 seconds =       0.02 minutes
	total time  =         25 seconds =       0.42 minutes

*** tstart() called on cqc05
*** at Thu Aug 20 20:47:34 2020


	Wfn Parameters:
	--------------------
	Wavefunction         = CCSD
	Number of irreps     = 4
	Number of MOs        = 169
	Number of active MOs = 163
	AO-Basis             = NONE
	Semicanonical        = false
	Reference            = UHF
	Print Level          = 1

	IRREP	# MOs	# FZDC	# DOCC	# SOCC	# VIRT	# FZVR
	-----	-----	------	------	------	------	------
	 A1	   66	    4	    3	    0	    59	    0
	 A2	   23	    0	    0	    0	    23	    0
	 B1	   40	    1	    2	    0	    37	    0
	 B2	   40	    1	    1	    1	    37	    0
	Transforming integrals...
	IWL integrals will be deleted.
	(OO|OO)...
	Presorting SO-basis two-electron integrals.
	Sorting File: SO Ints (nn|nn) nbuckets = 1
	Transforming the one-electron integrals and constructing Fock matrices
	Starting AA/AB first half-transformation.
	Sorting AA/AB half-transformed integrals.
	Starting BB first half-transformation.
	Sorting BB half-transformed integrals.
	First half integral transformation complete.
	Starting AA second half-transformation.
	Starting AB second half-transformation.
	Starting BB second half-transformation.
	Two-electron integral transformation complete.
	(OO|OV)...
	Starting AA second half-transformation.
	Starting AB second half-transformation.
	Starting BB second half-transformation.
	Two-electron integral transformation complete.
	(OO|VV)...
	Starting AA second half-transformation.
	Starting AB second half-transformation.
	Starting BB second half-transformation.
	Two-electron integral transformation complete.
	(OV|OO)...
	Starting AA/AB first half-transformation.
	Sorting AA/AB half-transformed integrals.
	Starting BB first half-transformation.
	Sorting BB half-transformed integrals.
	First half integral transformation complete.
	Starting AA second half-transformation.
	Starting AB second half-transformation.
	Starting BB second half-transformation.
	Two-electron integral transformation complete.
	(OV|OV)...
	Starting AA second half-transformation.
	Starting AB second half-transformation.
	Starting BB second half-transformation.
	Two-electron integral transformation complete.
	(OV|VV)...
	Starting AA second half-transformation.
	Starting AB second half-transformation.
	Starting BB second half-transformation.
	Two-electron integral transformation complete.
	(VV|OO)...
	Starting AA/AB first half-transformation.
	Sorting AA/AB half-transformed integrals.
	Starting BB first half-transformation.
	Sorting BB half-transformed integrals.
	First half integral transformation complete.
	Starting AA second half-transformation.
	Starting AB second half-transformation.
	Starting BB second half-transformation.
	Two-electron integral transformation complete.
	(VV|OV)...
	Starting AA second half-transformation.
	Starting AB second half-transformation.
	Starting BB second half-transformation.
	Two-electron integral transformation complete.
	(VV|VV)...
	Starting AA second half-transformation.
	Starting AB second half-transformation.
	Starting BB second half-transformation.
	Two-electron integral transformation complete.
	Frozen core energy     =   -535.85006096468339

	Size of irrep 0 of <AB|CD> integrals:     10.864 (MW) /     86.909 (MB)
	Size of irrep 1 of <AB|CD> integrals:      7.431 (MW) /     59.449 (MB)
	Size of irrep 2 of <AB|CD> integrals:      9.205 (MW) /     73.641 (MB)
	Size of irrep 3 of <AB|CD> integrals:      9.205 (MW) /     73.641 (MB)
	Total:                                    36.705 (MW) /    293.640 (MB)

	Size of irrep 0 of <ab|cd> integrals:     11.109 (MW) /     88.871 (MB)
	Size of irrep 1 of <ab|cd> integrals:      7.634 (MW) /     61.073 (MB)
	Size of irrep 2 of <ab|cd> integrals:      9.345 (MW) /     74.762 (MB)
	Size of irrep 3 of <ab|cd> integrals:      9.567 (MW) /     76.533 (MB)
	Total:                                    37.655 (MW) /    301.240 (MB)

	Size of irrep 0 of <Ab|Cd> integrals:     46.036 (MW) /    368.290 (MB)
	Size of irrep 1 of <Ab|Cd> integrals:     30.129 (MW) /    241.033 (MB)
	Size of irrep 2 of <Ab|Cd> integrals:     37.100 (MW) /    296.802 (MB)
	Size of irrep 3 of <Ab|Cd> integrals:     37.540 (MW) /    300.321 (MB)
	Total:                                   150.806 (MW) /   1206.446 (MB)

	Size of irrep 0 of <IA|BC> integrals:      2.193 (MW) /     17.545 (MB)
	Size of irrep 1 of <IA|BC> integrals:      1.183 (MW) /      9.465 (MB)
	Size of irrep 2 of <IA|BC> integrals:      1.669 (MW) /     13.350 (MB)
	Size of irrep 3 of <IA|BC> integrals:      1.669 (MW) /     13.350 (MB)
	Total:                                     6.714 (MW) /     53.709 (MB)

	Size of irrep 0 of <ia|bc> integrals:      1.972 (MW) /     15.775 (MB)
	Size of irrep 1 of <ia|bc> integrals:      1.006 (MW) /      8.046 (MB)
	Size of irrep 2 of <ia|bc> integrals:      1.541 (MW) /     12.326 (MB)
	Size of irrep 3 of <ia|bc> integrals:      1.355 (MW) /     10.838 (MB)
	Total:                                     5.873 (MW) /     46.984 (MB)

	Size of irrep 0 of <Ia|Bc> integrals:      2.219 (MW) /     17.750 (MB)
	Size of irrep 1 of <Ia|Bc> integrals:      1.202 (MW) /      9.617 (MB)
	Size of irrep 2 of <Ia|Bc> integrals:      1.675 (MW) /     13.400 (MB)
	Size of irrep 3 of <Ia|Bc> integrals:      1.703 (MW) /     13.626 (MB)
	Total:                                     6.799 (MW) /     54.393 (MB)

	Size of irrep 0 of <iA|bC> integrals:      1.954 (MW) /     15.633 (MB)
	Size of irrep 1 of <iA|bC> integrals:      0.988 (MW) /      7.904 (MB)
	Size of irrep 2 of <iA|bC> integrals:      1.535 (MW) /     12.279 (MB)
	Size of irrep 3 of <iA|bC> integrals:      1.323 (MW) /     10.587 (MB)
	Total:                                     5.800 (MW) /     46.404 (MB)

	Size of irrep 0 of tIjAb amplitudes:       0.102 (MW) /      0.814 (MB)
	Size of irrep 1 of tIjAb amplitudes:       0.033 (MW) /      0.263 (MB)
	Size of irrep 2 of tIjAb amplitudes:       0.073 (MW) /      0.585 (MB)
	Size of irrep 3 of tIjAb amplitudes:       0.055 (MW) /      0.441 (MB)
	Total:                                     0.263 (MW) /      2.104 (MB)

	Nuclear Rep. energy          =     46.28798928973779
	SCF energy                   =   -534.31643212368147
	One-electron energy          =    -79.29165954500009
	Two-electron (AA) energy     =      8.66405512488033
	Two-electron (BB) energy     =      5.89909547834989
	Two-electron (AB) energy     =     19.97414849303536
	Two-electron energy          =     34.53729909626558
	Reference energy             =   -534.31643212368010

*** tstop() called on cqc05 at Thu Aug 20 20:48:00 2020
Module time:
	user time   =      15.29 seconds =       0.25 minutes
	system time =       9.90 seconds =       0.17 minutes
	total time  =         26 seconds =       0.43 minutes
Total time:
	user time   =      39.51 seconds =       0.66 minutes
	system time =      11.15 seconds =       0.19 minutes
	total time  =         51 seconds =       0.85 minutes

*** tstart() called on cqc05
*** at Thu Aug 20 20:48:00 2020

            **************************
            *                        *
            *        CCENERGY        *
            *                        *
            **************************

    Nuclear Rep. energy (wfn)     =   46.287989289737787
    SCF energy          (wfn)     = -534.316432123681466
    Reference energy    (file100) = -534.316432123680102

    Input parameters:
    -----------------
    Wave function   =     CCSD
    Reference wfn   =     UHF
    Brueckner       =     No
    Memory (Mbytes) =     250000.0
    Maxiter         =     50
    R_Convergence   =     1.0e-07
    E_Convergence   =     1.0e-06
    Restart         =     Yes
    DIIS            =     Yes
    AO Basis        =     NONE
    ABCD            =     NEW
    Cache Level     =     2
    Cache Type      =     LRU
    Print Level     =     1
    Num. of threads =     4
    # Amps to Print =     10
    Print MP2 Amps? =     No
    Analyze T2 Amps =     No
    Print Pair Ener =     No
    Local CC        =     No
    SCS-MP2         =     False
    SCSN-MP2        =     False
    SCS-CCSD        =     False

MP2 correlation energy -0.4266196260264263
                Solving CC Amplitude Equations
                ------------------------------
  Iter             Energy              RMS        T1Diag      D1Diag    New D1Diag    D2Diag
  ----     ---------------------    ---------   ----------  ----------  ----------   --------
     0        -0.426619626026431    0.000e+00    0.000000    0.000000    0.000000    0.000000
     1        -0.434942000857151    9.185e-02    0.021829    0.000000    0.000000    0.000000
     2        -0.447938114896520    3.265e-02    0.026440    0.000000    0.000000    0.000000
     3        -0.452188268238256    2.987e-02    0.037050    0.000000    0.000000    0.000000
     4        -0.452755922833921    1.699e-02    0.048885    0.000000    0.000000    0.000000
     5        -0.453252881386359    7.071e-03    0.054166    0.000000    0.000000    0.000000
     6        -0.453340619747504    1.755e-03    0.054828    0.000000    0.000000    0.000000
     7        -0.453340748078186    6.132e-04    0.054986    0.000000    0.000000    0.000000
     8        -0.453349723210843    2.484e-04    0.055043    0.000000    0.000000    0.000000
     9        -0.453344578309903    9.634e-05    0.055041    0.000000    0.000000    0.000000
    10        -0.453342697661184    4.015e-05    0.055046    0.000000    0.000000    0.000000
    11        -0.453343879919446    1.673e-05    0.055046    0.000000    0.000000    0.000000
    12        -0.453344054581650    7.014e-06    0.055049    0.000000    0.000000    0.000000
    13        -0.453344432609321    2.566e-06    0.055049    0.000000    0.000000    0.000000
    14        -0.453344491123106    8.567e-07    0.055049    0.000000    0.000000    0.000000
    15        -0.453344435609344    3.987e-07    0.055049    0.000000    0.000000    0.000000
    16        -0.453344418727109    1.649e-07    0.055048    0.000000    0.000000    0.000000
    17        -0.453344415700997    5.005e-08    0.055048    0.000000    0.000000    0.000000
    17        -0.453344415700997    5.005e-08    0.055048    0.000000    0.000000    0.000000

    Iterations converged.


    CCSD corr. energy   =   -0.453344415700997
    PPL corr. energy    =    0.107557162743470
    OS PPL corr. energy =    0.088338137745523
    SS PPL corr. energy =    0.019219024997945
    Largest TIA Amplitudes:
              2   2         0.0268367481
              5 124        -0.0214170107
              5 121        -0.0204121512
              2   3        -0.0171127650
              3  87        -0.0169588682
              3  84        -0.0169296384
              2   0         0.0164423575
              5 120         0.0145363319
              3  83         0.0120272951
              2   5         0.0117015015

    Largest Tia Amplitudes:
              5 119         0.1628665933
              5 121        -0.0586594998
              5 122         0.0374666511
              5 125         0.0292519376
              5 127        -0.0289297382
              3  84        -0.0149376875
              3  87        -0.0131507896
              5 137         0.0100590004
              3  83         0.0091682334
              2   3        -0.0090714738

    Largest TIJAB Amplitudes:
      6   4  61  10         0.0287925474
      6   4  59  10         0.0173115112
      6   4  61   4        -0.0173034364
      4   2  87   2         0.0170217143
      6   2 124   2         0.0161602577
      6   3  61  10        -0.0147493233
      6   4 124  87        -0.0125793397
      6   4  59   4        -0.0120648008
      6   2 123   2        -0.0119458649
      4   2  86   2        -0.0119212881

    Largest Tijab Amplitudes:
      5   2 119   3        -0.0448062724
      5   2 119   2         0.0330937667
      5   2 119   6        -0.0276703002
      5   4 119  87        -0.0261283319
      5   2 119   0         0.0232267877
      5   4  61  10        -0.0230770019
      5   2 119   5         0.0218444665
      5   4 119  84        -0.0215048938
      5   4 119  86         0.0196101667
      5   2 119   7        -0.0195436917

    Largest TIjAb Amplitudes:
      2   5   2 119         0.0520671852
      2   2   2   3         0.0373689354
      2   5   3 119        -0.0369812272
      6   5 124 119        -0.0352483554
      2   5   0 119         0.0308564457
      2   5   6 119        -0.0305294956
      2   2   2   2        -0.0300055906
      4   4  61  61        -0.0291549725
      4   4  10  10        -0.0291416970
      6   5  61  61         0.0283942983

    SCF energy       (wfn)                    = -534.316432123681466
    Reference energy (file100)                = -534.316432123680102

    Opposite-spin MP2 correlation energy      =   -0.322945041443139
    Same-spin MP2 correlation energy          =   -0.103674584583192
    MP2 correlation energy                    =   -0.426619626026426
      * MP2 total energy                      = -534.743051749706524

    Opposite-spin CCSD correlation energy     =   -0.354790973018595
    Same-spin CCSD correlation energy         =   -0.098553464430076
    CCSD correlation energy                   =   -0.453344415700997
      * CCSD total energy                     = -534.769776539381155


*** tstop() called on cqc05 at Thu Aug 20 20:48:34 2020
Module time:
	user time   =      17.18 seconds =       0.29 minutes
	system time =      14.33 seconds =       0.24 minutes
	total time  =         34 seconds =       0.57 minutes
Total time:
	user time   =      56.69 seconds =       0.94 minutes
	system time =      25.48 seconds =       0.42 minutes
	total time  =         85 seconds =       1.42 minutes

*** Psi4 exiting successfully. Buy a developer a beer!
