
    -----------------------------------------------------------------------
          Psi4: An Open-Source Ab Initio Electronic Structure Package
                               Psi4 1.2a1.dev938 

                         Git: Rev {HEAD} fc51d9a dirty


    R. M. Parrish, L. A. Burns, D. G. A. Smith, A. C. Simmonett,
    A. E. DePrince III, E. G. Hohenstein, U. Bozkaya, A. Yu. Sokolov,
    R. Di Remigio, R. M. Richard, J. F. Gonthier, A. M. James,
    H. R. McAlexander, A. Kumar, M. Saitow, X. Wang, B. P. Pritchard,
    P. Verma, H. F. Schaefer III, K. Patkowski, R. A. King, E. F. Valeev,
    F. A. Evangelista, J. M. Turney, T. D. Crawford, and C. D. Sherrill,
    J. Chem. Theory Comput. 13(7) pp 3185--3197 (2017).
    (doi: 10.1021/acs.jctc.7b00174)

    -----------------------------------------------------------------------


    Psi4 started on: Thursday, 20 August 2020 08:00PM

    Process ID: 423438
    PSIDATADIR: /home/irmler/Programs/psi4/beforeGrueneis3/stage/usr/local/psi4/share/psi4
    Memory:     500.0 MiB
    Threads:    4
    
  ==> Input File <==

--------------------------------------------------------------------------
# Any line starting with the # character is a comment line
memory 250000 mb
molecule molecule{
0 2
Cl         0.0000000000        0.0000000000       -0.4834702805
O          0.0000000000        0.0000000000        1.0713196655
}

set {
  reference uhf
  basis aug-cc-pv(t+d)z
  scf_type OUT_OF_CORE
  freeze_core true
}

energy('ccsd')
--------------------------------------------------------------------------

  Memory set to 232.831 GiB by Python driver.

*** tstart() called on cqc05
*** at Thu Aug 20 20:00:45 2020

   => Loading Basis Set <=

    Name: AUG-CC-PV(T+D)Z
    Role: ORBITAL
    Keyword: BASIS
    atoms 1 entry CL         line  1012 file /home/irmler/Programs/psi4/beforeGrueneis3/stage/usr/local/psi4/share/psi4/basis/aug-cc-pv_tpd_z.gbs 
    atoms 2 entry O          line   347 file /home/irmler/Programs/psi4/beforeGrueneis3/stage/usr/local/psi4/share/psi4/basis/aug-cc-pv_tpd_z.gbs 


         ---------------------------------------------------------
                                   SCF
            by Justin Turney, Rob Parrish, Andy Simmonett
                             and Daniel Smith
                              UHF Reference
                        4 Threads, 238418 MiB Core
         ---------------------------------------------------------

  ==> Geometry <==

    Molecular point group: c2v
    Full point group: C_inf_v

    Geometry (in Angstrom), charge = 0, multiplicity = 2:

       Center              X                  Y                   Z               Mass       
    ------------   -----------------  -----------------  -----------------  -----------------
          CL          0.000000000000     0.000000000000    -0.487968879743    34.968852682000
           O          0.000000000000     0.000000000000     1.066821066257    15.994914619560

  Running in c2v symmetry.

  Rotational constants: A = ************  B =      0.63541  C =      0.63541 [cm^-1]
  Rotational constants: A = ************  B =  19048.99041  C =  19048.99041 [MHz]
  Nuclear repulsion =   46.287989289737787

  Charge       = 0
  Multiplicity = 2
  Electrons    = 25
  Nalpha       = 13
  Nbeta        = 12

  ==> Algorithm <==

  SCF Algorithm Type is OUT_OF_CORE.
  DIIS enabled.
  MOM disabled.
  Fractional occupation disabled.
  Guess Type is GWH.
  Energy threshold   = 1.00e-08
  Density threshold  = 1.00e-08
  Integral threshold = 0.00e+00

  ==> Primary Basis <==

  Basis Set: AUG-CC-PV(T+D)Z
    Blend: AUG-CC-PV(T+D)Z
    Number of shells: 31
    Number of basis function: 101
    Number of Cartesian functions: 120
    Spherical Harmonics?: true
    Max angular momentum: 3

  ==> Pre-Iterations <==

   -------------------------------------------------------
    Irrep   Nso     Nmo     Nalpha   Nbeta   Ndocc  Nsocc
   -------------------------------------------------------
     A1        42      42       0       0       0       0
     A2        11      11       0       0       0       0
     B1        24      24       0       0       0       0
     B2        24      24       0       0       0       0
   -------------------------------------------------------
    Total     101     101      13      12      12       1
   -------------------------------------------------------

  ==> Integral Setup <==

  ==> DiskJK: Disk-Based J/K Matrices <==

    J tasked:                  Yes
    K tasked:                  Yes
    wK tasked:                  No
    Memory (MB):            178813
    Schwarz Cutoff:          1E-12

  Minimum eigenvalue in the overlap matrix is 5.7001594678E-04.
  Using Symmetric Orthogonalization.

  SCF Guess: Generalized Wolfsberg-Helmholtz.

  ==> Iterations <==

                        Total Energy        Delta E     RMS |[F,P]|

    Occupation by irrep:
             A1    A2    B1    B2 
    DOCC [     7,    0,    2,    3 ]
    SOCC [     0,    0,    1,    0 ]

   @UHF iter   1:  -512.94804032816376   -5.12948e+02   2.74049e-01 
    Occupation by irrep:
             A1    A2    B1    B2 
    DOCC [     7,    0,    2,    2 ]
    SOCC [     1,    1,    1,    0 ]

   @UHF iter   2:  -518.48605657616349   -5.53802e+00   1.43451e-01 DIIS
    Occupation by irrep:
             A1    A2    B1    B2 
    DOCC [     7,    0,    2,    3 ]
    SOCC [     0,    0,    1,    0 ]

   @UHF iter   3:  -519.94757547462416   -1.46152e+00   1.31911e-01 DIIS
   @UHF iter   4:  -533.34822624738922   -1.34007e+01   4.43229e-02 DIIS
   @UHF iter   5:  -534.17714133550373   -8.28915e-01   1.29599e-02 DIIS
   @UHF iter   6:  -534.26225495559709   -8.51136e-02   3.06884e-03 DIIS
   @UHF iter   7:  -534.27726651035550   -1.50116e-02   2.53132e-03 DIIS
   @UHF iter   8:  -534.28673515717924   -9.46865e-03   1.73854e-03 DIIS
   @UHF iter   9:  -534.29828424025004   -1.15491e-02   1.23762e-03 DIIS
   @UHF iter  10:  -534.30696467547364   -8.68044e-03   4.85688e-04 DIIS
   @UHF iter  11:  -534.30770959309712   -7.44918e-04   2.28347e-04 DIIS
   @UHF iter  12:  -534.30781181653720   -1.02223e-04   8.19497e-05 DIIS
   @UHF iter  13:  -534.30781262262690   -8.06090e-07   5.82718e-05 DIIS
   @UHF iter  14:  -534.30781610973577   -3.48711e-06   5.39564e-05 DIIS
   @UHF iter  15:  -534.30781992632194   -3.81659e-06   7.01041e-06 DIIS
   @UHF iter  16:  -534.30782009094617   -1.64624e-07   3.74295e-06 DIIS
   @UHF iter  17:  -534.30782013159171   -4.06455e-08   1.86702e-06 DIIS
   @UHF iter  18:  -534.30782013630392   -4.71221e-09   3.04844e-07 DIIS
   @UHF iter  19:  -534.30782013643091   -1.26988e-10   2.35023e-07 DIIS
   @UHF iter  20:  -534.30782013649821   -6.73026e-11   2.82254e-08 DIIS
   @UHF iter  21:  -534.30782013650014   -1.93268e-12   5.56462e-09 DIIS

  ==> Post-Iterations <==

   @Spin Contamination Metric:   1.995342795E-02
   @S^2 Expected:                7.500000000E-01
   @S^2 Observed:                7.699534280E-01
   @S   Expected:                5.000000000E-01
   @S   Observed:                5.000000000E-01

    Orbital Energies (a.u.)
    -----------------------

    Alpha Occupied:                                                       

       1A1  -104.920489     2A1   -20.698167     3A1   -10.640372  
       1B1    -8.108588     4A1    -8.105841     1B2    -8.103760  
       5A1    -1.491468     6A1    -1.063969     2B1    -0.743442  
       2B2    -0.673315     7A1    -0.672690     3B1    -0.489444  
       3B2    -0.454706  

    Alpha Virtual:                                                        

       8A1     0.064840     9A1     0.107144     4B1     0.107223  
       4B2     0.110046    10A1     0.161388     5B1     0.187846  
      11A1     0.188278     5B2     0.194341     1A2     0.315509  
      12A1     0.315537    13A1     0.332840     6B1     0.401548  
       6B2     0.411255    14A1     0.502484     7B1     0.585968  
       7B2     0.594331    15A1     0.634771     2A2     0.696422  
      16A1     0.696719    17A1     0.727949     8B1     0.745261  
       8B2     0.759232    18A1     0.823482     3A2     0.823518  
       9B1     0.884558     9B2     0.907475    19A1     0.985878  
      20A1     1.067940    10B1     1.105643    10B2     1.131339  
      21A1     1.155511    11B1     1.156513    11B2     1.156535  
       4A2     1.279200    22A1     1.279545    12B1     1.479092  
      12B2     1.490268    23A1     1.686629    24A1     1.991004  
      13B1     2.056293    13B2     2.056299     5A2     2.079110  
      25A1     2.081223    14B1     2.183556    14B2     2.213929  
      26A1     2.260304     6A2     2.260643    27A1     2.278161  
      28A1     2.374776     7A2     2.386377    29A1     2.393559  
      15B1     2.396713    15B2     2.412432    16B1     2.514730  
      16B2     2.532759    17B1     2.926510    17B2     2.939675  
      18B1     3.014388    18B2     3.014398    30A1     3.063410  
       8A2     3.063775    31A1     3.116039    32A1     3.259182  
      19B1     3.396116    19B2     3.420459    33A1     3.530755  
      20B1     4.244558    20B2     4.307812    34A1     5.022668  
      35A1     6.372088    21B1     6.409664    21B2     6.409769  
      36A1     6.522816     9A2     6.527913    37A1     6.675452  
      22B1     6.680907    22B2     6.727719    38A1     6.931358  
      10A2     6.931416    23B1     7.152697    23B2     7.211095  
      39A1     7.417811    11A2     8.731754    40A1     8.731764  
      24B1     8.800591    24B2     8.806864    41A1     9.417286  
      42A1    11.392419  

    Beta Occupied:                                                        

       1A1  -104.919209     2A1   -20.658447     3A1   -10.639062  
       4A1    -8.108531     1B2    -8.103119     1B1    -8.099914  
       5A1    -1.385602     6A1    -1.003879     2B2    -0.645493  
       7A1    -0.634780     2B1    -0.527654     3B2    -0.436195  

    Beta Virtual:                                                         

       3B1     0.046092     8A1     0.068436     4B1     0.108482  
       9A1     0.108535     4B2     0.109982    10A1     0.168741  
      11A1     0.193041     5B2     0.195740     5B1     0.217892  
      12A1     0.318929     1A2     0.318987    13A1     0.338360  
       6B2     0.410097     6B1     0.431862    14A1     0.509935  
       7B1     0.593216     7B2     0.594352    15A1     0.637790  
       2A2     0.707875    16A1     0.708047    17A1     0.729669  
       8B2     0.757575     8B1     0.766569    18A1     0.833895  
       3A2     0.833936     9B2     0.912054     9B1     0.947364  
      19A1     0.999695    20A1     1.078612    10B2     1.137056  
      10B1     1.159135    11B2     1.159366    21A1     1.160067  
      11B1     1.167990     4A2     1.281343    22A1     1.281523  
      12B1     1.487091    12B2     1.489739    23A1     1.696157  
      24A1     2.017744    13B2     2.070092    13B1     2.070097  
       5A2     2.133435    25A1     2.133705    14B2     2.219761  
      14B1     2.231599    26A1     2.278551     6A2     2.279991  
      27A1     2.282542    28A1     2.391272     7A2     2.393757  
      29A1     2.397632    15B2     2.414535    15B1     2.417703  
      16B1     2.525765    16B2     2.532307    17B1     2.934933  
      17B2     2.939358    18B1     3.021852    18B2     3.021853  
      30A1     3.067367     8A2     3.067514    31A1     3.131674  
      32A1     3.272605    19B1     3.423255    19B2     3.423568  
      33A1     3.534828    20B2     4.329955    20B1     4.373884  
      34A1     5.042386    35A1     6.386654    21B1     6.460210  
      21B2     6.460213    36A1     6.564258     9A2     6.564799  
      37A1     6.694082    22B1     6.723989    22B2     6.737774  
      10A2     7.020486    38A1     7.020678    23B2     7.232595  
      23B1     7.239854    39A1     7.446513    11A2     8.734081  
      40A1     8.734082    24B1     8.802180    24B2     8.806158  
      41A1     9.420367    42A1    11.428864  

    Final Occupation by Irrep:
             A1    A2    B1    B2 
    DOCC [     7,    0,    2,    3 ]
    SOCC [     0,    0,    1,    0 ]

  Energy converged.

  @UHF Final Energy:  -534.30782013650014

   => Energetics <=

    Nuclear Repulsion Energy =             46.2879892897377871
    One-Electron Energy =                -829.8634865938280427
    Two-Electron Energy =                 249.2676771675900795
    Total Energy =                       -534.3078201365001405


  UHF NO Occupations:
  HONO-2 :    7 A1 1.9973689
  HONO-1 :    2 B1 1.9946743
  HONO-0 :    3 B1 1.0000000
  LUNO+0 :    4 B1 0.0053257
  LUNO+1 :    8 A1 0.0026311
  LUNO+2 :    9 A1 0.0013024
  LUNO+3 :    4 B2 0.0004733



Properties will be evaluated at   0.000000,   0.000000,   0.000000 Bohr

Properties computed using the SCF density matrix

  Nuclear Dipole Moment: (a.u.)
     X:     0.0000      Y:     0.0000      Z:     0.4518

  Electronic Dipole Moment: (a.u.)
     X:     0.0000      Y:     0.0000      Z:    -0.7787

  Dipole Moment: (a.u.)
     X:     0.0000      Y:     0.0000      Z:    -0.3269     Total:     0.3269

  Dipole Moment: (Debye)
     X:     0.0000      Y:     0.0000      Z:    -0.8309     Total:     0.8309


*** tstop() called on cqc05 at Thu Aug 20 20:00:48 2020
Module time:
	user time   =       4.05 seconds =       0.07 minutes
	system time =       0.16 seconds =       0.00 minutes
	total time  =          3 seconds =       0.05 minutes
Total time:
	user time   =       4.05 seconds =       0.07 minutes
	system time =       0.16 seconds =       0.00 minutes
	total time  =          3 seconds =       0.05 minutes

*** tstart() called on cqc05
*** at Thu Aug 20 20:00:48 2020


	Wfn Parameters:
	--------------------
	Wavefunction         = CCSD
	Number of irreps     = 4
	Number of MOs        = 101
	Number of active MOs = 95
	AO-Basis             = NONE
	Semicanonical        = false
	Reference            = UHF
	Print Level          = 1

	IRREP	# MOs	# FZDC	# DOCC	# SOCC	# VIRT	# FZVR
	-----	-----	------	------	------	------	------
	 A1	   42	    4	    3	    0	    35	    0
	 A2	   11	    0	    0	    0	    11	    0
	 B1	   24	    1	    1	    1	    21	    0
	 B2	   24	    1	    2	    0	    21	    0
	Transforming integrals...
	IWL integrals will be deleted.
	(OO|OO)...
	Presorting SO-basis two-electron integrals.
	Sorting File: SO Ints (nn|nn) nbuckets = 1
	Transforming the one-electron integrals and constructing Fock matrices
	Starting AA/AB first half-transformation.
	Sorting AA/AB half-transformed integrals.
	Starting BB first half-transformation.
	Sorting BB half-transformed integrals.
	First half integral transformation complete.
	Starting AA second half-transformation.
	Starting AB second half-transformation.
	Starting BB second half-transformation.
	Two-electron integral transformation complete.
	(OO|OV)...
	Starting AA second half-transformation.
	Starting AB second half-transformation.
	Starting BB second half-transformation.
	Two-electron integral transformation complete.
	(OO|VV)...
	Starting AA second half-transformation.
	Starting AB second half-transformation.
	Starting BB second half-transformation.
	Two-electron integral transformation complete.
	(OV|OO)...
	Starting AA/AB first half-transformation.
	Sorting AA/AB half-transformed integrals.
	Starting BB first half-transformation.
	Sorting BB half-transformed integrals.
	First half integral transformation complete.
	Starting AA second half-transformation.
	Starting AB second half-transformation.
	Starting BB second half-transformation.
	Two-electron integral transformation complete.
	(OV|OV)...
	Starting AA second half-transformation.
	Starting AB second half-transformation.
	Starting BB second half-transformation.
	Two-electron integral transformation complete.
	(OV|VV)...
	Starting AA second half-transformation.
	Starting AB second half-transformation.
	Starting BB second half-transformation.
	Two-electron integral transformation complete.
	(VV|OO)...
	Starting AA/AB first half-transformation.
	Sorting AA/AB half-transformed integrals.
	Starting BB first half-transformation.
	Sorting BB half-transformed integrals.
	First half integral transformation complete.
	Starting AA second half-transformation.
	Starting AB second half-transformation.
	Starting BB second half-transformation.
	Two-electron integral transformation complete.
	(VV|OV)...
	Starting AA second half-transformation.
	Starting AB second half-transformation.
	Starting BB second half-transformation.
	Two-electron integral transformation complete.
	(VV|VV)...
	Starting AA second half-transformation.
	Starting AB second half-transformation.
	Starting BB second half-transformation.
	Two-electron integral transformation complete.
	Frozen core energy     =   -535.84621069276579

	Size of irrep 0 of <AB|CD> integrals:      1.145 (MW) /      9.159 (MB)
	Size of irrep 1 of <AB|CD> integrals:      0.682 (MW) /      5.458 (MB)
	Size of irrep 2 of <AB|CD> integrals:      0.933 (MW) /      7.465 (MB)
	Size of irrep 3 of <AB|CD> integrals:      0.933 (MW) /      7.465 (MB)
	Total:                                     3.693 (MW) /     29.548 (MB)

	Size of irrep 0 of <ab|cd> integrals:      1.190 (MW) /      9.522 (MB)
	Size of irrep 1 of <ab|cd> integrals:      0.717 (MW) /      5.739 (MB)
	Size of irrep 2 of <ab|cd> integrals:      1.002 (MW) /      8.016 (MB)
	Size of irrep 3 of <ab|cd> integrals:      0.955 (MW) /      7.636 (MB)
	Total:                                     3.864 (MW) /     30.914 (MB)

	Size of irrep 0 of <Ab|Cd> integrals:      5.058 (MW) /     40.464 (MB)
	Size of irrep 1 of <Ab|Cd> integrals:      2.799 (MW) /     22.391 (MB)
	Size of irrep 2 of <Ab|Cd> integrals:      3.869 (MW) /     30.953 (MB)
	Size of irrep 3 of <Ab|Cd> integrals:      3.775 (MW) /     30.202 (MB)
	Total:                                    15.501 (MW) /    124.010 (MB)

	Size of irrep 0 of <IA|BC> integrals:      0.421 (MW) /      3.369 (MB)
	Size of irrep 1 of <IA|BC> integrals:      0.193 (MW) /      1.546 (MB)
	Size of irrep 2 of <IA|BC> integrals:      0.299 (MW) /      2.396 (MB)
	Size of irrep 3 of <IA|BC> integrals:      0.299 (MW) /      2.396 (MB)
	Total:                                     1.213 (MW) /      9.706 (MB)

	Size of irrep 0 of <ia|bc> integrals:      0.384 (MW) /      3.070 (MB)
	Size of irrep 1 of <ia|bc> integrals:      0.166 (MW) /      1.328 (MB)
	Size of irrep 2 of <ia|bc> integrals:      0.246 (MW) /      1.970 (MB)
	Size of irrep 3 of <ia|bc> integrals:      0.281 (MW) /      2.251 (MB)
	Total:                                     1.077 (MW) /      8.619 (MB)

	Size of irrep 0 of <Ia|Bc> integrals:      0.430 (MW) /      3.436 (MB)
	Size of irrep 1 of <Ia|Bc> integrals:      0.199 (MW) /      1.593 (MB)
	Size of irrep 2 of <Ia|Bc> integrals:      0.311 (MW) /      2.486 (MB)
	Size of irrep 3 of <Ia|Bc> integrals:      0.301 (MW) /      2.409 (MB)
	Total:                                     1.241 (MW) /      9.925 (MB)

	Size of irrep 0 of <iA|bC> integrals:      0.378 (MW) /      3.023 (MB)
	Size of irrep 1 of <iA|bC> integrals:      0.161 (MW) /      1.285 (MB)
	Size of irrep 2 of <iA|bC> integrals:      0.236 (MW) /      1.888 (MB)
	Size of irrep 3 of <iA|bC> integrals:      0.280 (MW) /      2.238 (MB)
	Total:                                     1.054 (MW) /      8.434 (MB)

	Size of irrep 0 of tIjAb amplitudes:       0.034 (MW) /      0.270 (MB)
	Size of irrep 1 of tIjAb amplitudes:       0.010 (MW) /      0.080 (MB)
	Size of irrep 2 of tIjAb amplitudes:       0.018 (MW) /      0.142 (MB)
	Size of irrep 3 of tIjAb amplitudes:       0.023 (MW) /      0.187 (MB)
	Total:                                     0.085 (MW) /      0.678 (MB)

	Nuclear Rep. energy          =     46.28798928973779
	SCF energy                   =   -534.30782013650014
	One-electron energy          =    -79.27656243872214
	Two-electron (AA) energy     =      8.66116650608880
	Two-electron (BB) energy     =      5.89767961248395
	Two-electron (AB) energy     =     19.96811758667846
	Two-electron energy          =     34.52696370525121
	Reference energy             =   -534.30782013649889

*** tstop() called on cqc05 at Thu Aug 20 20:00:51 2020
Module time:
	user time   =       1.82 seconds =       0.03 minutes
	system time =       0.97 seconds =       0.02 minutes
	total time  =          3 seconds =       0.05 minutes
Total time:
	user time   =       5.87 seconds =       0.10 minutes
	system time =       1.13 seconds =       0.02 minutes
	total time  =          6 seconds =       0.10 minutes

*** tstart() called on cqc05
*** at Thu Aug 20 20:00:51 2020

            **************************
            *                        *
            *        CCENERGY        *
            *                        *
            **************************

    Nuclear Rep. energy (wfn)     =   46.287989289737787
    SCF energy          (wfn)     = -534.307820136500141
    Reference energy    (file100) = -534.307820136498890

    Input parameters:
    -----------------
    Wave function   =     CCSD
    Reference wfn   =     UHF
    Brueckner       =     No
    Memory (Mbytes) =     250000.0
    Maxiter         =     50
    R_Convergence   =     1.0e-07
    E_Convergence   =     1.0e-06
    Restart         =     Yes
    DIIS            =     Yes
    AO Basis        =     NONE
    ABCD            =     NEW
    Cache Level     =     2
    Cache Type      =     LRU
    Print Level     =     1
    Num. of threads =     4
    # Amps to Print =     10
    Print MP2 Amps? =     No
    Analyze T2 Amps =     No
    Print Pair Ener =     No
    Local CC        =     No
    SCS-MP2         =     False
    SCSN-MP2        =     False
    SCS-CCSD        =     False

MP2 correlation energy -0.3949565689182413
                Solving CC Amplitude Equations
                ------------------------------
  Iter             Energy              RMS        T1Diag      D1Diag    New D1Diag    D2Diag
  ----     ---------------------    ---------   ----------  ----------  ----------   --------
     0        -0.394956568918242    0.000e+00    0.000000    0.000000    0.000000    0.000000
     1        -0.406733156039974    9.211e-02    0.021808    0.000000    0.000000    0.000000
     2        -0.419734687011584    3.317e-02    0.026907    0.000000    0.000000    0.000000
     3        -0.423997586144707    2.978e-02    0.037579    0.000000    0.000000    0.000000
     4        -0.424684226951794    1.698e-02    0.049845    0.000000    0.000000    0.000000
     5        -0.425141263101969    6.537e-03    0.054751    0.000000    0.000000    0.000000
     6        -0.425207204334586    1.641e-03    0.055310    0.000000    0.000000    0.000000
     7        -0.425211091237742    5.879e-04    0.055471    0.000000    0.000000    0.000000
     8        -0.425217141927641    2.386e-04    0.055518    0.000000    0.000000    0.000000
     9        -0.425211475095396    9.239e-05    0.055519    0.000000    0.000000    0.000000
    10        -0.425210500049560    3.823e-05    0.055522    0.000000    0.000000    0.000000
    11        -0.425211820707221    1.509e-05    0.055524    0.000000    0.000000    0.000000
    12        -0.425212006367209    6.033e-06    0.055525    0.000000    0.000000    0.000000
    13        -0.425212305817736    2.219e-06    0.055526    0.000000    0.000000    0.000000
    14        -0.425212305083152    7.935e-07    0.055525    0.000000    0.000000    0.000000
    15        -0.425212262530023    3.306e-07    0.055525    0.000000    0.000000    0.000000
    16        -0.425212248772640    1.102e-07    0.055525    0.000000    0.000000    0.000000
    17        -0.425212246678246    3.748e-08    0.055525    0.000000    0.000000    0.000000
    17        -0.425212246678246    3.748e-08    0.055525    0.000000    0.000000    0.000000

    Iterations converged.


    CCSD corr. energy   =   -0.425212246678246
    PPL corr. energy    =    0.096339179294901
    OS PPL corr. energy =    0.078073851076144
    SS PPL corr. energy =    0.018265328218758
    Largest TIA Amplitudes:
              2   2        -0.0295671481
              3  48        -0.0242014565
              5  69        -0.0200812335
              2   0         0.0194097084
              3  47        -0.0181735505
              5  68        -0.0153789203
              3  51        -0.0153604654
              2   5         0.0129885766
              2   3         0.0129269434
              5  72        -0.0120957213

    Largest Tia Amplitudes:
              3  46        -0.1659764111
              3  48        -0.0605982214
              3  49        -0.0360257812
              3  52        -0.0253760968
              3  54         0.0230232670
              4  70        -0.0180879332
              4  69        -0.0120454239
              2   2        -0.0096817954
              2  12         0.0092561605
              5  69        -0.0086295742

    Largest TIJAB Amplitudes:
      6   4  37  10        -0.0242519689
      6   4  35   4         0.0212092034
      6   4  35  10        -0.0200411713
      6   4  37   4         0.0200227201
      6   2  69   2        -0.0185779799
      4   2  48   2        -0.0178693787
      6   2  72   2        -0.0146166776
      4   2  51   2        -0.0140019591
      6   2  71   2         0.0134200142
      5   4  37  10         0.0130572670

    Largest Tijab Amplitudes:
      3   2  46   2         0.0438223003
      3   2  46   3        -0.0396071355
      5   3  70  46         0.0293419650
      3   2  46   0        -0.0286610431
      3   2  46   6        -0.0255118101
      3   2  46   5        -0.0246097959
      5   3  37  10         0.0200231825
      5   3  73  46         0.0190875857
      5   3  72  46        -0.0182280687
      5   3  35   4         0.0174680523

    Largest TIjAb Amplitudes:
      2   3   2  46         0.0595204368
      2   2   2   2        -0.0437765928
      2   3   0  46        -0.0371252766
      2   2   2   3         0.0363213003
      4   3  48  46         0.0357520487
      2   3   3  46        -0.0308492293
      2   3   6  46        -0.0305412319
      6   3  69  46         0.0292914747
      4   3  51  46         0.0271349823
      2   3   5  46        -0.0260763838

    SCF energy       (wfn)                    = -534.307820136500141
    Reference energy (file100)                = -534.307820136498890

    Opposite-spin MP2 correlation energy      =   -0.295039062223416
    Same-spin MP2 correlation energy          =   -0.099917506694809
    MP2 correlation energy                    =   -0.394956568918241
      * MP2 total energy                      = -534.702776705417136

    Opposite-spin CCSD correlation energy     =   -0.329979894582892
    Same-spin CCSD correlation energy         =   -0.095232348840658
    CCSD correlation energy                   =   -0.425212246678246
      * CCSD total energy                     = -534.733032383177147


*** tstop() called on cqc05 at Thu Aug 20 20:00:57 2020
Module time:
	user time   =       2.86 seconds =       0.05 minutes
	system time =       1.61 seconds =       0.03 minutes
	total time  =          6 seconds =       0.10 minutes
Total time:
	user time   =       8.73 seconds =       0.15 minutes
	system time =       2.74 seconds =       0.05 minutes
	total time  =         12 seconds =       0.20 minutes

*** Psi4 exiting successfully. Buy a developer a beer!
