
    -----------------------------------------------------------------------
          Psi4: An Open-Source Ab Initio Electronic Structure Package
                               Psi4 1.4a3.dev88 

                         Git: Rev {master} 262e345 


    D. G. A. Smith, L. A. Burns, A. C. Simmonett, R. M. Parrish,
    M. C. Schieber, R. Galvelis, P. Kraus, H. Kruse, R. Di Remigio,
    A. Alenaizan, A. M. James, S. Lehtola, J. P. Misiewicz, M. Scheurer,
    R. A. Shaw, J. B. Schriber, Y. Xie, Z. L. Glick, D. A. Sirianni,
    J. S. O'Brien, J. M. Waldrop, A. Kumar, E. G. Hohenstein,
    B. P. Pritchard, B. R. Brooks, H. F. Schaefer III, A. Yu. Sokolov,
    K. Patkowski, A. E. DePrince III, U. Bozkaya, R. A. King,
    F. A. Evangelista, J. M. Turney, T. D. Crawford, C. D. Sherrill,
    J. Chem. Phys. 152(18) 184108 (2020). https://doi.org/10.1063/5.0006002

                            Additional Code Authors
    E. T. Seidl, C. L. Janssen, E. F. Valeev, M. L. Leininger,
    J. F. Gonthier, R. M. Richard, H. R. McAlexander, M. Saitow, X. Wang,
    P. Verma, and M. H. Lechner

             Previous Authors, Complete List of Code Contributors,
                       and Citations for Specific Modules
    https://github.com/psi4/psi4/blob/master/codemeta.json
    https://github.com/psi4/psi4/graphs/contributors
    http://psicode.org/psi4manual/master/introduction.html#citing-psifour

    -----------------------------------------------------------------------


    Psi4 started on: Tuesday, 26 January 2021 06:36PM

    Process ID: 410148
    Host:       n412-039.vsc4.prov
    PSIDATADIR: /home/fs71337/gallo4/psi4/eri-6/psi4/build/stage/share/psi4
    Memory:     500.0 MiB
    Threads:    48
    
  ==> Input File <==

--------------------------------------------------------------------------
# Any line starting with the # character is a comment line
memory 250000 mb
molecule molecule{
1 3
S          0.0000000000        0.0000000000       -0.0413619065
H          0.0000000000        0.0000000000        1.3156167249
}

set {
  reference uhf
  basis aug-cc-pV(d+d)Z
  scf_type OUT_OF_CORE
  freeze_core true
}

energy('ccsd(t)')
--------------------------------------------------------------------------

  Memory set to 232.831 GiB by Python driver.

Scratch directory: /binfl/lv71337/airmler/temp/

*** tstart() called on n412-039.vsc4.prov
*** at Tue Jan 26 18:36:13 2021

   => Loading Basis Set <=

    Name: AUG-CC-PV(D+D)Z
    Role: ORBITAL
    Keyword: BASIS
    atoms 1 entry S          line   740 file /home/fs71337/gallo4/psi4/eri-6/psi4/build/stage/share/psi4/basis/aug-cc-pv_dpd_z.gbs 
    atoms 2 entry H          line    68 file /home/fs71337/gallo4/psi4/eri-6/psi4/build/stage/share/psi4/basis/aug-cc-pv_dpd_z.gbs 


         ---------------------------------------------------------
                                   SCF
               by Justin Turney, Rob Parrish, Andy Simmonett
                          and Daniel G. A. Smith
                              UHF Reference
                       48 Threads, 238418 MiB Core
         ---------------------------------------------------------

  ==> Geometry <==

    Molecular point group: c2v
    Full point group: C_inf_v

    Geometry (in Angstrom), charge = 1, multiplicity = 3:

       Center              X                  Y                   Z               Mass       
    ------------   -----------------  -----------------  -----------------  -----------------
         S            0.000000000000     0.000000000000    -0.041467596634    31.972071174400
         H            0.000000000000     0.000000000000     1.315511034766     1.007825032230

  Running in c2v symmetry.

  Rotational constants: A = ************  B =      9.37009  C =      9.37009 [cm^-1]
  Rotational constants: A = ************  B = 280908.28872  C = 280908.28872 [MHz]
  Nuclear repulsion =    6.239475828727483

  Charge       = 1
  Multiplicity = 3
  Electrons    = 16
  Nalpha       = 9
  Nbeta        = 7

  ==> Algorithm <==

  SCF Algorithm Type is OUT_OF_CORE.
  DIIS enabled.
  MOM disabled.
  Fractional occupation disabled.
  Guess Type is SAD.
  Energy threshold   = 1.00e-08
  Density threshold  = 1.00e-08
  Integral threshold = 1.00e-12

  ==> Primary Basis <==

  Basis Set: AUG-CC-PV(D+D)Z
    Blend: AUG-CC-PV(D+D)Z
    Number of shells: 17
    Number of basis function: 41
    Number of Cartesian functions: 44
    Spherical Harmonics?: true
    Max angular momentum: 2

  ==> Integral Setup <==

  ==> DiskJK: Disk-Based J/K Matrices <==

    J tasked:                  Yes
    K tasked:                  Yes
    wK tasked:                  No
    Memory [MiB]:           178813
    Schwarz Cutoff:          1E-12

  Minimum eigenvalue in the overlap matrix is 1.3655944509E-03.
  Reciprocal condition number of the overlap matrix is 3.3111652074E-04.
    Using symmetric orthogonalization.

  ==> Pre-Iterations <==

  SCF Guess: Superposition of Atomic Densities via on-the-fly atomic UHF (no occupation information).


 WARNING: Atomic UHF is not converging! Try casting from a smaller basis or call Rob at CCMST.
   -------------------------
    Irrep   Nso     Nmo    
   -------------------------
     A1        20      20 
     A2         3       3 
     B1         9       9 
     B2         9       9 
   -------------------------
    Total      41      41
   -------------------------

  ==> Iterations <==

                        Total Energy        Delta E     RMS |[F,P]|

   @UHF iter SAD:  -396.35266727975045   -3.96353e+02   0.00000e+00 
   @UHF iter   1:  -397.73705326871021   -1.38439e+00   5.49608e-03 DIIS
   @UHF iter   2:  -397.75455473240197   -1.75015e-02   1.83329e-03 DIIS
   @UHF iter   3:  -397.75676232794962   -2.20760e-03   5.31238e-04 DIIS
   @UHF iter   4:  -397.75695628100414   -1.93953e-04   1.76861e-04 DIIS
   @UHF iter   5:  -397.75698241470593   -2.61337e-05   3.65793e-05 DIIS
   @UHF iter   6:  -397.75698360634044   -1.19163e-06   9.75441e-06 DIIS
   @UHF iter   7:  -397.75698370369105   -9.73506e-08   4.17751e-06 DIIS
   @UHF iter   8:  -397.75698372716647   -2.34754e-08   2.03706e-06 DIIS
   @UHF iter   9:  -397.75698373510556   -7.93909e-09   5.32781e-07 DIIS
   @UHF iter  10:  -397.75698373562739   -5.21823e-10   7.94392e-08 DIIS
   @UHF iter  11:  -397.75698373563392   -6.53699e-12   1.39833e-08 DIIS
   @UHF iter  12:  -397.75698373563381    1.13687e-13   2.89233e-09 DIIS
  Energy and wave function converged.


  ==> Post-Iterations <==

   @Spin Contamination Metric:   1.998653754E-02
   @S^2 Expected:                2.000000000E+00
   @S^2 Observed:                2.019986538E+00
   @S   Expected:                1.000000000E+00
   @S   Observed:                1.000000000E+00

    Orbital Energies [Eh]
    ---------------------

    Alpha Occupied:                                                       

       1A1   -92.408058     2A1    -9.403886     1B2    -7.096447  
       1B1    -7.096447     3A1    -7.075883     4A1    -1.390775  
       5A1    -0.899879     2B2    -0.834357     2B1    -0.834357  

    Alpha Virtual:                                                        

       6A1    -0.148711     7A1    -0.091211     3B2    -0.065967  
       3B1    -0.065967     8A1    -0.064834     9A1    -0.004504  
       4B1     0.018223     4B2     0.018223     1A2     0.039210  
      10A1     0.039210    11A1     0.191974     5B2     0.265192  
       5B1     0.265192    12A1     0.322212     6B2     0.485684  
       6B1     0.485684    13A1     0.519741    14A1     0.571912  
      15A1     0.672566     2A2     0.672566     7B2     0.717884  
       7B1     0.717884    16A1     0.859856    17A1     1.208946  
       8B2     1.529554     8B1     1.529554    18A1     2.001578  
      19A1     4.614754     3A2     4.614754     9B1     4.676703  
       9B2     4.676703    20A1     4.765535  

    Beta Occupied:                                                        

       1A1   -92.387618     2A1    -9.381544     3A1    -7.064408  
       1B1    -7.045688     1B2    -7.045688     4A1    -1.191025  
       5A1    -0.858892  

    Beta Virtual:                                                         

       2B1    -0.303358     2B2    -0.303358     6A1    -0.132856  
       7A1    -0.069516     8A1    -0.059527     3B1    -0.046237  
       3B2    -0.046237     9A1     0.004822     4B2     0.058370  
       4B1     0.058370     1A2     0.133841    10A1     0.133841  
      11A1     0.210922     5B1     0.289722     5B2     0.289722  
      12A1     0.335611    13A1     0.527729     6B1     0.568425  
       6B2     0.568425    14A1     0.591843     7B1     0.767599  
       7B2     0.767599     2A2     0.777425    15A1     0.777425  
      16A1     0.887702    17A1     1.241247     8B2     1.535688  
       8B1     1.535688    18A1     2.010443     3A2     4.636074  
      19A1     4.636074     9B1     4.689091     9B2     4.689091  
      20A1     4.775467  

    Final Occupation by Irrep:
             A1    A2    B1    B2 
    DOCC [     5,    0,    1,    1 ]
    SOCC [     0,    0,    1,    1 ]

  @UHF Final Energy:  -397.75698373563381

   => Energetics <=

    Nuclear Repulsion Energy =              6.2394758287274827
    One-Electron Energy =                -555.9779655819122581
    Two-Electron Energy =                 151.9815060175509984
    Total Energy =                       -397.7569837356338098

  UHF NO Occupations:
  HONO-2 :    5 A1 1.9909059
  HONO-1 :    2 B1 1.0000000
  HONO-0 :    2 B2 1.0000000
  LUNO+0 :    6 A1 0.0090941
  LUNO+1 :    7 A1 0.0009390
  LUNO+2 :    3 B2 0.0000009
  LUNO+3 :    3 B1 0.0000009


Computation Completed


Properties will be evaluated at   0.000000,   0.000000,   0.000000 [a0]

Properties computed using the SCF density matrix

  Nuclear Dipole Moment: [e a0]
     X:     0.0000      Y:     0.0000      Z:     1.2322

  Electronic Dipole Moment: [e a0]
     X:     0.0000      Y:     0.0000      Z:    -0.7016

  Dipole Moment: [e a0]
     X:     0.0000      Y:     0.0000      Z:     0.5306     Total:     0.5306

  Dipole Moment: [D]
     X:     0.0000      Y:     0.0000      Z:     1.3486     Total:     1.3486


*** tstop() called on n412-039.vsc4.prov at Tue Jan 26 18:36:16 2021
Module time:
	user time   =      16.57 seconds =       0.28 minutes
	system time =       1.57 seconds =       0.03 minutes
	total time  =          3 seconds =       0.05 minutes
Total time:
	user time   =      16.57 seconds =       0.28 minutes
	system time =       1.57 seconds =       0.03 minutes
	total time  =          3 seconds =       0.05 minutes

*** tstart() called on n412-039.vsc4.prov
*** at Tue Jan 26 18:36:16 2021


	Wfn Parameters:
	--------------------
	Wavefunction         = CCSD_T
	Number of irreps     = 4
	Number of MOs        = 41
	Number of active MOs = 36
	AO-Basis             = NONE
	Semicanonical        = false
	Reference            = UHF
	Print Level          = 1

	IRREP	# MOs	# FZDC	# DOCC	# SOCC	# VIRT	# FZVR
	-----	-----	------	------	------	------	------
	 A1	   20	    3	    2	    0	    15	    0
	 A2	   3	    0	    0	    0	    3	    0
	 B1	   9	    1	    0	    1	    7	    0
	 B2	   9	    1	    0	    1	    7	    0
	Transforming integrals...
	IWL integrals will be deleted.
	(OO|OO)...
	Presorting SO-basis two-electron integrals.
	Sorting File: SO Ints (nn|nn) nbuckets = 1
	Constructing frozen core operators
	Starting AA/AB first half-transformation.
	Sorting AA/AB half-transformed integrals.
	Starting BB first half-transformation.
	Sorting BB half-transformed integrals.
	First half integral transformation complete.
	Starting AA second half-transformation.
	Starting AB second half-transformation.
	Starting BB second half-transformation.
	Two-electron integral transformation complete.
	(OO|OV)...
	Starting AA second half-transformation.
	Starting AB second half-transformation.
	Starting BB second half-transformation.
	Two-electron integral transformation complete.
	(OO|VV)...
	Starting AA second half-transformation.
	Starting AB second half-transformation.
	Starting BB second half-transformation.
	Two-electron integral transformation complete.
	(OV|OO)...
	Starting AA/AB first half-transformation.
	Sorting AA/AB half-transformed integrals.
	Starting BB first half-transformation.
	Sorting BB half-transformed integrals.
	First half integral transformation complete.
	Starting AA second half-transformation.
	Starting AB second half-transformation.
	Starting BB second half-transformation.
	Two-electron integral transformation complete.
	(OV|OV)...
	Starting AA second half-transformation.
	Starting AB second half-transformation.
	Starting BB second half-transformation.
	Two-electron integral transformation complete.
	(OV|VV)...
	Starting AA second half-transformation.
	Starting AB second half-transformation.
	Starting BB second half-transformation.
	Two-electron integral transformation complete.
	(VV|OO)...
	Starting AA/AB first half-transformation.
	Sorting AA/AB half-transformed integrals.
	Starting BB first half-transformation.
	Sorting BB half-transformed integrals.
	First half integral transformation complete.
	Starting AA second half-transformation.
	Starting AB second half-transformation.
	Starting BB second half-transformation.
	Two-electron integral transformation complete.
	(VV|OV)...
	Starting AA second half-transformation.
	Starting AB second half-transformation.
	Starting BB second half-transformation.
	Two-electron integral transformation complete.
	(VV|VV)...
	Starting AA second half-transformation.
	Starting AB second half-transformation.
	Starting BB second half-transformation.
	Two-electron integral transformation complete.
	Frozen core energy     =   -391.44556540689297

	Size of irrep 0 of <AB|CD> integrals:      0.022 (MW) /      0.180 (MB)
	Size of irrep 1 of <AB|CD> integrals:      0.009 (MW) /      0.071 (MB)
	Size of irrep 2 of <AB|CD> integrals:      0.016 (MW) /      0.127 (MB)
	Size of irrep 3 of <AB|CD> integrals:      0.016 (MW) /      0.127 (MB)
	Total:                                     0.063 (MW) /      0.505 (MB)

	Size of irrep 0 of <ab|cd> integrals:      0.027 (MW) /      0.215 (MB)
	Size of irrep 1 of <ab|cd> integrals:      0.012 (MW) /      0.095 (MB)
	Size of irrep 2 of <ab|cd> integrals:      0.021 (MW) /      0.166 (MB)
	Size of irrep 3 of <ab|cd> integrals:      0.021 (MW) /      0.166 (MB)
	Total:                                     0.080 (MW) /      0.642 (MB)

	Size of irrep 0 of <Ab|Cd> integrals:      0.120 (MW) /      0.958 (MB)
	Size of irrep 1 of <Ab|Cd> integrals:      0.041 (MW) /      0.326 (MB)
	Size of irrep 2 of <Ab|Cd> integrals:      0.073 (MW) /      0.583 (MB)
	Size of irrep 3 of <Ab|Cd> integrals:      0.073 (MW) /      0.583 (MB)
	Total:                                     0.306 (MW) /      2.451 (MB)

	Size of irrep 0 of <IA|BC> integrals:      0.015 (MW) /      0.117 (MB)
	Size of irrep 1 of <IA|BC> integrals:      0.004 (MW) /      0.030 (MB)
	Size of irrep 2 of <IA|BC> integrals:      0.008 (MW) /      0.065 (MB)
	Size of irrep 3 of <IA|BC> integrals:      0.008 (MW) /      0.065 (MB)
	Total:                                     0.034 (MW) /      0.276 (MB)

	Size of irrep 0 of <ia|bc> integrals:      0.011 (MW) /      0.087 (MB)
	Size of irrep 1 of <ia|bc> integrals:      0.001 (MW) /      0.010 (MB)
	Size of irrep 2 of <ia|bc> integrals:      0.005 (MW) /      0.037 (MB)
	Size of irrep 3 of <ia|bc> integrals:      0.005 (MW) /      0.037 (MB)
	Total:                                     0.021 (MW) /      0.171 (MB)

	Size of irrep 0 of <Ia|Bc> integrals:      0.016 (MW) /      0.127 (MB)
	Size of irrep 1 of <Ia|Bc> integrals:      0.004 (MW) /      0.036 (MB)
	Size of irrep 2 of <Ia|Bc> integrals:      0.009 (MW) /      0.073 (MB)
	Size of irrep 3 of <Ia|Bc> integrals:      0.009 (MW) /      0.073 (MB)
	Total:                                     0.039 (MW) /      0.310 (MB)

	Size of irrep 0 of <iA|bC> integrals:      0.010 (MW) /      0.083 (MB)
	Size of irrep 1 of <iA|bC> integrals:      0.001 (MW) /      0.010 (MB)
	Size of irrep 2 of <iA|bC> integrals:      0.004 (MW) /      0.030 (MB)
	Size of irrep 3 of <iA|bC> integrals:      0.004 (MW) /      0.030 (MB)
	Total:                                     0.019 (MW) /      0.153 (MB)

	Size of irrep 0 of tIjAb amplitudes:       0.001 (MW) /      0.011 (MB)
	Size of irrep 1 of tIjAb amplitudes:       0.000 (MW) /      0.000 (MB)
	Size of irrep 2 of tIjAb amplitudes:       0.001 (MW) /      0.004 (MB)
	Size of irrep 3 of tIjAb amplitudes:       0.001 (MW) /      0.004 (MB)
	Total:                                     0.002 (MW) /      0.020 (MB)

	Nuclear Rep. energy          =      6.23947582872748
	SCF energy                   =   -397.75698373563381
	One-electron energy          =    -19.09250223021354
	Two-electron (AA) energy     =      2.38104832272180
	Two-electron (BB) energy     =      0.34939069709822
	Two-electron (AB) energy     =      3.81116905292519
	Two-electron energy          =      6.54160807274521
	Reference energy             =   -397.75698373563381

*** tstop() called on n412-039.vsc4.prov at Tue Jan 26 18:36:16 2021
Module time:
	user time   =       0.09 seconds =       0.00 minutes
	system time =       0.15 seconds =       0.00 minutes
	total time  =          0 seconds =       0.00 minutes
Total time:
	user time   =      16.66 seconds =       0.28 minutes
	system time =       1.72 seconds =       0.03 minutes
	total time  =          3 seconds =       0.05 minutes
            **************************
            *                        *
            *        CCENERGY        *
            *                        *
            **************************

    Nuclear Rep. energy (wfn)     =    6.239475828727483
    SCF energy          (wfn)     = -397.756983735633810
    Reference energy    (file100) = -397.756983735633810

    Input parameters:
    -----------------
    Wave function   =     CCSD_T
    Reference wfn   =     UHF
    Brueckner       =     No
    Memory (Mbytes) =     250000.0
    Maxiter         =     50
    R_Convergence   =     1.0e-07
    E_Convergence   =     1.0e-06
    Restart         =     Yes
    DIIS            =     Yes
    AO Basis        =     NONE
    ABCD            =     NEW
    Cache Level     =     2
    Cache Type      =     LRU
    Print Level     =     1
    Num. of threads =     48
    # Amps to Print =     10
    Print MP2 Amps? =     No
    Analyze T2 Amps =     No
    Print Pair Ener =     No
    Local CC        =     No
    SCS-MP2         =     False
    SCSN-MP2        =     False
    SCS-CCSD        =     False

MP2 correlation energy -0.0918053337586738
                Solving CC Amplitude Equations
                ------------------------------
  Iter             Energy              RMS        T1Diag      D1Diag    New D1Diag    D2Diag
  ----     ---------------------    ---------   ----------  ----------  ----------   --------
     0        -0.091805333758674    0.000e+00    0.000000    0.000000    0.000000    0.000000
     1        -0.109450370293357    4.980e-02    0.009051    0.000000    0.000000    0.000000
     2        -0.116062678718771    1.973e-02    0.016104    0.000000    0.000000    0.000000
     3        -0.116507401908725    5.345e-03    0.018751    0.000000    0.000000    0.000000
     4        -0.116536446660025    1.173e-03    0.019100    0.000000    0.000000    0.000000
     5        -0.116533255431287    4.407e-04    0.019217    0.000000    0.000000    0.000000
     6        -0.116531646592564    1.202e-04    0.019225    0.000000    0.000000    0.000000
     7        -0.116533862102849    2.529e-05    0.019227    0.000000    0.000000    0.000000
     8        -0.116533386953397    7.335e-06    0.019226    0.000000    0.000000    0.000000
     9        -0.116533370490323    3.200e-06    0.019226    0.000000    0.000000    0.000000
    10        -0.116533361406517    1.506e-06    0.019225    0.000000    0.000000    0.000000
    11        -0.116533387795080    4.764e-07    0.019225    0.000000    0.000000    0.000000
    12        -0.116533375680163    1.469e-07    0.019225    0.000000    0.000000    0.000000
    13        -0.116533375613897    2.856e-08    0.019225    0.000000    0.000000    0.000000

    Iterations converged.


    Largest TIA Amplitudes:
              1   1         0.0108960374
              1  10         0.0102409369
              1   5        -0.0102108326
              0   1         0.0066855929
              1   0        -0.0057761837
              3  26        -0.0053362230
              2  19        -0.0053362228
              1   8         0.0042788394
              0   5        -0.0041097027
              0   0        -0.0039343655

    Largest Tia Amplitudes:
              0   1        -0.0199764897
              1   1        -0.0144498401
              0   0         0.0140831348
              0   2        -0.0140185769
              0   5         0.0126696235
              1   0         0.0119854952
              1   2        -0.0106659159
              0  10        -0.0084270200
              0   7        -0.0064081751
              1   5         0.0057162549

    Largest TIJAB Amplitudes:
      3   2  15   4        -0.0340683553
      2   1  19   1        -0.0242194835
      3   1  26   1        -0.0242194833
      3   2  15   9        -0.0182457332
      3   2  16   4        -0.0182457332
      3   2  26  19        -0.0171867373
      2   1  19   0         0.0169642509
      3   1  26   0         0.0169642508
      3   2  28  21        -0.0152594944
      3   2  16   9        -0.0149048953

    Largest Tijab Amplitudes:
      1   0  20  18        -0.0124129634
      1   0  28  26        -0.0124129634
      1   0  31  26        -0.0076383816
      1   0  23  18        -0.0076383816
      1   0  29  26        -0.0049158170
      1   0  21  18        -0.0049158170
      1   0   5   0        -0.0048926682
      1   0   5   1         0.0037526794
      1   0  28  27        -0.0036370725
      1   0  20  19        -0.0036370725

    Largest TIjAb Amplitudes:
      2   0  15  26         0.0394129095
      2   0   4  18         0.0394129095
      3   0   4  26        -0.0394129095
      3   0  15  18         0.0394129095
      1   1   1   1        -0.0356598464
      1   1   0   1         0.0308943198
      1   1   1   2        -0.0305365715
      1   0  19  18         0.0287398258
      1   0  26  26         0.0287398257
      1   1   0   2         0.0279962425

    SCF energy       (wfn)                    = -397.756983735633810
    Reference energy (file100)                = -397.756983735633810

    Opposite-spin MP2 correlation energy      =   -0.071257356749232
    Same-spin MP2 correlation energy          =   -0.020547977009441
    Singles MP2 correlation energy            =   -0.000000000000000
    MP2 correlation energy                    =   -0.091805333758674
      * MP2 total energy                      = -397.848789069392467

    Opposite-spin CCSD correlation energy     =   -0.094342225196902
    Same-spin CCSD correlation energy         =   -0.022191150416995
    Singles CCSD correlation energy           =   -0.000000000000000
    CCSD correlation energy                   =   -0.116533375613897
      * CCSD total energy                     = -397.873517111247679

            **************************
            *                        *
            *        CCTRIPLES       *
            *                        *
            **************************


    Wave function   =    CCSD_T
    Reference wfn   =      UHF

    Nuclear Rep. energy (wfn)                =    6.239475828727483
    SCF energy          (wfn)                = -397.756983735633810
    Reference energy    (file100)            = -397.756983735633810
    CCSD energy         (file100)            =   -0.116533375613897
    Total CCSD energy   (file100)            = -397.873517111247679

    Number of ijk index combinations:
    Spin Case AAA:                                   4
    Spin Case BBB:                                   0
    Spin Case AAB:                                  12
    Spin Case ABB:                                   4
    AAA (T) energy                             =   -0.000095900969625
    BBB (T) energy                             =    0.000000000000000
    AAB (T) energy                             =   -0.001778628071522
    ABB (T) energy                             =   -0.000571810836515
    (T) energy                                   =   -0.002446339877662
      * CCSD(T) total energy                     = -397.875963451125358


    Psi4 stopped on: Tuesday, 26 January 2021 06:36PM
    Psi4 wall time for execution: 0:00:06.63

*** Psi4 exiting successfully. Buy a developer a beer!
