
    -----------------------------------------------------------------------
          Psi4: An Open-Source Ab Initio Electronic Structure Package
                               Psi4 1.4a3.dev88 

                         Git: Rev {master} 262e345 


    D. G. A. Smith, L. A. Burns, A. C. Simmonett, R. M. Parrish,
    M. C. Schieber, R. Galvelis, P. Kraus, H. Kruse, R. Di Remigio,
    A. Alenaizan, A. M. James, S. Lehtola, J. P. Misiewicz, M. Scheurer,
    R. A. Shaw, J. B. Schriber, Y. Xie, Z. L. Glick, D. A. Sirianni,
    J. S. O'Brien, J. M. Waldrop, A. Kumar, E. G. Hohenstein,
    B. P. Pritchard, B. R. Brooks, H. F. Schaefer III, A. Yu. Sokolov,
    K. Patkowski, A. E. DePrince III, U. Bozkaya, R. A. King,
    F. A. Evangelista, J. M. Turney, T. D. Crawford, C. D. Sherrill,
    J. Chem. Phys. 152(18) 184108 (2020). https://doi.org/10.1063/5.0006002

                            Additional Code Authors
    E. T. Seidl, C. L. Janssen, E. F. Valeev, M. L. Leininger,
    J. F. Gonthier, R. M. Richard, H. R. McAlexander, M. Saitow, X. Wang,
    P. Verma, and M. H. Lechner

             Previous Authors, Complete List of Code Contributors,
                       and Citations for Specific Modules
    https://github.com/psi4/psi4/blob/master/codemeta.json
    https://github.com/psi4/psi4/graphs/contributors
    http://psicode.org/psi4manual/master/introduction.html#citing-psifour

    -----------------------------------------------------------------------


    Psi4 started on: Friday, 22 January 2021 08:16AM

    Process ID: 71147
    Host:       n412-045.vsc4.prov
    PSIDATADIR: /home/fs71337/gallo4/psi4/psi4/build/stage/share/psi4
    Memory:     500.0 MiB
    Threads:    48
    
  ==> Input File <==

--------------------------------------------------------------------------
# Any line starting with the # character is a comment line
memory 250000 mb
molecule molecule{
1 3
S          0.0000000000        0.0000000000       -0.0413619065
H          0.0000000000        0.0000000000        1.3156167249
}

set {
  reference uhf
  basis aug-cc-pV(5+d)Z
  scf_type OUT_OF_CORE
  freeze_core true
}

energy('ccsd(t)')
--------------------------------------------------------------------------

  Memory set to 232.831 GiB by Python driver.

Scratch directory: /binfl/lv71337/airmler/temp/

*** tstart() called on n412-045.vsc4.prov
*** at Fri Jan 22 08:16:36 2021

   => Loading Basis Set <=

    Name: AUG-CC-PV(5+D)Z
    Role: ORBITAL
    Keyword: BASIS
    atoms 1 entry S          line  1451 file /home/fs71337/gallo4/psi4/psi4/build/stage/share/psi4/basis/aug-cc-pv_5pd_z.gbs 
    atoms 2 entry H          line    69 file /home/fs71337/gallo4/psi4/psi4/build/stage/share/psi4/basis/aug-cc-pv_5pd_z.gbs 


         ---------------------------------------------------------
                                   SCF
               by Justin Turney, Rob Parrish, Andy Simmonett
                          and Daniel G. A. Smith
                              UHF Reference
                       48 Threads, 238418 MiB Core
         ---------------------------------------------------------

  ==> Geometry <==

    Molecular point group: c2v
    Full point group: C_inf_v

    Geometry (in Angstrom), charge = 1, multiplicity = 3:

       Center              X                  Y                   Z               Mass       
    ------------   -----------------  -----------------  -----------------  -----------------
         S            0.000000000000     0.000000000000    -0.041467596634    31.972071174400
         H            0.000000000000     0.000000000000     1.315511034766     1.007825032230

  Running in c2v symmetry.

  Rotational constants: A = ************  B =      9.37009  C =      9.37009 [cm^-1]
  Rotational constants: A = ************  B = 280908.28872  C = 280908.28872 [MHz]
  Nuclear repulsion =    6.239475828727483

  Charge       = 1
  Multiplicity = 3
  Electrons    = 16
  Nalpha       = 9
  Nbeta        = 7

  ==> Algorithm <==

  SCF Algorithm Type is OUT_OF_CORE.
  DIIS enabled.
  MOM disabled.
  Fractional occupation disabled.
  Guess Type is SAD.
  Energy threshold   = 1.00e-08
  Density threshold  = 1.00e-08
  Integral threshold = 1.00e-12

  ==> Primary Basis <==

  Basis Set: AUG-CC-PV(5+D)Z
    Blend: AUG-CC-PV(5+D)Z
    Number of shells: 50
    Number of basis function: 216
    Number of Cartesian functions: 297
    Spherical Harmonics?: true
    Max angular momentum: 5

  ==> Integral Setup <==

  ==> DiskJK: Disk-Based J/K Matrices <==

    J tasked:                  Yes
    K tasked:                  Yes
    wK tasked:                  No
    Memory [MiB]:           178813
    Schwarz Cutoff:          1E-12

  Minimum eigenvalue in the overlap matrix is 2.8446582687E-05.
  Reciprocal condition number of the overlap matrix is 4.3241351434E-06.
    Using symmetric orthogonalization.

  ==> Pre-Iterations <==

  SCF Guess: Superposition of Atomic Densities via on-the-fly atomic UHF (no occupation information).


 WARNING: Atomic UHF is not converging! Try casting from a smaller basis or call Rob at CCMST.

 WARNING: Atomic UHF is not converging! Try casting from a smaller basis or call Rob at CCMST.
   -------------------------
    Irrep   Nso     Nmo    
   -------------------------
     A1        81      81 
     A2        31      31 
     B1        52      52 
     B2        52      52 
   -------------------------
    Total     216     216
   -------------------------

  ==> Iterations <==

                        Total Energy        Delta E     RMS |[F,P]|

   @UHF iter SAD:    42.44823015730000    4.24482e+01   0.00000e+00 
   @UHF iter   1:  -381.84769599293946   -4.24296e+02   1.21129e-01 DIIS
   @UHF iter   2:  -393.46639020047473   -1.16187e+01   4.21760e-02 DIIS
   @UHF iter   3:  -397.57252834893563   -4.10614e+00   8.05436e-03 DIIS
   @UHF iter   4:  -397.77017585808977   -1.97648e-01   7.03313e-04 DIIS
   @UHF iter   5:  -397.77317311272839   -2.99725e-03   1.78882e-04 DIIS
   @UHF iter   6:  -397.77347266895191   -2.99556e-04   6.67324e-05 DIIS
   @UHF iter   7:  -397.77355161700348   -7.89481e-05   1.92221e-05 DIIS
   @UHF iter   8:  -397.77355863708260   -7.02008e-06   4.27218e-06 DIIS
   @UHF iter   9:  -397.77355907164639   -4.34564e-07   1.84174e-06 DIIS
   @UHF iter  10:  -397.77355918402395   -1.12378e-07   9.18777e-07 DIIS
   @UHF iter  11:  -397.77355921830110   -3.42772e-08   2.66007e-07 DIIS
   @UHF iter  12:  -397.77355922055938   -2.25828e-09   4.60680e-08 DIIS
   @UHF iter  13:  -397.77355922061179   -5.24096e-11   9.08761e-09 DIIS
  Energy and wave function converged.


  ==> Post-Iterations <==

   @Spin Contamination Metric:   2.241120829E-02
   @S^2 Expected:                2.000000000E+00
   @S^2 Observed:                2.022411208E+00
   @S   Expected:                1.000000000E+00
   @S   Observed:                1.000000000E+00

    Orbital Energies [Eh]
    ---------------------

    Alpha Occupied:                                                       

       1A1   -92.406409     2A1    -9.401749     1B2    -7.095326  
       1B1    -7.095326     3A1    -7.073902     4A1    -1.388650  
       5A1    -0.898911     2B2    -0.835136     2B1    -0.835136  

    Alpha Virtual:                                                        

       6A1    -0.149088     7A1    -0.103675     8A1    -0.080403  
       3B2    -0.080121     3B1    -0.080121     4B1    -0.038720  
       4B2    -0.038720     9A1    -0.035215    10A1    -0.033512  
       1A2    -0.033512    11A1     0.047138     5B2     0.071544  
       5B1     0.071544    12A1     0.077214    13A1     0.115303  
       6B2     0.129180     6B1     0.129180    14A1     0.159686  
       7B2     0.168412     7B1     0.168412    15A1     0.174913  
       2A2     0.174913    16A1     0.236557     3A2     0.236557  
       8B2     0.239592     8B1     0.239592    17A1     0.315526  
       9B1     0.344463     9B2     0.344463    18A1     0.370594  
      10B2     0.403613    10B1     0.403613    19A1     0.423955  
       4A2     0.423955    20A1     0.429977    21A1     0.504891  
      22A1     0.742542    11B2     0.761639    11B1     0.761639  
      12B2     0.799135    12B1     0.799135    13B1     0.803908  
      13B2     0.803908     5A2     0.811748    23A1     0.811748  
      24A1     0.818953     6A2     0.818953    25A1     0.823456  
      26A1     0.874702     7A2     0.874702    14B2     0.881117  
      14B1     0.881117    15B1     0.893261    15B2     0.893261  
      27A1     0.969308    16B2     0.981448    16B1     0.981448  
      28A1     1.001130     8A2     1.001130    29A1     1.013105  
      17B2     1.125342    17B1     1.125342    18B2     1.167032  
      18B1     1.167032    30A1     1.198324    31A1     1.204904  
       9A2     1.204904    32A1     1.291361    19B2     1.502315  
      19B1     1.502315    33A1     1.546231    34A1     1.880253  
      35A1     1.988149    10A2     1.988149    20B2     2.005207  
      20B1     2.005207    21B2     2.135998    21B1     2.135998  
      36A1     2.137475    22B1     2.214427    22B2     2.214427  
      11A2     2.226673    37A1     2.226673    38A1     2.281173  
      12A2     2.308131    39A1     2.308131    23B1     2.345066  
      23B2     2.345066    13A2     2.354982    40A1     2.354982  
      24B1     2.374591    24B2     2.374591    41A1     2.383904  
      14A2     2.383904    25B2     2.385722    25B1     2.385722  
      42A1     2.456103    26B2     2.552191    26B1     2.552191  
      15A2     2.556124    43A1     2.556124    27B1     2.612582  
      27B2     2.612582    44A1     2.676074    28B2     2.788818  
      28B1     2.788818    45A1     2.882203    16A2     2.923396  
      46A1     2.923396    47A1     2.927922    17A2     2.927922  
      48A1     3.220148    29B2     3.252327    29B1     3.252327  
      30B1     3.352177    30B2     3.352177    18A2     3.408373  
      49A1     3.408373    50A1     3.615247    31B2     3.694439  
      31B1     3.694439    51A1     3.889781    32B2     3.922904  
      32B1     3.922904    33B2     4.180414    33B1     4.180414  
      52A1     4.740586    19A2     4.740586    34B1     4.855921  
      34B2     4.855921    53A1     4.898727    35B1     4.981889  
      35B2     4.981889    54A1     5.018973    20A2     5.068096  
      55A1     5.068096    36B1     5.163843    36B2     5.163843  
      21A2     5.466019    56A1     5.466019    57A1     5.472518  
      58A1     5.664377    37B1     5.666332    37B2     5.666332  
      59A1     5.736119    22A2     5.736119    60A1     5.740921  
      61A1     5.746868    23A2     5.746868    38B2     5.768895  
      38B1     5.768895    39B1     5.772615    39B2     5.772615  
      40B1     5.866842    40B2     5.866842    24A2     5.896851  
      62A1     5.896851    25A2     5.963284    63A1     5.963284  
      41B1     6.026269    41B2     6.026269    64A1     6.079560  
      42B1     6.513953    42B2     6.513953    65A1     6.599455  
      26A2     6.637916    66A1     6.637916    43B1     6.797565  
      43B2     6.797565    67A1     7.554921    44B1     7.697484  
      44B2     7.697484    68A1     9.304274    45B2    12.646466  
      45B1    12.646466    69A1    12.805855    27A2    12.805855  
      46B1    12.968191    46B2    12.968191    28A2    13.018952  
      70A1    13.018952    47B1    13.174367    47B2    13.174367  
      71A1    13.398780    29A2    13.451378    72A1    13.451378  
      73A1    13.606597    48B1    13.973449    48B2    13.973449  
      74A1    14.079514    30A2    14.079514    75A1    14.159216  
      49B1    14.726114    49B2    14.726114    31A2    15.884788  
      76A1    15.884788    77A1    16.148695    50B1    16.372472  
      50B2    16.372472    78A1    16.664135    51B2    17.295130  
      51B1    17.295130    79A1    18.621887    52B2    24.911118  
      52B1    24.911118    80A1    27.900926    81A1    67.187629  

    Beta Occupied:                                                        

       1A1   -92.384345     2A1    -9.379857     3A1    -7.062609  
       1B1    -7.042560     1B2    -7.042560     4A1    -1.189724  
       5A1    -0.860075  

    Beta Virtual:                                                         

       2B1    -0.300620     2B2    -0.300620     6A1    -0.132942  
       7A1    -0.084777     8A1    -0.078849     3B1    -0.067854  
       3B2    -0.067854     9A1    -0.030111     4B1    -0.020852  
       4B2    -0.020852     1A2    -0.000817    10A1    -0.000817  
      11A1     0.054803     5B1     0.079270     5B2     0.079270  
      12A1     0.084607    13A1     0.118239     6B1     0.159497  
       6B2     0.159497    14A1     0.169215     7B1     0.206737  
       7B2     0.206737     2A2     0.240741    15A1     0.240741  
       8B1     0.246437     8B2     0.246437     3A2     0.264767  
      16A1     0.264767    17A1     0.325274     9B2     0.352043  
       9B1     0.352043    18A1     0.376257    10B1     0.412601  
      10B2     0.412601     4A2     0.431853    19A1     0.431853  
      20A1     0.447069    21A1     0.514290    22A1     0.752807  
      11B1     0.788636    11B2     0.788636    12B1     0.811269  
      12B2     0.811269     5A2     0.821157    23A1     0.821157  
      24A1     0.840201    13B1     0.841465    13B2     0.841465  
       6A2     0.884967    25A1     0.884967     7A2     0.900963  
      26A1     0.900963    14B1     0.919948    14B2     0.919948  
      15B1     0.922730    15B2     0.922730    27A1     0.972914  
      16B2     0.989697    16B1     0.989697     8A2     1.013507  
      28A1     1.013507    29A1     1.021422    17B1     1.131582  
      17B2     1.131582    18B2     1.170289    18B1     1.170289  
      30A1     1.207164     9A2     1.207164    31A1     1.210511  
      32A1     1.303179    19B1     1.525050    19B2     1.525050  
      33A1     1.550620    34A1     1.910450    10A2     1.997296  
      35A1     1.997296    20B1     2.013401    20B2     2.013401  
      21B1     2.152073    21B2     2.152073    36A1     2.153576  
      11A2     2.270842    37A1     2.270842    22B1     2.279904  
      22B2     2.279904    38A1     2.295027    12A2     2.325821  
      39A1     2.325821    23B1     2.375045    23B2     2.375045  
      13A2     2.390616    40A1     2.390616    24B2     2.394330  
      24B1     2.394330    25B1     2.411906    25B2     2.411906  
      14A2     2.423554    41A1     2.423554    42A1     2.466953  
      26B1     2.566390    26B2     2.566390    15A2     2.573435  
      43A1     2.573435    27B1     2.625461    27B2     2.625461  
      44A1     2.687932    28B1     2.805088    28B2     2.805088  
      45A1     2.889954    16A2     2.928919    46A1     2.928919  
      47A1     2.933939    17A2     2.933939    48A1     3.221968  
      29B1     3.260169    29B2     3.260169    30B1     3.353949  
      30B2     3.353949    18A2     3.416019    49A1     3.416019  
      50A1     3.617864    31B1     3.730714    31B2     3.730714  
      51A1     3.897680    32B1     3.941798    32B2     3.941798  
      33B2     4.186498    33B1     4.186498    19A2     4.756018  
      52A1     4.756018    34B1     4.864441    34B2     4.864441  
      53A1     4.911001    35B1     5.027424    35B2     5.027424  
      54A1     5.030259    20A2     5.090881    55A1     5.090881  
      36B1     5.181867    36B2     5.181867    56A1     5.481376  
      21A2     5.489601    57A1     5.489601    37B1     5.672368  
      37B2     5.672368    58A1     5.683903    59A1     5.747562  
      22A2     5.747562    60A1     5.764230    38B1     5.792890  
      38B2     5.792890    61A1     5.796902    23A2     5.796902  
      39B2     5.806637    39B1     5.806637    40B1     5.906496  
      40B2     5.906496    24A2     5.928312    62A1     5.928312  
      25A2     5.984959    63A1     5.984959    41B1     6.050727  
      41B2     6.050727    64A1     6.089029    42B1     6.524895  
      42B2     6.524895    65A1     6.607072    26A2     6.657109  
      66A1     6.657109    43B1     6.805318    43B2     6.805318  
      67A1     7.562580    44B1     7.709667    44B2     7.709667  
      68A1     9.310577    45B2    12.645541    45B1    12.645541  
      69A1    12.805544    27A2    12.805544    46B1    12.968475  
      46B2    12.968475    28A2    13.019126    70A1    13.019126  
      47B1    13.174180    47B2    13.174180    71A1    13.397733  
      29A2    13.451455    72A1    13.451455    73A1    13.606028  
      48B1    13.972761    48B2    13.972761    74A1    14.078256  
      30A2    14.078256    75A1    14.156547    49B1    14.727174  
      49B2    14.727174    31A2    15.912836    76A1    15.912836  
      77A1    16.150183    50B1    16.387903    50B2    16.387903  
      78A1    16.674050    51B1    17.293673    51B2    17.293673  
      79A1    18.620724    52B2    24.948695    52B1    24.948695  
      80A1    27.908767    81A1    67.201950  

    Final Occupation by Irrep:
             A1    A2    B1    B2 
    DOCC [     5,    0,    1,    1 ]
    SOCC [     0,    0,    1,    1 ]

  @UHF Final Energy:  -397.77355922061179

   => Energetics <=

    Nuclear Repulsion Energy =              6.2394758287274827
    One-Electron Energy =                -556.0337954991080096
    Two-Electron Energy =                 152.0207604497688010
    Total Energy =                       -397.7735592206117872

  UHF NO Occupations:
  HONO-2 :    5 A1 1.9898507
  HONO-1 :    2 B2 1.0000000
  HONO-0 :    2 B1 1.0000000
  LUNO+0 :    6 A1 0.0101493
  LUNO+1 :    7 A1 0.0010958
  LUNO+2 :    3 B2 0.0000058
  LUNO+3 :    3 B1 0.0000058


Computation Completed


Properties will be evaluated at   0.000000,   0.000000,   0.000000 [a0]

Properties computed using the SCF density matrix

  Nuclear Dipole Moment: [e a0]
     X:     0.0000      Y:     0.0000      Z:     1.2322

  Electronic Dipole Moment: [e a0]
     X:     0.0000      Y:     0.0000      Z:    -0.7092

  Dipole Moment: [e a0]
     X:     0.0000      Y:     0.0000      Z:     0.5230     Total:     0.5230

  Dipole Moment: [D]
     X:     0.0000      Y:     0.0000      Z:     1.3293     Total:     1.3293


*** tstop() called on n412-045.vsc4.prov at Fri Jan 22 08:18:16 2021
Module time:
	user time   =     154.27 seconds =       2.57 minutes
	system time =      11.17 seconds =       0.19 minutes
	total time  =        100 seconds =       1.67 minutes
Total time:
	user time   =     154.27 seconds =       2.57 minutes
	system time =      11.17 seconds =       0.19 minutes
	total time  =        100 seconds =       1.67 minutes

*** tstart() called on n412-045.vsc4.prov
*** at Fri Jan 22 08:18:16 2021


	Wfn Parameters:
	--------------------
	Wavefunction         = CCSD_T
	Number of irreps     = 4
	Number of MOs        = 216
	Number of active MOs = 211
	AO-Basis             = NONE
	Semicanonical        = false
	Reference            = UHF
	Print Level          = 1

	IRREP	# MOs	# FZDC	# DOCC	# SOCC	# VIRT	# FZVR
	-----	-----	------	------	------	------	------
	 A1	   81	    3	    2	    0	    76	    0
	 A2	   31	    0	    0	    0	    31	    0
	 B1	   52	    1	    0	    1	    50	    0
	 B2	   52	    1	    0	    1	    50	    0
	Transforming integrals...
	IWL integrals will be deleted.
	(OO|OO)...
	Presorting SO-basis two-electron integrals.
	Sorting File: SO Ints (nn|nn) nbuckets = 1
	Constructing frozen core operators
	Starting AA/AB first half-transformation.
	Sorting AA/AB half-transformed integrals.
	Starting BB first half-transformation.
	Sorting BB half-transformed integrals.
	First half integral transformation complete.
	Starting AA second half-transformation.
	Starting AB second half-transformation.
	Starting BB second half-transformation.
	Two-electron integral transformation complete.
	(OO|OV)...
	Starting AA second half-transformation.
	Starting AB second half-transformation.
	Starting BB second half-transformation.
	Two-electron integral transformation complete.
	(OO|VV)...
	Starting AA second half-transformation.
	Starting AB second half-transformation.
	Starting BB second half-transformation.
	Two-electron integral transformation complete.
	(OV|OO)...
	Starting AA/AB first half-transformation.
	Sorting AA/AB half-transformed integrals.
	Starting BB first half-transformation.
	Sorting BB half-transformed integrals.
	First half integral transformation complete.
	Starting AA second half-transformation.
	Starting AB second half-transformation.
	Starting BB second half-transformation.
	Two-electron integral transformation complete.
	(OV|OV)...
	Starting AA second half-transformation.
	Starting AB second half-transformation.
	Starting BB second half-transformation.
	Two-electron integral transformation complete.
	(OV|VV)...
	Starting AA second half-transformation.
	Starting AB second half-transformation.
	Starting BB second half-transformation.
	Two-electron integral transformation complete.
	(VV|OO)...
	Starting AA/AB first half-transformation.
	Sorting AA/AB half-transformed integrals.
	Starting BB first half-transformation.
	Sorting BB half-transformed integrals.
	First half integral transformation complete.
	Starting AA second half-transformation.
	Starting AB second half-transformation.
	Starting BB second half-transformation.
	Two-electron integral transformation complete.
	(VV|OV)...
	Starting AA second half-transformation.
	Starting AB second half-transformation.
	Starting BB second half-transformation.
	Two-electron integral transformation complete.
	(VV|VV)...
	Starting AA second half-transformation.
	Starting AB second half-transformation.
	Starting BB second half-transformation.
	Two-electron integral transformation complete.
	Frozen core energy     =   -391.45356743359105

	Size of irrep 0 of <AB|CD> integrals:     33.235 (MW) /    265.882 (MB)
	Size of irrep 1 of <AB|CD> integrals:     23.581 (MW) /    188.646 (MB)
	Size of irrep 2 of <AB|CD> integrals:     28.622 (MW) /    228.980 (MB)
	Size of irrep 3 of <AB|CD> integrals:     28.622 (MW) /    228.980 (MB)
	Total:                                   114.061 (MW) /    912.488 (MB)

	Size of irrep 0 of <ab|cd> integrals:     34.398 (MW) /    275.186 (MB)
	Size of irrep 1 of <ab|cd> integrals:     24.572 (MW) /    196.575 (MB)
	Size of irrep 2 of <ab|cd> integrals:     29.779 (MW) /    238.231 (MB)
	Size of irrep 3 of <ab|cd> integrals:     29.779 (MW) /    238.231 (MB)
	Total:                                   118.528 (MW) /    948.222 (MB)

	Size of irrep 0 of <Ab|Cd> integrals:    140.115 (MW) /   1120.917 (MB)
	Size of irrep 1 of <Ab|Cd> integrals:     96.275 (MW) /    770.203 (MB)
	Size of irrep 2 of <Ab|Cd> integrals:    116.791 (MW) /    934.330 (MB)
	Size of irrep 3 of <Ab|Cd> integrals:    116.791 (MW) /    934.330 (MB)
	Total:                                   469.972 (MW) /   3759.779 (MB)

	Size of irrep 0 of <IA|BC> integrals:      2.958 (MW) /     23.662 (MB)
	Size of irrep 1 of <IA|BC> integrals:      1.573 (MW) /     12.587 (MB)
	Size of irrep 2 of <IA|BC> integrals:      2.215 (MW) /     17.719 (MB)
	Size of irrep 3 of <IA|BC> integrals:      2.215 (MW) /     17.719 (MB)
	Total:                                     8.961 (MW) /     71.687 (MB)

	Size of irrep 0 of <ia|bc> integrals:      1.815 (MW) /     14.518 (MB)
	Size of irrep 1 of <ia|bc> integrals:      0.615 (MW) /      4.917 (MB)
	Size of irrep 2 of <ia|bc> integrals:      1.113 (MW) /      8.906 (MB)
	Size of irrep 3 of <ia|bc> integrals:      1.113 (MW) /      8.906 (MB)
	Total:                                     4.656 (MW) /     37.247 (MB)

	Size of irrep 0 of <Ia|Bc> integrals:      3.007 (MW) /     24.053 (MB)
	Size of irrep 1 of <Ia|Bc> integrals:      1.609 (MW) /     12.873 (MB)
	Size of irrep 2 of <Ia|Bc> integrals:      2.259 (MW) /     18.069 (MB)
	Size of irrep 3 of <Ia|Bc> integrals:      2.259 (MW) /     18.069 (MB)
	Total:                                     9.133 (MW) /     73.065 (MB)

	Size of irrep 0 of <iA|bC> integrals:      1.799 (MW) /     14.394 (MB)
	Size of irrep 1 of <iA|bC> integrals:      0.608 (MW) /      4.867 (MB)
	Size of irrep 2 of <iA|bC> integrals:      1.081 (MW) /      8.646 (MB)
	Size of irrep 3 of <iA|bC> integrals:      1.081 (MW) /      8.646 (MB)
	Total:                                     4.569 (MW) /     36.552 (MB)

	Size of irrep 0 of tIjAb amplitudes:       0.047 (MW) /      0.379 (MB)
	Size of irrep 1 of tIjAb amplitudes:       0.000 (MW) /      0.000 (MB)
	Size of irrep 2 of tIjAb amplitudes:       0.022 (MW) /      0.173 (MB)
	Size of irrep 3 of tIjAb amplitudes:       0.022 (MW) /      0.173 (MB)
	Total:                                     0.091 (MW) /      0.725 (MB)

	Nuclear Rep. energy          =      6.23947582872748
	SCF energy                   =   -397.77355922061179
	One-electron energy          =    -19.11130288259923
	Two-electron (AA) energy     =      2.38380705956399
	Two-electron (BB) energy     =      0.34977297821278
	Two-electron (AB) energy     =      3.81825522907351
	Two-electron energy          =      6.55183526685028
	Reference energy             =   -397.77355922061253

*** tstop() called on n412-045.vsc4.prov at Fri Jan 22 08:21:04 2021
Module time:
	user time   =      52.74 seconds =       0.88 minutes
	system time =      34.78 seconds =       0.58 minutes
	total time  =        168 seconds =       2.80 minutes
Total time:
	user time   =     207.01 seconds =       3.45 minutes
	system time =      45.95 seconds =       0.77 minutes
	total time  =        268 seconds =       4.47 minutes
            **************************
            *                        *
            *        CCENERGY        *
            *                        *
            **************************

    Nuclear Rep. energy (wfn)     =    6.239475828727483
    SCF energy          (wfn)     = -397.773559220611787
    Reference energy    (file100) = -397.773559220612526

    Input parameters:
    -----------------
    Wave function   =     CCSD_T
    Reference wfn   =     UHF
    Brueckner       =     No
    Memory (Mbytes) =     250000.0
    Maxiter         =     50
    R_Convergence   =     1.0e-07
    E_Convergence   =     1.0e-06
    Restart         =     Yes
    DIIS            =     Yes
    AO Basis        =     NONE
    ABCD            =     NEW
    Cache Level     =     2
    Cache Type      =     LRU
    Print Level     =     1
    Num. of threads =     48
    # Amps to Print =     10
    Print MP2 Amps? =     No
    Analyze T2 Amps =     No
    Print Pair Ener =     No
    Local CC        =     No
    SCS-MP2         =     False
    SCSN-MP2        =     False
    SCS-CCSD        =     False

MP2 correlation energy -0.1289320782557193
                Solving CC Amplitude Equations
                ------------------------------
  Iter             Energy              RMS        T1Diag      D1Diag    New D1Diag    D2Diag
  ----     ---------------------    ---------   ----------  ----------  ----------   --------
     0        -0.128932078255719    0.000e+00    0.000000    0.000000    0.000000    0.000000
     1        -0.143827504452304    4.847e-02    0.010922    0.000000    0.000000    0.000000
     2        -0.150563311990514    1.923e-02    0.017966    0.000000    0.000000    0.000000
     3        -0.150833230475017    5.058e-03    0.020355    0.000000    0.000000    0.000000
     4        -0.150858182059408    1.408e-03    0.020861    0.000000    0.000000    0.000000
     5        -0.150854650823879    5.060e-04    0.020995    0.000000    0.000000    0.000000
     6        -0.150852640478861    1.585e-04    0.021020    0.000000    0.000000    0.000000
     7        -0.150854377099360    4.822e-05    0.021024    0.000000    0.000000    0.000000
     8        -0.150854636371778    1.353e-05    0.021026    0.000000    0.000000    0.000000
     9        -0.150854388129135    5.389e-06    0.021026    0.000000    0.000000    0.000000
    10        -0.150854385796253    2.329e-06    0.021026    0.000000    0.000000    0.000000
    11        -0.150854384920973    8.951e-07    0.021026    0.000000    0.000000    0.000000
    12        -0.150854408212096    2.553e-07    0.021026    0.000000    0.000000    0.000000
    13        -0.150854407621574    7.709e-08    0.021026    0.000000    0.000000    0.000000

    Iterations converged.


    Largest TIA Amplitudes:
              1   1        -0.0123894584
              1   0        -0.0099446938
              0   1         0.0078480786
              1  11         0.0077982569
              1  19        -0.0072411373
              1   8         0.0066971433
              2 108         0.0048233095
              3 158         0.0048233095
              1  16        -0.0048157748
              0   8        -0.0047816399

    Largest Tia Amplitudes:
              0   1         0.0248288860
              0   0         0.0175266990
              1   1         0.0131089293
              0   6         0.0122981714
              0   5         0.0104781154
              1   0         0.0086943951
              0  18         0.0084075552
              1   5         0.0081842547
              0   8        -0.0064239963
              0  11        -0.0061914343

    Largest TIJAB Amplitudes:
      3   2  77   9        -0.0232106126
      3   2  76   9        -0.0196854375
      3   2  77   4        -0.0196854375
      3   2  76   4        -0.0175774316
      3   1 161   1         0.0171492849
      2   1 111   1         0.0171492849
      3   1 158   1        -0.0160181288
      2   1 108   1        -0.0160181288
      3   1 161   0         0.0133384957
      2   1 111   0         0.0133384956

    Largest Tijab Amplitudes:
      1   0 112 107        -0.0115216223
      1   0 163 158        -0.0115216222
      1   0 109 107         0.0082706740
      1   0 160 158         0.0082706740
      1   0 118 107        -0.0040857323
      1   0 169 158        -0.0040857323
      1   0 116 107         0.0040135489
      1   0 167 158         0.0040135489
      1   0 115 107         0.0039472304
      1   0 166 158         0.0039472304

    Largest TIjAb Amplitudes:
      1   1   1   1        -0.0369420330
      1   1   0   1        -0.0369101491
      2   0   9 107        -0.0316890914
      3   0  77 107        -0.0316890913
      2   0  77 158        -0.0316890913
      3   0   9 158         0.0316890913
      2   0   4 107        -0.0264436207
      3   0  76 107        -0.0264436207
      2   0  76 158        -0.0264436206
      3   0   4 158         0.0264436206

    SCF energy       (wfn)                    = -397.773559220611787
    Reference energy (file100)                = -397.773559220612526

    Opposite-spin MP2 correlation energy      =   -0.102746079392924
    Same-spin MP2 correlation energy          =   -0.026185998862795
    Singles MP2 correlation energy            =   -0.000000000000000
    MP2 correlation energy                    =   -0.128932078255719
      * MP2 total energy                      = -397.902491298868256

    Opposite-spin CCSD correlation energy     =   -0.122845378141223
    Same-spin CCSD correlation energy         =   -0.028009029480366
    Singles CCSD correlation energy           =    0.000000000000015
    CCSD correlation energy                   =   -0.150854407621574
      * CCSD total energy                     = -397.924413628234106

            **************************
            *                        *
            *        CCTRIPLES       *
            *                        *
            **************************


    Wave function   =    CCSD_T
    Reference wfn   =      UHF

    Nuclear Rep. energy (wfn)                =    6.239475828727483
    SCF energy          (wfn)                = -397.773559220611787
    Reference energy    (file100)            = -397.773559220612526
    CCSD energy         (file100)            =   -0.150854407621574
    Total CCSD energy   (file100)            = -397.924413628234106

    Number of ijk index combinations:
    Spin Case AAA:                                   4
    Spin Case BBB:                                   0
    Spin Case AAB:                                  12
    Spin Case ABB:                                   4
    AAA (T) energy                             =   -0.000276389133242
    BBB (T) energy                             =    0.000000000000000
    AAB (T) energy                             =   -0.004156779354895
    ABB (T) energy                             =   -0.000986001742837
    (T) energy                                   =   -0.005419170230974
      * CCSD(T) total energy                     = -397.929832798465100


    Psi4 stopped on: Friday, 22 January 2021 08:23AM
    Psi4 wall time for execution: 0:06:58.53

*** Psi4 exiting successfully. Buy a developer a beer!
