
    -----------------------------------------------------------------------
          Psi4: An Open-Source Ab Initio Electronic Structure Package
                               Psi4 1.4a3.dev88 

                         Git: Rev {master} 262e345 


    D. G. A. Smith, L. A. Burns, A. C. Simmonett, R. M. Parrish,
    M. C. Schieber, R. Galvelis, P. Kraus, H. Kruse, R. Di Remigio,
    A. Alenaizan, A. M. James, S. Lehtola, J. P. Misiewicz, M. Scheurer,
    R. A. Shaw, J. B. Schriber, Y. Xie, Z. L. Glick, D. A. Sirianni,
    J. S. O'Brien, J. M. Waldrop, A. Kumar, E. G. Hohenstein,
    B. P. Pritchard, B. R. Brooks, H. F. Schaefer III, A. Yu. Sokolov,
    K. Patkowski, A. E. DePrince III, U. Bozkaya, R. A. King,
    F. A. Evangelista, J. M. Turney, T. D. Crawford, C. D. Sherrill,
    J. Chem. Phys. 152(18) 184108 (2020). https://doi.org/10.1063/5.0006002

                            Additional Code Authors
    E. T. Seidl, C. L. Janssen, E. F. Valeev, M. L. Leininger,
    J. F. Gonthier, R. M. Richard, H. R. McAlexander, M. Saitow, X. Wang,
    P. Verma, and M. H. Lechner

             Previous Authors, Complete List of Code Contributors,
                       and Citations for Specific Modules
    https://github.com/psi4/psi4/blob/master/codemeta.json
    https://github.com/psi4/psi4/graphs/contributors
    http://psicode.org/psi4manual/master/introduction.html#citing-psifour

    -----------------------------------------------------------------------


    Psi4 started on: Thursday, 21 January 2021 12:34PM

    Process ID: 415492
    Host:       n412-045.vsc4.prov
    PSIDATADIR: /home/fs71337/gallo4/psi4/psi4/build/stage/share/psi4
    Memory:     500.0 MiB
    Threads:    48
    
  ==> Input File <==

--------------------------------------------------------------------------
# Any line starting with the # character is a comment line
memory 250000 mb
molecule molecule{
0 2
Cl         0.0000000000        0.0000000000       -0.4834702805
O          0.0000000000        0.0000000000        1.0713196655
}

set {
  reference uhf
  basis aug-cc-pV(5+d)Z
  scf_type OUT_OF_CORE
  freeze_core true
}

energy('ccsd(t)')
--------------------------------------------------------------------------

  Memory set to 232.831 GiB by Python driver.

Scratch directory: /binfl/lv71337/airmler/temp/

*** tstart() called on n412-045.vsc4.prov
*** at Thu Jan 21 12:34:53 2021

   => Loading Basis Set <=

    Name: AUG-CC-PV(5+D)Z
    Role: ORBITAL
    Keyword: BASIS
    atoms 1 entry CL         line  1572 file /home/fs71337/gallo4/psi4/psi4/build/stage/share/psi4/basis/aug-cc-pv_5pd_z.gbs 
    atoms 2 entry O          line   568 file /home/fs71337/gallo4/psi4/psi4/build/stage/share/psi4/basis/aug-cc-pv_5pd_z.gbs 


         ---------------------------------------------------------
                                   SCF
               by Justin Turney, Rob Parrish, Andy Simmonett
                          and Daniel G. A. Smith
                              UHF Reference
                       48 Threads, 238418 MiB Core
         ---------------------------------------------------------

  ==> Geometry <==

    Molecular point group: c2v
    Full point group: C_inf_v

    Geometry (in Angstrom), charge = 0, multiplicity = 2:

       Center              X                  Y                   Z               Mass       
    ------------   -----------------  -----------------  -----------------  -----------------
         CL           0.000000000000     0.000000000000    -0.487968879743    34.968852682000
         O            0.000000000000     0.000000000000     1.066821066257    15.994914619570

  Running in c2v symmetry.

  Rotational constants: A = ************  B =      0.63541  C =      0.63541 [cm^-1]
  Rotational constants: A = ************  B =  19048.99056  C =  19048.99056 [MHz]
  Nuclear repulsion =   46.287989471678785

  Charge       = 0
  Multiplicity = 2
  Electrons    = 25
  Nalpha       = 13
  Nbeta        = 12

  ==> Algorithm <==

  SCF Algorithm Type is OUT_OF_CORE.
  DIIS enabled.
  MOM disabled.
  Fractional occupation disabled.
  Guess Type is SAD.
  Energy threshold   = 1.00e-08
  Density threshold  = 1.00e-08
  Integral threshold = 1.00e-12

  ==> Primary Basis <==

  Basis Set: AUG-CC-PV(5+D)Z
    Blend: AUG-CC-PV(5+D)Z
    Number of shells: 57
    Number of basis function: 263
    Number of Cartesian functions: 374
    Spherical Harmonics?: true
    Max angular momentum: 5

  ==> Integral Setup <==

  ==> DiskJK: Disk-Based J/K Matrices <==

    J tasked:                  Yes
    K tasked:                  Yes
    wK tasked:                  No
    Memory [MiB]:           178813
    Schwarz Cutoff:          1E-12

  Minimum eigenvalue in the overlap matrix is 3.2089312126E-05.
  Reciprocal condition number of the overlap matrix is 5.0947715908E-06.
    Using symmetric orthogonalization.

  ==> Pre-Iterations <==

  SCF Guess: Superposition of Atomic Densities via on-the-fly atomic UHF (no occupation information).


 WARNING: Atomic UHF is not converging! Try casting from a smaller basis or call Rob at CCMST.

 WARNING: Atomic UHF is not converging! Try casting from a smaller basis or call Rob at CCMST.
   -------------------------
    Irrep   Nso     Nmo    
   -------------------------
     A1        96      96 
     A2        39      39 
     B1        64      64 
     B2        64      64 
   -------------------------
    Total     263     263
   -------------------------

  ==> Iterations <==

                        Total Energy        Delta E     RMS |[F,P]|

   @UHF iter SAD:   193.19591164500366    1.93196e+02   0.00000e+00 
   @UHF iter   1:  -523.05468763619001   -7.16251e+02   4.91449e-02 DIIS
   @UHF iter   2:  -520.22074950073898    2.83394e+00   3.07799e-02 DIIS
   @UHF iter   3:  -526.54184971232985   -6.32110e+00   2.69823e-02 DIIS
   @UHF iter   4:  -533.96200956320786   -7.42016e+00   6.50273e-03 DIIS
   @UHF iter   5:  -534.26630831230773   -3.04299e-01   2.24070e-03 DIIS
   @UHF iter   6:  -534.29996336240561   -3.36551e-02   7.60197e-04 DIIS
   @UHF iter   7:  -534.30981297792300   -9.84962e-03   3.76686e-04 DIIS
   @UHF iter   8:  -534.31522218199132   -5.40920e-03   1.83067e-04 DIIS
   @UHF iter   9:  -534.31752061716315   -2.29844e-03   1.07637e-04 DIIS
   @UHF iter  10:  -534.31834277661119   -8.22159e-04   2.98950e-05 DIIS
   @UHF iter  11:  -534.31837147811495   -2.87015e-05   1.23538e-05 DIIS
   @UHF iter  12:  -534.31837788335656   -6.40524e-06   7.07785e-06 DIIS
   @UHF iter  13:  -534.31837890612542   -1.02277e-06   3.34381e-06 DIIS
   @UHF iter  14:  -534.31837932132385   -4.15198e-07   1.98164e-06 DIIS
   @UHF iter  15:  -534.31837949892133   -1.77597e-07   9.50163e-07 DIIS
   @UHF iter  16:  -534.31837954301682   -4.40955e-08   2.99812e-07 DIIS
   @UHF iter  17:  -534.31837954690195   -3.88513e-09   1.28726e-07 DIIS
   @UHF iter  18:  -534.31837954747550   -5.73550e-10   2.68643e-08 DIIS
   @UHF iter  19:  -534.31837954749540   -1.98952e-11   9.27387e-09 DIIS
  Energy and wave function converged.


  ==> Post-Iterations <==

   @Spin Contamination Metric:   2.017103947E-02
   @S^2 Expected:                7.500000000E-01
   @S^2 Observed:                7.701710395E-01
   @S   Expected:                5.000000000E-01
   @S   Observed:                5.000000000E-01

    Orbital Energies [Eh]
    ---------------------

    Alpha Occupied:                                                       

       1A1  -104.918507     2A1   -20.694098     3A1   -10.639133  
       1B1    -8.107963     4A1    -8.104492     1B2    -8.103157  
       5A1    -1.489929     6A1    -1.063214     2B1    -0.743328  
       2B2    -0.673106     7A1    -0.672317     3B1    -0.489261  
       3B2    -0.454508  

    Alpha Virtual:                                                        

       8A1     0.053451     9A1     0.068054     4B1     0.081047  
       4B2     0.083122    10A1     0.126948     5B1     0.130891  
       5B2     0.134078    11A1     0.144732     1A2     0.227450  
      12A1     0.227466    13A1     0.242342     6B1     0.277751  
       6B2     0.282318    14A1     0.308687     7B1     0.354383  
       7B2     0.359449    15A1     0.401711    16A1     0.444469  
       2A2     0.447514    17A1     0.450811     8B1     0.487912  
       8B2     0.498483     9B1     0.548523     9B2     0.565051  
      18A1     0.570595     3A2     0.570719    19A1     0.594812  
      10B1     0.606151    10B2     0.606157    20A1     0.637816  
      11B1     0.656478    11B2     0.663367    21A1     0.708806  
       4A2     0.708866    22A1     0.722135    12B1     0.845873  
      12B2     0.853159    23A1     0.940937    13B1     1.033789  
      13B2     1.033794    24A1     1.097759    25A1     1.157859  
       5A2     1.158125    14B1     1.175207    14B2     1.185648  
      26A1     1.244415     6A2     1.264918    27A1     1.264999  
      15B1     1.313670    28A1     1.327300    15B2     1.328158  
       7A2     1.330973    29A1     1.330980     8A2     1.392430  
      30A1     1.392675    16B1     1.441113    16B2     1.449819  
      17B1     1.465580    17B2     1.465755    31A1     1.467175  
      18B1     1.513636    18B2     1.513775    19B1     1.523810  
      19B2     1.555426     9A2     1.577147    32A1     1.577171  
      33A1     1.628783    20B1     1.670437    20B2     1.684123  
      34A1     1.761470    21B1     1.761967    21B2     1.774035  
      10A2     1.864368    35A1     1.865050    36A1     1.971556  
      37A1     2.385600    22B1     2.387597    22B2     2.415202  
      38A1     2.613450    11A2     2.613450    39A1     2.648861  
      23B1     2.788111    23B2     2.788138    40A1     2.862364  
      12A2     2.862481    24B1     2.940842    24B2     2.940858  
      41A1     2.955932    13A2     2.956682    25B1     2.983481  
      25B2     3.004576    42A1     3.033893    26B1     3.109844  
      26B2     3.126253    43A1     3.157647    27B1     3.208530  
      27B2     3.223911    28B1     3.223939    28B2     3.228394  
      44A1     3.263218    14A2     3.273148    45A1     3.273149  
      15A2     3.320954    46A1     3.320992    16A2     3.345792  
      47A1     3.346161    29B1     3.379410    29B2     3.379428  
      30B1     3.406105    30B2     3.406105    48A1     3.501374  
      17A2     3.501374    31B1     3.550706    49A1     3.558348  
      31B2     3.572147    18A2     3.594568    50A1     3.596625  
      32B1     3.655336    32B2     3.670780    51A1     3.713277  
      19A2     3.797265    52A1     3.797805    33B1     3.959458  
      33B2     3.959463    34B1     4.129120    34B2     4.149408  
      53A1     4.221338    54A1     4.513068    55A1     4.524335  
      20A2     4.696086    56A1     4.696947    35B1     4.757006  
      35B2     4.774912    36B1     5.241475    36B2     5.268190  
      37B1     5.360154    37B2     5.413981    57A1     5.860875  
      38B1     6.157629    38B2     6.157629    58A1     6.282107  
      21A2     6.282107    59A1     6.400152    39B1     6.495657  
      39B2     6.495675    60A1     6.518682    22A2     6.518869  
      40B1     6.595412    40B2     6.614436    41B1     6.718649  
      41B2     6.718685    61A1     6.789630    23A2     6.790795  
      62A1     6.819511    63A1     6.924611    42B1     6.950846  
      42B2     6.965335    64A1     7.048240    24A2     7.048240  
      43B1     7.233487    43B2     7.234592    65A1     7.249783  
      25A2     7.249790    44B1     7.268573    44B2     7.292051  
      66A1     7.324658    26A2     7.327055    45B1     7.360377  
      45B2     7.360388    67A1     7.405343    27A2     7.405343  
      68A1     7.422789    69A1     7.501258    46B1     7.505710  
      46B2     7.516007    47B1     7.521428    47B2     7.534895  
      70A1     7.595464    28A2     7.673908    71A1     7.674236  
      48B1     7.685889    48B2     7.685889    29A2     7.718653  
      72A1     7.718653    49B1     7.962416    49B2     7.962419  
      50B1     8.080971    73A1     8.108456    50B2     8.108999  
      30A2     8.224283    74A1     8.225173    31A2     8.447296  
      75A1     8.448006    76A1     8.632199    51B1     8.692712  
      51B2     8.718937    32A2     8.894306    77A1     8.894710  
      52B1     9.098859    52B2     9.131817    78A1    10.020204  
      53B1    10.286819    53B2    10.320344    79A1    10.476326  
      80A1    12.363022    54B1    16.000409    54B2    16.062784  
      55B1    16.178704    55B2    16.178704    81A1    16.224963  
      33A2    16.224964    56B1    16.452147    56B2    16.452289  
      82A1    16.716190    57B1    16.748378    34A2    16.752965  
      83A1    16.777478    57B2    16.793025    84A1    17.354402  
      85A1    19.034019    35A2    19.034029    58B1    19.105623  
      58B2    19.105787    59B1    19.166369    59B2    19.166400  
      86A1    19.268409    36A2    19.274293    60B1    19.425759  
      60B2    19.478830    87A1    19.480436    88A1    19.489707  
      37A2    19.489885    61B1    19.938475    61B2    19.990944  
      89A1    20.340054    38A2    20.539015    90A1    20.539058  
      62B1    21.018182    62B2    21.025376    91A1    21.266301  
      92A1    22.115444    39A2    22.115648    63B1    22.689784  
      63B2    22.740552    93A1    23.295297    64B1    38.476357  
      64B2    38.480746    94A1    40.125904    95A1    62.730704  
      96A1    84.484633  

    Beta Occupied:                                                        

       1A1  -104.917144     2A1   -20.654393     3A1   -10.637840  
       4A1    -8.107236     1B2    -8.102508     1B1    -8.099072  
       5A1    -1.384055     6A1    -1.003005     2B2    -0.645283  
       7A1    -0.634403     2B1    -0.527206     3B2    -0.436123  

    Beta Virtual:                                                         

       3B1     0.045354     8A1     0.054932     9A1     0.069731  
       4B1     0.081802     4B2     0.083084    10A1     0.128007  
       5B2     0.134611     5B1     0.147614    11A1     0.153540  
       1A2     0.228692    12A1     0.228734    13A1     0.246635  
       6B2     0.282470     6B1     0.292035    14A1     0.312941  
       7B1     0.357017     7B2     0.358919    15A1     0.403924  
      16A1     0.446762     2A2     0.449803    17A1     0.451277  
       8B2     0.499175     8B1     0.507648     9B2     0.567648  
      18A1     0.579626     3A2     0.579784    19A1     0.602227  
       9B1     0.606195    10B2     0.606635    10B1     0.615210  
      20A1     0.638157    11B1     0.659856    11B2     0.662089  
       4A2     0.708879    21A1     0.708913    22A1     0.728601  
      12B2     0.851698    12B1     0.854124    23A1     0.946406  
      13B2     1.035551    13B1     1.035553    24A1     1.109791  
       5A2     1.174870    25A1     1.175073    14B1     1.182987  
      14B2     1.185368    26A1     1.248349     6A2     1.276297  
      27A1     1.276666    15B2     1.329493    28A1     1.331634  
       7A2     1.331635    29A1     1.333709    15B1     1.336008  
       8A2     1.397536    30A1     1.397600    16B1     1.444874  
      16B2     1.448478    17B1     1.465660    17B2     1.465729  
      31A1     1.472835    18B2     1.517717    18B1     1.517735  
      19B2     1.564611     9A2     1.578854    32A1     1.578864  
      19B1     1.594134    33A1     1.629277    20B2     1.685182  
      20B1     1.691874    34A1     1.767047    21B1     1.771180  
      21B2     1.774060    10A2     1.878067    35A1     1.878247  
      36A1     1.977076    37A1     2.397040    22B2     2.420922  
      22B1     2.428710    11A2     2.617572    38A1     2.617573  
      39A1     2.659763    23B2     2.799067    23B1     2.799073  
      12A2     2.878097    40A1     2.878288    24B1     2.950072  
      24B2     2.950075    41A1     2.967835    13A2     2.967855  
      25B1     2.999786    25B2     3.005878    42A1     3.048409  
      26B1     3.118019    26B2     3.126630    43A1     3.161987  
      27B1     3.228491    27B2     3.229007    28B1     3.229141  
      28B2     3.230912    44A1     3.273538    14A2     3.276558  
      45A1     3.276560    15A2     3.330549    46A1     3.330646  
      16A2     3.352645    47A1     3.352806    29B2     3.383944  
      29B1     3.383944    30B2     3.407864    30B1     3.407864  
      17A2     3.503004    48A1     3.503004    49A1     3.566654  
      31B1     3.574637    31B2     3.575337    18A2     3.636291  
      50A1     3.636532    32B1     3.669019    32B2     3.672160  
      51A1     3.722023    19A2     3.801685    52A1     3.801983  
      33B1     3.961915    33B2     3.961916    34B2     4.152993  
      34B1     4.154401    53A1     4.234719    54A1     4.519294  
      55A1     4.535076    20A2     4.701235    56A1     4.701592  
      35B1     4.773148    35B2     4.777145    36B1     5.267730  
      36B2     5.272189    37B2     5.428365    37B1     5.431191  
      57A1     5.874095    38B1     6.166707    38B2     6.166707  
      58A1     6.289089    21A2     6.289089    59A1     6.412239  
      39B1     6.501589    39B2     6.501594    60A1     6.524460  
      22A2     6.524536    40B1     6.605366    40B2     6.615825  
      41B1     6.725205    41B2     6.725220    61A1     6.796268  
      23A2     6.796720    62A1     6.824734    63A1     6.932903  
      42B1     6.957156    42B2     6.965387    64A1     7.069687  
      24A2     7.069687    43B1     7.248999    43B2     7.249400  
      65A1     7.254782    25A2     7.254826    44B1     7.279328  
      44B2     7.293218    66A1     7.337506    26A2     7.338527  
      45B1     7.380106    45B2     7.380107    67A1     7.409996  
      27A2     7.409996    68A1     7.425331    69A1     7.505371  
      46B1     7.522039    46B2     7.534176    47B1     7.543628  
      47B2     7.544120    70A1     7.605237    28A2     7.679011  
      71A1     7.679239    48B1     7.689787    48B2     7.689787  
      29A2     7.721393    72A1     7.721393    49B1     7.965792  
      49B2     7.965792    50B1     8.106841    50B2     8.114192  
      73A1     8.117114    30A2     8.251995    74A1     8.252169  
      31A2     8.491232    75A1     8.491458    76A1     8.648164  
      51B1     8.713649    51B2     8.723866    32A2     8.913934  
      77A1     8.914030    52B1     9.122024    52B2     9.136822  
      78A1    10.028093    53B1    10.314855    53B2    10.327296  
      79A1    10.489964    80A1    12.395767    54B1    16.071734  
      54B2    16.079042    55B1    16.202077    55B2    16.202077  
      81A1    16.244445    33A2    16.244445    56B1    16.468678  
      56B2    16.468730    82A1    16.736755    34A2    16.766370  
      57B1    16.766678    83A1    16.781955    57B2    16.798267  
      84A1    17.375478    85A1    19.070819    35A2    19.070821  
      58B1    19.140283    58B2    19.140320    59B1    19.208474  
      59B2    19.208479    86A1    19.295924    36A2    19.298202  
      60B1    19.459034    60B2    19.489714    87A1    19.496722  
      88A1    19.523492    37A2    19.523605    61B1    19.974446  
      61B2    20.001572    89A1    20.359161    38A2    20.542328  
      90A1    20.542342    62B1    21.021684    62B2    21.025309  
      91A1    21.268549    92A1    22.161632    39A2    22.161633  
      63B1    22.734494    63B2    22.753190    93A1    23.314660  
      64B2    38.481214    64B1    38.482765    94A1    40.124235  
      95A1    62.746500    96A1    84.485611  

    Final Occupation by Irrep:
             A1    A2    B1    B2 
    DOCC [     7,    0,    2,    3 ]
    SOCC [     0,    0,    1,    0 ]

  @UHF Final Energy:  -534.31837954749540

   => Energetics <=

    Nuclear Repulsion Energy =             46.2879894716787845
    One-Electron Energy =                -829.9114544915502165
    Two-Electron Energy =                 249.3050854723760779
    Total Energy =                       -534.3183795474953968

  UHF NO Occupations:
  HONO-2 :    7 A1 1.9973657
  HONO-1 :    2 B1 1.9945909
  HONO-0 :    3 B1 1.0000000
  LUNO+0 :    4 B1 0.0054091
  LUNO+1 :    8 A1 0.0026343
  LUNO+2 :    9 A1 0.0013152
  LUNO+3 :    4 B2 0.0004767


Computation Completed


Properties will be evaluated at   0.000000,   0.000000,   0.000000 [a0]

Properties computed using the SCF density matrix

  Nuclear Dipole Moment: [e a0]
     X:     0.0000      Y:     0.0000      Z:     0.4518

  Electronic Dipole Moment: [e a0]
     X:     0.0000      Y:     0.0000      Z:    -0.7768

  Dipole Moment: [e a0]
     X:     0.0000      Y:     0.0000      Z:    -0.3249     Total:     0.3249

  Dipole Moment: [D]
     X:     0.0000      Y:     0.0000      Z:    -0.8259     Total:     0.8259


*** tstop() called on n412-045.vsc4.prov at Thu Jan 21 12:39:00 2021
Module time:
	user time   =     291.80 seconds =       4.86 minutes
	system time =      23.56 seconds =       0.39 minutes
	total time  =        247 seconds =       4.12 minutes
Total time:
	user time   =     291.80 seconds =       4.86 minutes
	system time =      23.56 seconds =       0.39 minutes
	total time  =        247 seconds =       4.12 minutes

*** tstart() called on n412-045.vsc4.prov
*** at Thu Jan 21 12:39:00 2021


	Wfn Parameters:
	--------------------
	Wavefunction         = CCSD_T
	Number of irreps     = 4
	Number of MOs        = 263
	Number of active MOs = 257
	AO-Basis             = NONE
	Semicanonical        = false
	Reference            = UHF
	Print Level          = 1

	IRREP	# MOs	# FZDC	# DOCC	# SOCC	# VIRT	# FZVR
	-----	-----	------	------	------	------	------
	 A1	   96	    4	    3	    0	    89	    0
	 A2	   39	    0	    0	    0	    39	    0
	 B1	   64	    1	    1	    1	    61	    0
	 B2	   64	    1	    2	    0	    61	    0
	Transforming integrals...
	IWL integrals will be deleted.
	(OO|OO)...
	Presorting SO-basis two-electron integrals.
	Sorting File: SO Ints (nn|nn) nbuckets = 1
	Constructing frozen core operators
	Starting AA/AB first half-transformation.
	Sorting AA/AB half-transformed integrals.
	Starting BB first half-transformation.
	Sorting BB half-transformed integrals.
	First half integral transformation complete.
	Starting AA second half-transformation.
	Starting AB second half-transformation.
	Starting BB second half-transformation.
	Two-electron integral transformation complete.
	(OO|OV)...
	Starting AA second half-transformation.
	Starting AB second half-transformation.
	Starting BB second half-transformation.
	Two-electron integral transformation complete.
	(OO|VV)...
	Starting AA second half-transformation.
	Starting AB second half-transformation.
	Starting BB second half-transformation.
	Two-electron integral transformation complete.
	(OV|OO)...
	Starting AA/AB first half-transformation.
	Sorting AA/AB half-transformed integrals.
	Starting BB first half-transformation.
	Sorting BB half-transformed integrals.
	First half integral transformation complete.
	Starting AA second half-transformation.
	Starting AB second half-transformation.
	Starting BB second half-transformation.
	Two-electron integral transformation complete.
	(OV|OV)...
	Starting AA second half-transformation.
	Starting AB second half-transformation.
	Starting BB second half-transformation.
	Two-electron integral transformation complete.
	(OV|VV)...
	Starting AA second half-transformation.
	Starting AB second half-transformation.
	Starting BB second half-transformation.
	Two-electron integral transformation complete.
	(VV|OO)...
	Starting AA/AB first half-transformation.
	Sorting AA/AB half-transformed integrals.
	Starting BB first half-transformation.
	Sorting BB half-transformed integrals.
	First half integral transformation complete.
	Starting AA second half-transformation.
	Starting AB second half-transformation.
	Starting BB second half-transformation.
	Two-electron integral transformation complete.
	(VV|OV)...
	Starting AA second half-transformation.
	Starting AB second half-transformation.
	Starting BB second half-transformation.
	Two-electron integral transformation complete.
	(VV|VV)...
	Starting AA second half-transformation.
	Starting AB second half-transformation.
	Starting BB second half-transformation.
	Two-electron integral transformation complete.
	Frozen core energy     =   -535.85067474855509

	Size of irrep 0 of <AB|CD> integrals:     69.172 (MW) /    553.380 (MB)
	Size of irrep 1 of <AB|CD> integrals:     51.725 (MW) /    413.799 (MB)
	Size of irrep 2 of <AB|CD> integrals:     60.965 (MW) /    487.719 (MB)
	Size of irrep 3 of <AB|CD> integrals:     60.965 (MW) /    487.719 (MB)
	Total:                                   242.827 (MW) /   1942.617 (MB)

	Size of irrep 0 of <ab|cd> integrals:     70.191 (MW) /    561.527 (MB)
	Size of irrep 1 of <ab|cd> integrals:     52.606 (MW) /    420.848 (MB)
	Size of irrep 2 of <ab|cd> integrals:     62.363 (MW) /    498.901 (MB)
	Size of irrep 3 of <ab|cd> integrals:     61.575 (MW) /    492.603 (MB)
	Total:                                   246.735 (MW) /   1973.879 (MB)

	Size of irrep 0 of <Ab|Cd> integrals:    287.133 (MW) /   2297.064 (MB)
	Size of irrep 1 of <Ab|Cd> integrals:    208.658 (MW) /   1669.264 (MB)
	Size of irrep 2 of <Ab|Cd> integrals:    246.647 (MW) /   1973.176 (MB)
	Size of irrep 3 of <Ab|Cd> integrals:    245.079 (MW) /   1960.632 (MB)
	Total:                                   987.517 (MW) /   7900.137 (MB)

	Size of irrep 0 of <IA|BC> integrals:      8.628 (MW) /     69.022 (MB)
	Size of irrep 1 of <IA|BC> integrals:      5.193 (MW) /     41.541 (MB)
	Size of irrep 2 of <IA|BC> integrals:      6.855 (MW) /     54.843 (MB)
	Size of irrep 3 of <IA|BC> integrals:      6.855 (MW) /     54.843 (MB)
	Total:                                    27.531 (MW) /    220.250 (MB)

	Size of irrep 0 of <ia|bc> integrals:      7.670 (MW) /     61.361 (MB)
	Size of irrep 1 of <ia|bc> integrals:      4.381 (MW) /     35.046 (MB)
	Size of irrep 2 of <ia|bc> integrals:      5.575 (MW) /     44.602 (MB)
	Size of irrep 3 of <ia|bc> integrals:      6.278 (MW) /     50.221 (MB)
	Total:                                    23.904 (MW) /    191.231 (MB)

	Size of irrep 0 of <Ia|Bc> integrals:      8.693 (MW) /     69.542 (MB)
	Size of irrep 1 of <Ia|Bc> integrals:      5.244 (MW) /     41.948 (MB)
	Size of irrep 2 of <Ia|Bc> integrals:      6.942 (MW) /     55.533 (MB)
	Size of irrep 3 of <Ia|Bc> integrals:      6.873 (MW) /     54.980 (MB)
	Total:                                    27.750 (MW) /    222.004 (MB)

	Size of irrep 0 of <iA|bC> integrals:      7.625 (MW) /     61.002 (MB)
	Size of irrep 1 of <iA|bC> integrals:      4.333 (MW) /     34.668 (MB)
	Size of irrep 2 of <iA|bC> integrals:      5.497 (MW) /     43.974 (MB)
	Size of irrep 3 of <iA|bC> integrals:      6.262 (MW) /     50.096 (MB)
	Total:                                    23.718 (MW) /    189.740 (MB)

	Size of irrep 0 of tIjAb amplitudes:       0.254 (MW) /      2.033 (MB)
	Size of irrep 1 of tIjAb amplitudes:       0.087 (MW) /      0.693 (MB)
	Size of irrep 2 of tIjAb amplitudes:       0.141 (MW) /      1.131 (MB)
	Size of irrep 3 of tIjAb amplitudes:       0.188 (MW) /      1.503 (MB)
	Total:                                     0.670 (MW) /      5.360 (MB)

	Nuclear Rep. energy          =     46.28798947167878
	SCF energy                   =   -534.31837954749540
	One-electron energy          =    -79.29565015475008
	Two-electron (AA) energy     =      8.66471758260647
	Two-electron (BB) energy     =      5.89950474909958
	Two-electron (AB) energy     =     19.97573355242102
	Two-electron energy          =     34.53995588412707
	Reference energy             =   -534.31837954749926

*** tstop() called on n412-045.vsc4.prov at Thu Jan 21 12:45:05 2021
Module time:
	user time   =     120.60 seconds =       2.01 minutes
	system time =      78.23 seconds =       1.30 minutes
	total time  =        365 seconds =       6.08 minutes
Total time:
	user time   =     412.40 seconds =       6.87 minutes
	system time =     101.79 seconds =       1.70 minutes
	total time  =        612 seconds =      10.20 minutes
            **************************
            *                        *
            *        CCENERGY        *
            *                        *
            **************************

    Nuclear Rep. energy (wfn)     =   46.287989471678785
    SCF energy          (wfn)     = -534.318379547495397
    Reference energy    (file100) = -534.318379547499262

    Input parameters:
    -----------------
    Wave function   =     CCSD_T
    Reference wfn   =     UHF
    Brueckner       =     No
    Memory (Mbytes) =     250000.0
    Maxiter         =     50
    R_Convergence   =     1.0e-07
    E_Convergence   =     1.0e-06
    Restart         =     Yes
    DIIS            =     Yes
    AO Basis        =     NONE
    ABCD            =     NEW
    Cache Level     =     2
    Cache Type      =     LRU
    Print Level     =     1
    Num. of threads =     48
    # Amps to Print =     10
    Print MP2 Amps? =     No
    Analyze T2 Amps =     No
    Print Pair Ener =     No
    Local CC        =     No
    SCS-MP2         =     False
    SCSN-MP2        =     False
    SCS-CCSD        =     False

MP2 correlation energy -0.4402190436234519
                Solving CC Amplitude Equations
                ------------------------------
  Iter             Energy              RMS        T1Diag      D1Diag    New D1Diag    D2Diag
  ----     ---------------------    ---------   ----------  ----------  ----------   --------
     0        -0.440219043623452    0.000e+00    0.000000    0.000000    0.000000    0.000000
     1        -0.444769234942787    9.167e-02    0.021868    0.000000    0.000000    0.000000
     2        -0.457803429680116    3.260e-02    0.026299    0.000000    0.000000    0.000000
     3        -0.462096521784374    2.999e-02    0.037028    0.000000    0.000000    0.000000
     4        -0.462557437588246    1.694e-02    0.048557    0.000000    0.000000    0.000000
     5        -0.463092094501609    7.365e-03    0.054055    0.000000    0.000000    0.000000
     6        -0.463199682826790    1.800e-03    0.054762    0.000000    0.000000    0.000000
     7        -0.463194353986807    6.257e-04    0.054913    0.000000    0.000000    0.000000
     8        -0.463204261648479    2.548e-04    0.054976    0.000000    0.000000    0.000000
     9        -0.463200483237492    9.929e-05    0.054974    0.000000    0.000000    0.000000
    10        -0.463197744947724    4.219e-05    0.054980    0.000000    0.000000    0.000000
    11        -0.463198809588732    1.798e-05    0.054978    0.000000    0.000000    0.000000
    12        -0.463198993440268    7.748e-06    0.054981    0.000000    0.000000    0.000000
    13        -0.463199368977244    2.766e-06    0.054981    0.000000    0.000000    0.000000
    14        -0.463199464155619    9.196e-07    0.054981    0.000000    0.000000    0.000000
    15        -0.463199413970608    4.476e-07    0.054981    0.000000    0.000000    0.000000
    16        -0.463199390203702    2.020e-07    0.054981    0.000000    0.000000    0.000000
    17        -0.463199387695791    4.852e-08    0.054981    0.000000    0.000000    0.000000

    Iterations converged.


    Largest TIA Amplitudes:
              2   3        -0.0260479083
              3 133         0.0246614445
              5 194         0.0197672032
              3 130        -0.0172078188
              2   2        -0.0170924226
              5 191        -0.0141086467
              2   0        -0.0133054314
              2   7         0.0130895008
              2   5        -0.0128072404
              3 129         0.0120416743

    Largest Tia Amplitudes:
              3 128        -0.1604365707
              3 130         0.0611783149
              3 135         0.0425408028
              3 131        -0.0332647923
              3 144        -0.0167718280
              4 195         0.0160338567
              3 133        -0.0141289757
              4 192        -0.0122662482
              2   3        -0.0102871429
              3 137        -0.0094531465

    Largest TIJAB Amplitudes:
      6   4  91  10         0.0229661256
      6   2 194   3         0.0143947321
      4   2 133   3         0.0135061438
      6   4  91   4         0.0126920731
      6   4  89  10         0.0126665816
      5   4  91  10        -0.0122315216
      6   4 194 133        -0.0105763318
      6   2 194   2         0.0095845069
      4   2 133   2         0.0092985214
      6   4  96  10         0.0088141976

    Largest Tijab Amplitudes:
      3   2 128   3         0.0363888894
      5   3 195 128        -0.0250568636
      3   2 128   7        -0.0214307790
      5   3  91  10        -0.0187218769
      3   2 128   5         0.0181321245
      3   2 128   6         0.0164326342
      5   2 195   3         0.0159332393
      3   2 128   2         0.0141266759
      3   2 130   3        -0.0140442178
      5   3 192 128         0.0136856638

    Largest TIjAb Amplitudes:
      2   3   3 128         0.0382706186
      4   3 133 128        -0.0331818326
      2   2   3   3        -0.0309243015
      6   3 194 128        -0.0265578244
      2   3   7 128        -0.0231731675
      2   3   2 128         0.0228420200
      6   5  91  91        -0.0216195201
      6   5  10  10         0.0215529954
      4   3  91  91        -0.0215350215
      4   3  10  10         0.0213821977

    SCF energy       (wfn)                    = -534.318379547495397
    Reference energy (file100)                = -534.318379547499262

    Opposite-spin MP2 correlation energy      =   -0.335232649762984
    Same-spin MP2 correlation energy          =   -0.104986393860468
    Singles MP2 correlation energy            =   -0.000000000000000
    MP2 correlation energy                    =   -0.440219043623452
      * MP2 total energy                      = -534.758598591122677

    Opposite-spin CCSD correlation energy     =   -0.363580401038254
    Same-spin CCSD correlation energy         =   -0.099618986657529
    Singles CCSD correlation energy           =   -0.000000000000008
    CCSD correlation energy                   =   -0.463199387695791
      * CCSD total energy                     = -534.781578935195057

            **************************
            *                        *
            *        CCTRIPLES       *
            *                        *
            **************************


    Wave function   =    CCSD_T
    Reference wfn   =      UHF

    Nuclear Rep. energy (wfn)                =   46.287989471678785
    SCF energy          (wfn)                = -534.318379547495397
    Reference energy    (file100)            = -534.318379547499262
    CCSD energy         (file100)            =   -0.463199387695791
    Total CCSD energy   (file100)            = -534.781578935195057

    Number of ijk index combinations:
    Spin Case AAA:                                  35
    Spin Case BBB:                                  20
    Spin Case AAB:                                 126
    Spin Case ABB:                                 105
    AAA (T) energy                             =   -0.000526690733709
    BBB (T) energy                             =   -0.000594138305139
    AAB (T) energy                             =   -0.010613923575375
    ABB (T) energy                             =   -0.009956880656426
    (T) energy                                   =   -0.021691633270649
      * CCSD(T) total energy                     = -534.803270568465678


    Psi4 stopped on: Thursday, 21 January 2021 12:56PM
    Psi4 wall time for execution: 0:21:53.88

*** Psi4 exiting successfully. Buy a developer a beer!
