
    -----------------------------------------------------------------------
          Psi4: An Open-Source Ab Initio Electronic Structure Package
                               Psi4 1.2a1.dev938 

                         Git: Rev {HEAD} fc51d9a dirty


    R. M. Parrish, L. A. Burns, D. G. A. Smith, A. C. Simmonett,
    A. E. DePrince III, E. G. Hohenstein, U. Bozkaya, A. Yu. Sokolov,
    R. Di Remigio, R. M. Richard, J. F. Gonthier, A. M. James,
    H. R. McAlexander, A. Kumar, M. Saitow, X. Wang, B. P. Pritchard,
    P. Verma, H. F. Schaefer III, K. Patkowski, R. A. King, E. F. Valeev,
    F. A. Evangelista, J. M. Turney, T. D. Crawford, and C. D. Sherrill,
    J. Chem. Theory Comput. 13(7) pp 3185--3197 (2017).
    (doi: 10.1021/acs.jctc.7b00174)

    -----------------------------------------------------------------------


    Psi4 started on: Thursday, 20 August 2020 08:19PM

    Process ID: 424368
    PSIDATADIR: /home/irmler/Programs/psi4/beforeGrueneis3/stage/usr/local/psi4/share/psi4
    Memory:     500.0 MiB
    Threads:    4
    
  ==> Input File <==

--------------------------------------------------------------------------
# Any line starting with the # character is a comment line
memory 250000 mb
molecule molecule{
-1 3
C          0.0000000000        0.0000000000        0.0874497820
H          0.0000000000        0.0000000000       -1.0420851747
}

set {
  reference uhf
  basis aug-cc-pv(q+d)z
  scf_type OUT_OF_CORE
  freeze_core true
}

energy('ccsd')
--------------------------------------------------------------------------

  Memory set to 232.831 GiB by Python driver.

*** tstart() called on cqc05
*** at Thu Aug 20 20:19:39 2020

   => Loading Basis Set <=

    Name: AUG-CC-PV(Q+D)Z
    Role: ORBITAL
    Keyword: BASIS
    atoms 1 entry C          line   319 file /home/irmler/Programs/psi4/beforeGrueneis3/stage/usr/local/psi4/share/psi4/basis/aug-cc-pv_qpd_z.gbs 
    atoms 2 entry H          line    56 file /home/irmler/Programs/psi4/beforeGrueneis3/stage/usr/local/psi4/share/psi4/basis/aug-cc-pv_qpd_z.gbs 


         ---------------------------------------------------------
                                   SCF
            by Justin Turney, Rob Parrish, Andy Simmonett
                             and Daniel Smith
                              UHF Reference
                        4 Threads, 238418 MiB Core
         ---------------------------------------------------------

  ==> Geometry <==

    Molecular point group: c2v
    Full point group: C_inf_v

    Geometry (in Angstrom), charge = -1, multiplicity = 3:

       Center              X                  Y                   Z               Mass       
    ------------   -----------------  -----------------  -----------------  -----------------
           C          0.000000000000     0.000000000000     0.087514523078    12.000000000000
           H          0.000000000000     0.000000000000    -1.042020433622     1.007825032070

  Running in c2v symmetry.

  Rotational constants: A = ************  B =     14.21135  C =     14.21135 [cm^-1]
  Rotational constants: A = ************  B = 426045.65804  C = 426045.65804 [MHz]
  Nuclear repulsion =    2.810947313057160

  Charge       = -1
  Multiplicity = 3
  Electrons    = 8
  Nalpha       = 5
  Nbeta        = 3

  ==> Algorithm <==

  SCF Algorithm Type is OUT_OF_CORE.
  DIIS enabled.
  MOM disabled.
  Fractional occupation disabled.
  Guess Type is GWH.
  Energy threshold   = 1.00e-08
  Density threshold  = 1.00e-08
  Integral threshold = 0.00e+00

  ==> Primary Basis <==

  Basis Set: AUG-CC-PV(Q+D)Z
    Blend: AUG-CC-PV(Q+D)Z
    Number of shells: 34
    Number of basis function: 126
    Number of Cartesian functions: 160
    Spherical Harmonics?: true
    Max angular momentum: 4

  ==> Pre-Iterations <==

   -------------------------------------------------------
    Irrep   Nso     Nmo     Nalpha   Nbeta   Ndocc  Nsocc
   -------------------------------------------------------
     A1        50      50       0       0       0       0
     A2        16      16       0       0       0       0
     B1        30      30       0       0       0       0
     B2        30      30       0       0       0       0
   -------------------------------------------------------
    Total     126     126       5       3       3       2
   -------------------------------------------------------

  ==> Integral Setup <==

  ==> DiskJK: Disk-Based J/K Matrices <==

    J tasked:                  Yes
    K tasked:                  Yes
    wK tasked:                  No
    Memory (MB):            178813
    Schwarz Cutoff:          1E-12

  Minimum eigenvalue in the overlap matrix is 6.8368110836E-05.
  Using Symmetric Orthogonalization.

  SCF Guess: Generalized Wolfsberg-Helmholtz.

  ==> Iterations <==

                        Total Energy        Delta E     RMS |[F,P]|

    Occupation by irrep:
             A1    A2    B1    B2 
    DOCC [     3,    0,    0,    0 ]
    SOCC [     1,    0,    0,    1 ]

   @UHF iter   1:   -32.09927992804428   -3.20993e+01   1.33064e-01 
    Occupation by irrep:
             A1    A2    B1    B2 
    DOCC [     3,    0,    0,    0 ]
    SOCC [     0,    0,    1,    1 ]

   @UHF iter   2:   -35.16820039843181   -3.06892e+00   3.30605e-02 DIIS
   @UHF iter   3:   -37.13622860698789   -1.96803e+00   3.51592e-02 DIIS
   @UHF iter   4:   -38.01212503245682   -8.75896e-01   1.72244e-02 DIIS
   @UHF iter   5:   -38.28499038891100   -2.72865e-01   2.45839e-03 DIIS
   @UHF iter   6:   -38.29868211854334   -1.36917e-02   7.79063e-04 DIIS
   @UHF iter   7:   -38.29943631049554   -7.54192e-04   3.45667e-04 DIIS
   @UHF iter   8:   -38.29961834719033   -1.82037e-04   7.72277e-05 DIIS
   @UHF iter   9:   -38.29963757631117   -1.92291e-05   2.17565e-05 DIIS
   @UHF iter  10:   -38.29963981659230   -2.24028e-06   9.81800e-06 DIIS
   @UHF iter  11:   -38.29964044019977   -6.23607e-07   4.70064e-06 DIIS
   @UHF iter  12:   -38.29964059898883   -1.58789e-07   1.19236e-06 DIIS
   @UHF iter  13:   -38.29964060764512   -8.65629e-09   3.96648e-07 DIIS
   @UHF iter  14:   -38.29964060820036   -5.55247e-10   1.38930e-07 DIIS
   @UHF iter  15:   -38.29964060832688   -1.26519e-10   5.66103e-08 DIIS
   @UHF iter  16:   -38.29964060834886   -2.19771e-11   1.65831e-08 DIIS
   @UHF iter  17:   -38.29964060835087   -2.01084e-12   5.41115e-09 DIIS

  ==> Post-Iterations <==

   @Spin Contamination Metric:   2.390673631E-02
   @S^2 Expected:                2.000000000E+00
   @S^2 Observed:                2.023906736E+00
   @S   Expected:                1.000000000E+00
   @S   Observed:                1.000000000E+00

    Orbital Energies (a.u.)
    -----------------------

    Alpha Occupied:                                                       

       1A1   -10.969149     2A1    -0.583827     3A1    -0.159542  
       1B1    -0.078045     1B2    -0.078045  

    Alpha Virtual:                                                        

       4A1     0.146152     5A1     0.227993     2B1     0.231804  
       2B2     0.231804     6A1     0.287815     7A1     0.380520  
       3B2     0.403951     3B1     0.403951     8A1     0.423739  
       1A2     0.423739     9A1     0.458037     4B1     0.466628  
       4B2     0.466628    10A1     0.542518    11A1     0.642850  
       5B1     0.688124     5B2     0.688124    12A1     0.804613  
       6B1     0.860380     6B2     0.860380    13A1     0.895591  
       2A2     0.895591    14A1     0.966343     7B2     1.003691  
       7B1     1.003691    15A1     1.009794    16A1     1.032979  
       3A2     1.032979     8B1     1.078481     8B2     1.078481  
      17A1     1.130138    18A1     1.160362     4A2     1.160362  
       9B1     1.163408     9B2     1.163408    19A1     1.342522  
      10B1     1.530258    10B2     1.530258    20A1     1.698641  
      11B2     1.928613    11B1     1.928613    12B1     1.962167  
      12B2     1.962167    21A1     1.983239    22A1     2.173048  
      23A1     2.186171     5A2     2.186171    13B1     2.245815  
      13B2     2.245815    24A1     2.418226     6A2     2.423025  
      25A1     2.423025    26A1     2.437939     7A2     2.437939  
      14B1     2.478355    14B2     2.478355    27A1     2.564505  
       8A2     2.564505    15B1     2.579039    15B2     2.579039  
      28A1     2.592997    16B2     2.673741    16B1     2.673741  
      17B2     2.704270    17B1     2.704270    29A1     2.710146  
      30A1     2.711488     9A2     2.711488    18B1     2.949924  
      18B2     2.949924    31A1     3.207306    32A1     3.504226  
      19B2     3.765836    19B1     3.765836    33A1     3.823235  
      10A2     3.823235    34A1     4.307121    20B1     4.429799  
      20B2     4.429799    35A1     4.430283    11A2     6.185628  
      36A1     6.185628    21B1     6.212462    21B2     6.212462  
      22B2     6.241804    22B1     6.241804    12A2     6.279293  
      37A1     6.279293    38A1     6.306400    23B2     6.534076  
      23B1     6.534076    24B2     6.584713    24B1     6.584713  
      13A2     6.722095    39A1     6.722095    40A1     6.817040  
      25B1     6.825444    25B2     6.825444    14A2     6.918659  
      41A1     6.918659    42A1     7.006797    26B1     7.083879  
      26B2     7.083879    43A1     7.543695    27B2     7.623209  
      27B1     7.623209    15A2     7.958001    44A1     7.958001  
      28B2     8.541385    28B1     8.541385    45A1     8.613447  
      46A1     9.225679    16A2     9.225679    47A1     9.423020  
      29B2     9.644042    29B1     9.644042    30B2    10.226222  
      30B1    10.226222    48A1    10.635709    49A1    12.378986  
      50A1    23.351026  

    Beta Occupied:                                                        

       1A1   -10.934209     2A1    -0.422184     3A1    -0.087475  

    Beta Virtual:                                                         

       4A1     0.147618     1B1     0.219568     1B2     0.219568  
       5A1     0.231316     6A1     0.297377     2B1     0.384780  
       2B2     0.384780     7A1     0.389776     3B1     0.430493  
       3B2     0.430493     1A2     0.443159     8A1     0.443159  
       9A1     0.461178     4B2     0.493243     4B1     0.493243  
      10A1     0.558789    11A1     0.657951     5B2     0.790441  
       5B1     0.790441    12A1     0.829571     6B1     0.876485  
       6B2     0.876485     2A2     0.916148    13A1     0.916148  
      14A1     0.985267     7B1     1.027174     7B2     1.027174  
      15A1     1.036977     3A2     1.077123    16A1     1.077123  
       8B1     1.100507     8B2     1.100507    17A1     1.137561  
       9B1     1.183644     9B2     1.183644     4A2     1.198420  
      18A1     1.198420    19A1     1.362157    10B2     1.568314  
      10B1     1.568314    20A1     1.715466    11B2     1.939455  
      11B1     1.939455    21A1     1.990199    12B2     1.999696  
      12B1     1.999696    22A1     2.186076    23A1     2.193589  
       5A2     2.193589    13B2     2.288569    13B1     2.288569  
       6A2     2.451499    24A1     2.451499    25A1     2.452119  
       7A2     2.480511    26A1     2.480511    14B2     2.520986  
      14B1     2.520986    27A1     2.615046    15B2     2.625142  
      15B1     2.625142     8A2     2.637692    28A1     2.637692  
      16B2     2.688553    16B1     2.688553    29A1     2.730177  
      17B2     2.731084    17B1     2.731084     9A2     2.741040  
      30A1     2.741040    18B2     2.969212    18B1     2.969212  
      31A1     3.232363    32A1     3.521069    19B2     3.774452  
      19B1     3.774452    10A2     3.839222    33A1     3.839222  
      34A1     4.317175    35A1     4.446873    20B2     4.453267  
      20B1     4.453267    11A2     6.210281    36A1     6.210281  
      21B2     6.256618    21B1     6.256618    22B2     6.270609  
      22B1     6.270609    12A2     6.323129    37A1     6.323129  
      38A1     6.326172    23B2     6.561968    23B1     6.561968  
      24B2     6.615903    24B1     6.615903    13A2     6.781556  
      39A1     6.781556    40A1     6.847857    25B1     6.886730  
      25B2     6.886730    14A2     6.967663    41A1     6.967663  
      42A1     7.023841    26B1     7.093053    26B2     7.093053  
      43A1     7.552019    27B2     7.655235    27B1     7.655235  
      15A2     7.969632    44A1     7.969632    28B2     8.543903  
      28B1     8.543903    45A1     8.616488    16A2     9.227211  
      46A1     9.227211    47A1     9.429006    29B2     9.646160  
      29B1     9.646160    30B2    10.236121    30B1    10.236121  
      48A1    10.639265    49A1    12.383134    50A1    23.374123  

    Final Occupation by Irrep:
             A1    A2    B1    B2 
    DOCC [     3,    0,    0,    0 ]
    SOCC [     0,    0,    1,    1 ]

  Energy converged.

  @UHF Final Energy:   -38.29964060835087

   => Energetics <=

    Nuclear Repulsion Energy =              2.8109473130571598
    One-Electron Energy =                 -58.9087031525632483
    Two-Electron Energy =                  17.7981152311552151
    PCM Polarization Energy =               0.0000000000000000
    Total Energy =                        -38.2996406083508703

    Alert: EFP and PCM quantities not currently incorporated into SCF psivars.
  UHF NO Occupations:
  HONO-2 :    3 A1 1.9902833
  HONO-1 :    1 B1 1.0000000
  HONO-0 :    1 B2 1.0000000
  LUNO+0 :    4 A1 0.0097167
  LUNO+1 :    5 A1 0.0022843
  LUNO+2 :    6 A1 0.0000022
  LUNO+3 :    7 A1 0.0000000



Properties will be evaluated at   0.000000,   0.000000,   0.000000 Bohr

Properties computed using the SCF density matrix

  Nuclear Dipole Moment: (a.u.)
     X:     0.0000      Y:     0.0000      Z:    -0.9769

  Electronic Dipole Moment: (a.u.)
     X:     0.0000      Y:     0.0000      Z:     0.3919

  Dipole Moment: (a.u.)
     X:     0.0000      Y:     0.0000      Z:    -0.5850     Total:     0.5850

  Dipole Moment: (Debye)
     X:     0.0000      Y:     0.0000      Z:    -1.4868     Total:     1.4868


*** tstop() called on cqc05 at Thu Aug 20 20:19:44 2020
Module time:
	user time   =       6.01 seconds =       0.10 minutes
	system time =       0.33 seconds =       0.01 minutes
	total time  =          5 seconds =       0.08 minutes
Total time:
	user time   =       6.01 seconds =       0.10 minutes
	system time =       0.33 seconds =       0.01 minutes
	total time  =          5 seconds =       0.08 minutes

*** tstart() called on cqc05
*** at Thu Aug 20 20:19:44 2020


	Wfn Parameters:
	--------------------
	Wavefunction         = CCSD
	Number of irreps     = 4
	Number of MOs        = 126
	Number of active MOs = 125
	AO-Basis             = NONE
	Semicanonical        = false
	Reference            = UHF
	Print Level          = 1

	IRREP	# MOs	# FZDC	# DOCC	# SOCC	# VIRT	# FZVR
	-----	-----	------	------	------	------	------
	 A1	   50	    1	    2	    0	    47	    0
	 A2	   16	    0	    0	    0	    16	    0
	 B1	   30	    0	    0	    1	    29	    0
	 B2	   30	    0	    0	    1	    29	    0
	Transforming integrals...
	IWL integrals will be deleted.
	(OO|OO)...
	Presorting SO-basis two-electron integrals.
	Sorting File: SO Ints (nn|nn) nbuckets = 1
	Transforming the one-electron integrals and constructing Fock matrices
	Starting AA/AB first half-transformation.
	Sorting AA/AB half-transformed integrals.
	Starting BB first half-transformation.
	Sorting BB half-transformed integrals.
	First half integral transformation complete.
	Starting AA second half-transformation.
	Starting AB second half-transformation.
	Starting BB second half-transformation.
	Two-electron integral transformation complete.
	(OO|OV)...
	Starting AA second half-transformation.
	Starting AB second half-transformation.
	Starting BB second half-transformation.
	Two-electron integral transformation complete.
	(OO|VV)...
	Starting AA second half-transformation.
	Starting AB second half-transformation.
	Starting BB second half-transformation.
	Two-electron integral transformation complete.
	(OV|OO)...
	Starting AA/AB first half-transformation.
	Sorting AA/AB half-transformed integrals.
	Starting BB first half-transformation.
	Sorting BB half-transformed integrals.
	First half integral transformation complete.
	Starting AA second half-transformation.
	Starting AB second half-transformation.
	Starting BB second half-transformation.
	Two-electron integral transformation complete.
	(OV|OV)...
	Starting AA second half-transformation.
	Starting AB second half-transformation.
	Starting BB second half-transformation.
	Two-electron integral transformation complete.
	(OV|VV)...
	Starting AA second half-transformation.
	Starting AB second half-transformation.
	Starting BB second half-transformation.
	Two-electron integral transformation complete.
	(VV|OO)...
	Starting AA/AB first half-transformation.
	Sorting AA/AB half-transformed integrals.
	Starting BB first half-transformation.
	Sorting BB half-transformed integrals.
	First half integral transformation complete.
	Starting AA second half-transformation.
	Starting AB second half-transformation.
	Starting BB second half-transformation.
	Two-electron integral transformation complete.
	(VV|OV)...
	Starting AA second half-transformation.
	Starting AB second half-transformation.
	Starting BB second half-transformation.
	Two-electron integral transformation complete.
	(VV|VV)...
	Starting AA second half-transformation.
	Starting AB second half-transformation.
	Starting BB second half-transformation.
	Two-electron integral transformation complete.
	Frozen core energy     =    -33.29690674707413

	Size of irrep 0 of <AB|CD> integrals:      4.052 (MW) /     32.417 (MB)
	Size of irrep 1 of <AB|CD> integrals:      2.538 (MW) /     20.301 (MB)
	Size of irrep 2 of <AB|CD> integrals:      3.338 (MW) /     26.703 (MB)
	Size of irrep 3 of <AB|CD> integrals:      3.338 (MW) /     26.703 (MB)
	Total:                                    13.266 (MW) /    106.125 (MB)

	Size of irrep 0 of <ab|cd> integrals:      4.289 (MW) /     34.312 (MB)
	Size of irrep 1 of <ab|cd> integrals:      2.729 (MW) /     21.833 (MB)
	Size of irrep 2 of <ab|cd> integrals:      3.572 (MW) /     28.577 (MB)
	Size of irrep 3 of <ab|cd> integrals:      3.572 (MW) /     28.577 (MB)
	Total:                                    14.162 (MW) /    113.299 (MB)

	Size of irrep 0 of <Ab|Cd> integrals:     17.682 (MW) /    141.456 (MB)
	Size of irrep 1 of <Ab|Cd> integrals:     10.524 (MW) /     84.188 (MB)
	Size of irrep 2 of <Ab|Cd> integrals:     13.816 (MW) /    110.529 (MB)
	Size of irrep 3 of <Ab|Cd> integrals:     13.816 (MW) /    110.529 (MB)
	Total:                                    55.838 (MW) /    446.702 (MB)

	Size of irrep 0 of <IA|BC> integrals:      0.630 (MW) /      5.043 (MB)
	Size of irrep 1 of <IA|BC> integrals:      0.287 (MW) /      2.294 (MB)
	Size of irrep 2 of <IA|BC> integrals:      0.442 (MW) /      3.537 (MB)
	Size of irrep 3 of <IA|BC> integrals:      0.442 (MW) /      3.537 (MB)
	Total:                                     1.801 (MW) /     14.411 (MB)

	Size of irrep 0 of <ia|bc> integrals:      0.401 (MW) /      3.207 (MB)
	Size of irrep 1 of <ia|bc> integrals:      0.106 (MW) /      0.846 (MB)
	Size of irrep 2 of <ia|bc> integrals:      0.227 (MW) /      1.814 (MB)
	Size of irrep 3 of <ia|bc> integrals:      0.227 (MW) /      1.814 (MB)
	Total:                                     0.960 (MW) /      7.682 (MB)

	Size of irrep 0 of <Ia|Bc> integrals:      0.648 (MW) /      5.181 (MB)
	Size of irrep 1 of <Ia|Bc> integrals:      0.298 (MW) /      2.388 (MB)
	Size of irrep 2 of <Ia|Bc> integrals:      0.457 (MW) /      3.658 (MB)
	Size of irrep 3 of <Ia|Bc> integrals:      0.457 (MW) /      3.658 (MB)
	Total:                                     1.860 (MW) /     14.883 (MB)

	Size of irrep 0 of <iA|bC> integrals:      0.395 (MW) /      3.162 (MB)
	Size of irrep 1 of <iA|bC> integrals:      0.104 (MW) /      0.830 (MB)
	Size of irrep 2 of <iA|bC> integrals:      0.216 (MW) /      1.725 (MB)
	Size of irrep 3 of <iA|bC> integrals:      0.216 (MW) /      1.725 (MB)
	Total:                                     0.930 (MW) /      7.442 (MB)

	Size of irrep 0 of tIjAb amplitudes:       0.017 (MW) /      0.135 (MB)
	Size of irrep 1 of tIjAb amplitudes:       0.000 (MW) /      0.000 (MB)
	Size of irrep 2 of tIjAb amplitudes:       0.007 (MW) /      0.059 (MB)
	Size of irrep 3 of tIjAb amplitudes:       0.007 (MW) /      0.059 (MB)
	Total:                                     0.032 (MW) /      0.254 (MB)

	Nuclear Rep. energy          =      2.81094731305716
	SCF energy                   =    -38.29964060835087
	One-electron energy          =    -14.21824670007103
	Two-electron (AA) energy     =      2.35466717957634
	Two-electron (BB) energy     =      0.34622854770892
	Two-electron (AB) energy     =      3.70366979845175
	Two-electron energy          =      6.40456552573701
	Reference energy             =    -38.29964060835098

*** tstop() called on cqc05 at Thu Aug 20 20:19:53 2020
Module time:
	user time   =       4.94 seconds =       0.08 minutes
	system time =       3.34 seconds =       0.06 minutes
	total time  =          9 seconds =       0.15 minutes
Total time:
	user time   =      10.95 seconds =       0.18 minutes
	system time =       3.67 seconds =       0.06 minutes
	total time  =         14 seconds =       0.23 minutes

*** tstart() called on cqc05
*** at Thu Aug 20 20:19:53 2020

            **************************
            *                        *
            *        CCENERGY        *
            *                        *
            **************************

    Nuclear Rep. energy (wfn)     =    2.810947313057160
    SCF energy          (wfn)     =  -38.299640608350870
    Reference energy    (file100) =  -38.299640608350984

    Input parameters:
    -----------------
    Wave function   =     CCSD
    Reference wfn   =     UHF
    Brueckner       =     No
    Memory (Mbytes) =     250000.0
    Maxiter         =     50
    R_Convergence   =     1.0e-07
    E_Convergence   =     1.0e-06
    Restart         =     Yes
    DIIS            =     Yes
    AO Basis        =     NONE
    ABCD            =     NEW
    Cache Level     =     2
    Cache Type      =     LRU
    Print Level     =     1
    Num. of threads =     4
    # Amps to Print =     10
    Print MP2 Amps? =     No
    Analyze T2 Amps =     No
    Print Pair Ener =     No
    Local CC        =     No
    SCS-MP2         =     False
    SCSN-MP2        =     False
    SCS-CCSD        =     False

MP2 correlation energy -0.1402836435028053
                Solving CC Amplitude Equations
                ------------------------------
  Iter             Energy              RMS        T1Diag      D1Diag    New D1Diag    D2Diag
  ----     ---------------------    ---------   ----------  ----------  ----------   --------
     0        -0.140283643502813    0.000e+00    0.000000    0.000000    0.000000    0.000000
     1        -0.150356400914244    5.150e-02    0.014925    0.000000    0.000000    0.000000
     2        -0.155223101998714    2.170e-02    0.021537    0.000000    0.000000    0.000000
     3        -0.156357390609284    1.204e-02    0.027303    0.000000    0.000000    0.000000
     4        -0.156270906579717    5.421e-03    0.030505    0.000000    0.000000    0.000000
     5        -0.156275039789892    2.324e-03    0.031683    0.000000    0.000000    0.000000
     6        -0.156283759740095    1.001e-03    0.031979    0.000000    0.000000    0.000000
     7        -0.156285392839520    4.381e-04    0.031962    0.000000    0.000000    0.000000
     8        -0.156291813767945    2.277e-04    0.031959    0.000000    0.000000    0.000000
     9        -0.156292015576881    1.167e-04    0.031950    0.000000    0.000000    0.000000
    10        -0.156291130123945    5.776e-05    0.031937    0.000000    0.000000    0.000000
    11        -0.156291916210224    2.532e-05    0.031938    0.000000    0.000000    0.000000
    12        -0.156292292035912    1.123e-05    0.031937    0.000000    0.000000    0.000000
    13        -0.156292537560779    5.259e-06    0.031937    0.000000    0.000000    0.000000
    14        -0.156292552765130    2.503e-06    0.031938    0.000000    0.000000    0.000000
    15        -0.156292523387834    1.382e-06    0.031938    0.000000    0.000000    0.000000
    16        -0.156292504932958    6.615e-07    0.031938    0.000000    0.000000    0.000000
    17        -0.156292494682168    2.817e-07    0.031938    0.000000    0.000000    0.000000
    18        -0.156292495158754    1.326e-07    0.031938    0.000000    0.000000    0.000000
    19        -0.156292496486738    6.571e-08    0.031938    0.000000    0.000000    0.000000
    19        -0.156292496486738    6.571e-08    0.031938    0.000000    0.000000    0.000000

    Iterations converged.


    CCSD corr. energy   =   -0.156292496486738
    PPL corr. energy    =    0.044722387663501
    OS PPL corr. energy =    0.037424060416777
    SS PPL corr. energy =    0.007298327246727
    Largest TIA Amplitudes:
              2  63        -0.0408365211
              3  92        -0.0408358788
              2  64        -0.0146302654
              3  93        -0.0146301183
              1   1        -0.0129422496
              0   1         0.0071641101
              1   5         0.0067503252
              0   7        -0.0063885177
              1   2        -0.0058073241
              1  10        -0.0052953805

    Largest Tia Amplitudes:
              1   7        -0.0148971189
              0   6        -0.0141517338
              0   8        -0.0133024736
              0  10        -0.0131609886
              1  15         0.0110527618
              1   5        -0.0092226139
              0   3         0.0091496047
              1   2         0.0083046108
              1   3        -0.0081971610
              0  16         0.0080919960

    Largest TIJAB Amplitudes:
      3   2  92  63        -0.0342170024
      3   2  95  66        -0.0331046654
      3   2  95  63        -0.0288975300
      3   2  92  66        -0.0288974904
      2   1  66   8         0.0172501632
      3   1  95   8         0.0172501627
      3   2  47   4        -0.0168080564
      2   1  64   8         0.0156783519
      3   1  93   8         0.0156783454
      2   1  66   7         0.0155778088

    Largest Tijab Amplitudes:
      1   0   7   6        -0.0079973917
      1   0   6   1        -0.0068833489
      1   0  95  94         0.0067669249
      1   0  65  64         0.0067669247
      1   0  98  94        -0.0061422135
      1   0  68  64        -0.0061422131
      1   0  68  66        -0.0056886889
      1   0  98  96        -0.0056886887
      1   0  66  65        -0.0053323412
      1   0  96  95        -0.0053323412

    Largest TIjAb Amplitudes:
      1   1   8   8        -0.0508780020
      1   1   8   3         0.0291869264
      1   1   3   8         0.0289030165
      1   1   7   7        -0.0282287791
      2   1  63   1        -0.0257876336
      3   1  92   1        -0.0257875942
      2   1  66   7         0.0257279001
      3   1  95   7         0.0257278980
      1   1   3   3        -0.0239454831
      1   1   8  10        -0.0237498835

    SCF energy       (wfn)                    =  -38.299640608350870
    Reference energy (file100)                =  -38.299640608350984

    Opposite-spin MP2 correlation energy      =   -0.107076161222952
    Same-spin MP2 correlation energy          =   -0.033207482279722
    MP2 correlation energy                    =   -0.140283643502805
      * MP2 total energy                      =  -38.439924251853789

    Opposite-spin CCSD correlation energy     =   -0.122543929441721
    Same-spin CCSD correlation energy         =   -0.033748576253437
    CCSD correlation energy                   =   -0.156292496486738
      * CCSD total energy                     =  -38.455933104837719


*** tstop() called on cqc05 at Thu Aug 20 20:20:04 2020
Module time:
	user time   =       4.23 seconds =       0.07 minutes
	system time =       4.62 seconds =       0.08 minutes
	total time  =         11 seconds =       0.18 minutes
Total time:
	user time   =      15.18 seconds =       0.25 minutes
	system time =       8.29 seconds =       0.14 minutes
	total time  =         25 seconds =       0.42 minutes

*** Psi4 exiting successfully. Buy a developer a beer!
