
    -----------------------------------------------------------------------
          Psi4: An Open-Source Ab Initio Electronic Structure Package
                               Psi4 1.4a3.dev88 

                         Git: Rev {master} 262e345 


    D. G. A. Smith, L. A. Burns, A. C. Simmonett, R. M. Parrish,
    M. C. Schieber, R. Galvelis, P. Kraus, H. Kruse, R. Di Remigio,
    A. Alenaizan, A. M. James, S. Lehtola, J. P. Misiewicz, M. Scheurer,
    R. A. Shaw, J. B. Schriber, Y. Xie, Z. L. Glick, D. A. Sirianni,
    J. S. O'Brien, J. M. Waldrop, A. Kumar, E. G. Hohenstein,
    B. P. Pritchard, B. R. Brooks, H. F. Schaefer III, A. Yu. Sokolov,
    K. Patkowski, A. E. DePrince III, U. Bozkaya, R. A. King,
    F. A. Evangelista, J. M. Turney, T. D. Crawford, C. D. Sherrill,
    J. Chem. Phys. 152(18) 184108 (2020). https://doi.org/10.1063/5.0006002

                            Additional Code Authors
    E. T. Seidl, C. L. Janssen, E. F. Valeev, M. L. Leininger,
    J. F. Gonthier, R. M. Richard, H. R. McAlexander, M. Saitow, X. Wang,
    P. Verma, and M. H. Lechner

             Previous Authors, Complete List of Code Contributors,
                       and Citations for Specific Modules
    https://github.com/psi4/psi4/blob/master/codemeta.json
    https://github.com/psi4/psi4/graphs/contributors
    http://psicode.org/psi4manual/master/introduction.html#citing-psifour

    -----------------------------------------------------------------------


    Psi4 started on: Tuesday, 26 January 2021 06:15PM

    Process ID: 405171
    Host:       n412-040.vsc4.prov
    PSIDATADIR: /home/fs71337/gallo4/psi4/eri-6/psi4/build/stage/share/psi4
    Memory:     500.0 MiB
    Threads:    48
    
  ==> Input File <==

--------------------------------------------------------------------------
# Any line starting with the # character is a comment line
memory 250000 mb
molecule molecule{
0 1
O         -0.7244270781        0.0593002388       -0.0313570792
O          0.7244270781       -0.0593002388       -0.0313570792
H         -0.9500122316       -0.7177793110        0.4977423786
H          0.9500122316        0.7177793110        0.4977423786
}

set {
  reference rhf
  basis aug-cc-pV(t+d)Z
  scf_type OUT_OF_CORE
  freeze_core true
}

energy('ccsd(t)')
--------------------------------------------------------------------------

  Memory set to 232.831 GiB by Python driver.

Scratch directory: /binfl/lv71337/airmler/temp/

*** tstart() called on n412-040.vsc4.prov
*** at Tue Jan 26 18:15:21 2021

   => Loading Basis Set <=

    Name: AUG-CC-PV(T+D)Z
    Role: ORBITAL
    Keyword: BASIS
    atoms 1-2 entry O          line   359 file /home/fs71337/gallo4/psi4/eri-6/psi4/build/stage/share/psi4/basis/aug-cc-pv_tpd_z.gbs 
    atoms 3-4 entry H          line    68 file /home/fs71337/gallo4/psi4/eri-6/psi4/build/stage/share/psi4/basis/aug-cc-pv_tpd_z.gbs 


         ---------------------------------------------------------
                                   SCF
               by Justin Turney, Rob Parrish, Andy Simmonett
                          and Daniel G. A. Smith
                              RHF Reference
                       48 Threads, 238418 MiB Core
         ---------------------------------------------------------

  ==> Geometry <==

    Molecular point group: c2
    Full point group: C2

    Geometry (in Angstrom), charge = 0, multiplicity = 1:

       Center              X                  Y                   Z               Mass       
    ------------   -----------------  -----------------  -----------------  -----------------
         O           -0.724427078100     0.059300238800    -0.031361985717    15.994914619570
         O            0.724427078100    -0.059300238800    -0.031361985717    15.994914619570
         H           -0.950012231600    -0.717779311000     0.497737472083     1.007825032230
         H            0.950012231600     0.717779311000     0.497737472083     1.007825032230

  Running in c2 symmetry.

  Rotational constants: A =     10.02358  B =      0.88084  C =      0.85320 [cm^-1]
  Rotational constants: A = 300499.43657  B =  26406.97606  C =  25578.15126 [MHz]
  Nuclear repulsion =   36.791784343419465

  Charge       = 0
  Multiplicity = 1
  Electrons    = 18
  Nalpha       = 9
  Nbeta        = 9

  ==> Algorithm <==

  SCF Algorithm Type is OUT_OF_CORE.
  DIIS enabled.
  MOM disabled.
  Fractional occupation disabled.
  Guess Type is SAD.
  Energy threshold   = 1.00e-08
  Density threshold  = 1.00e-08
  Integral threshold = 1.00e-12

  ==> Primary Basis <==

  Basis Set: AUG-CC-PV(T+D)Z
    Blend: AUG-CC-PV(T+D)Z
    Number of shells: 46
    Number of basis function: 138
    Number of Cartesian functions: 160
    Spherical Harmonics?: true
    Max angular momentum: 3

  ==> Integral Setup <==

  ==> DiskJK: Disk-Based J/K Matrices <==

    J tasked:                  Yes
    K tasked:                  Yes
    wK tasked:                  No
    Memory [MiB]:           178813
    Schwarz Cutoff:          1E-12

  Minimum eigenvalue in the overlap matrix is 2.9733292449E-04.
  Reciprocal condition number of the overlap matrix is 4.6134710773E-05.
    Using symmetric orthogonalization.

  ==> Pre-Iterations <==

  SCF Guess: Superposition of Atomic Densities via on-the-fly atomic UHF (no occupation information).


 WARNING: Atomic UHF is not converging! Try casting from a smaller basis or call Rob at CCMST.

 WARNING: Atomic UHF is not converging! Try casting from a smaller basis or call Rob at CCMST.
   -------------------------
    Irrep   Nso     Nmo    
   -------------------------
     A         69      69 
     B         69      69 
   -------------------------
    Total     138     138
   -------------------------

  ==> Iterations <==

                        Total Energy        Delta E     RMS |[F,P]|

   @RHF iter SAD:  -132.34904371629131   -1.32349e+02   0.00000e+00 
   @RHF iter   1:  -150.36680239438658   -1.80178e+01   1.04440e-02 DIIS
   @RHF iter   2:  -150.69635473012266   -3.29552e-01   6.44052e-03 DIIS
   @RHF iter   3:  -150.82845718389711   -1.32102e-01   7.43942e-04 DIIS
   @RHF iter   4:  -150.83636467141008   -7.90749e-03   3.25228e-04 DIIS
   @RHF iter   5:  -150.83850906931184   -2.14440e-03   1.11007e-04 DIIS
   @RHF iter   6:  -150.83875521403115   -2.46145e-04   4.67896e-05 DIIS
   @RHF iter   7:  -150.83881031056274   -5.50965e-05   1.39837e-05 DIIS
   @RHF iter   8:  -150.83881471086778   -4.40031e-06   2.45254e-06 DIIS
   @RHF iter   9:  -150.83881479163023   -8.07624e-08   4.16459e-07 DIIS
   @RHF iter  10:  -150.83881479416405   -2.53382e-09   1.12126e-07 DIIS
   @RHF iter  11:  -150.83881479434410   -1.80052e-10   2.37713e-08 DIIS
   @RHF iter  12:  -150.83881479435132   -7.21911e-12   6.93332e-09 DIIS
  Energy and wave function converged.


  ==> Post-Iterations <==

    Orbital Energies [Eh]
    ---------------------

    Doubly Occupied:                                                      

       1A    -20.634118     1B    -20.633836     2A     -1.476351  
       2B     -1.215876     3A     -0.713498     3B     -0.712120  
       4A     -0.609759     5A     -0.520323     4B     -0.488859  

    Virtual:                                                              

       6A      0.032537     5B      0.041788     6B      0.110218  
       7A      0.131718     7B      0.157516     8A      0.170391  
       9A      0.186764     8B      0.194123    10A      0.199188  
       9B      0.225802    11A      0.251211    10B      0.271851  
      11B      0.323227    12B      0.342246    12A      0.344956  
      13A      0.369489    13B      0.371359    14A      0.434265  
      14B      0.450214    15B      0.615576    15A      0.644633  
      16A      0.699765    16B      0.724230    17A      0.764520  
      18A      0.783735    17B      0.786629    18B      0.793540  
      19A      0.806668    19B      0.836702    20A      0.861878  
      20B      0.902722    21A      0.935062    22A      0.939774  
      21B      0.955794    23A      0.989601    22B      0.998436  
      24A      1.014497    23B      1.017939    25A      1.026047  
      24B      1.048218    25B      1.103435    26A      1.155572  
      26B      1.240179    27B      1.309063    27A      1.354999  
      28B      1.378079    28A      1.449767    29B      1.526090  
      30B      1.542235    29A      1.564625    30A      1.674524  
      31A      1.831096    31B      1.942411    32A      1.993056  
      33A      2.033279    32B      2.115832    34A      2.117639  
      35A      2.244733    33B      2.247760    34B      2.265215  
      35B      2.308894    36A      2.364583    37A      2.389280  
      36B      2.438190    37B      2.489961    38A      2.535813  
      39A      2.572183    38B      2.589143    40A      2.647033  
      39B      2.709953    40B      2.717227    41B      2.791937  
      41A      2.808683    42A      2.922925    42B      2.931133  
      43A      3.146294    43B      3.207196    44A      3.212245  
      44B      3.280717    45A      3.722204    45B      3.811326  
      46A      4.113482    47A      4.170568    46B      4.206192  
      47B      4.217770    48A      4.261708    48B      4.325051  
      49A      4.446781    49B      4.449288    50A      4.472315  
      50B      4.556226    51A      4.733346    51B      4.759569  
      52A      4.909525    52B      5.043977    53A      5.200567  
      53B      5.297118    54A      5.297643    55A      5.415159  
      54B      5.417695    55B      5.833320    56A      6.181369  
      56B      6.370508    57A      6.398498    58A      6.478042  
      57B      6.622365    59A      6.653221    58B      6.738785  
      59B      6.927580    60A      6.946341    60B      7.064919  
      61A      7.174913    62A      7.189620    61B      7.216264  
      63A      7.232584    64A      7.250266    62B      7.264238  
      63B      7.289143    64B      7.337055    65A      7.413970  
      66A      7.549948    65B      7.581231    66B      7.817470  
      67A      7.999626    67B      8.146657    68B      8.459907  
      68A      8.535618    69A     14.240685    69B     15.393539  

    Final Occupation by Irrep:
              A     B 
    DOCC [     5,    4 ]

  @RHF Final Energy:  -150.83881479435132

   => Energetics <=

    Nuclear Repulsion Energy =             36.7917843434194651
    One-Electron Energy =                -281.2517190432073448
    Two-Electron Energy =                  93.6211199054365579
    Total Energy =                       -150.8388147943513218

Computation Completed


Properties will be evaluated at   0.000000,   0.000000,   0.000000 [a0]

Properties computed using the SCF density matrix

  Nuclear Dipole Moment: [e a0]
     X:     0.0000      Y:     0.0000      Z:     0.9329

  Electronic Dipole Moment: [e a0]
     X:     0.0000      Y:     0.0000      Z:    -0.1941

  Dipole Moment: [e a0]
     X:     0.0000      Y:     0.0000      Z:     0.7389     Total:     0.7389

  Dipole Moment: [D]
     X:     0.0000      Y:     0.0000      Z:     1.8780     Total:     1.8780


*** tstop() called on n412-040.vsc4.prov at Tue Jan 26 18:15:40 2021
Module time:
	user time   =      38.25 seconds =       0.64 minutes
	system time =       2.82 seconds =       0.05 minutes
	total time  =         19 seconds =       0.32 minutes
Total time:
	user time   =      38.25 seconds =       0.64 minutes
	system time =       2.82 seconds =       0.05 minutes
	total time  =         19 seconds =       0.32 minutes

*** tstart() called on n412-040.vsc4.prov
*** at Tue Jan 26 18:15:40 2021


	Wfn Parameters:
	--------------------
	Wavefunction         = CCSD_T
	Number of irreps     = 2
	Number of MOs        = 138
	Number of active MOs = 136
	AO-Basis             = NONE
	Semicanonical        = false
	Reference            = RHF
	Print Level          = 1

	IRREP	# MOs	# FZDC	# DOCC	# SOCC	# VIRT	# FZVR
	-----	-----	------	------	------	------	------
	 A	   69	    1	    4	    0	    64	    0
	 B	   69	    1	    3	    0	    65	    0
	Transforming integrals...
	IWL integrals will be deleted.
	(OO|OO)...
	Presorting SO-basis two-electron integrals.
	Sorting File: SO Ints (nn|nn) nbuckets = 1
	Constructing frozen core operators
	Starting first half-transformation.
	Sorting half-transformed integrals.
	First half integral transformation complete.
	Starting second half-transformation.
	Two-electron integral transformation complete.
	(OO|OV)...
	Starting second half-transformation.
	Two-electron integral transformation complete.
	(OO|VV)...
	Starting second half-transformation.
	Two-electron integral transformation complete.
	(OV|OO)...
	Starting first half-transformation.
	Sorting half-transformed integrals.
	First half integral transformation complete.
	Starting second half-transformation.
	Two-electron integral transformation complete.
	(OV|OV)...
	Starting second half-transformation.
	Two-electron integral transformation complete.
	(OV|VV)...
	Starting second half-transformation.
	Two-electron integral transformation complete.
	(VV|OO)...
	Starting first half-transformation.
	Sorting half-transformed integrals.
	First half integral transformation complete.
	Starting second half-transformation.
	Two-electron integral transformation complete.
	(VV|OV)...
	Starting second half-transformation.
	Two-electron integral transformation complete.
	(VV|VV)...
	Starting second half-transformation.
	Two-electron integral transformation complete.
	Frozen core energy     =   -131.72257585431802

	Size of irrep 0 of <ab|cd> integrals:     69.239 (MW) /    553.912 (MB)
	Size of irrep 1 of <ab|cd> integrals:     69.222 (MW) /    553.779 (MB)
	Total:                                   138.461 (MW) /   1107.692 (MB)

	Size of irrep 0 of <ia|bc> integrals:      3.753 (MW) /     30.022 (MB)
	Size of irrep 1 of <ia|bc> integrals:      3.761 (MW) /     30.085 (MB)
	Total:                                     7.513 (MW) /     60.107 (MB)

	Size of irrep 0 of tijab amplitudes:       0.208 (MW) /      1.664 (MB)
	Size of irrep 1 of tijab amplitudes:       0.200 (MW) /      1.597 (MB)
	Total:                                     0.408 (MW) /      3.262 (MB)

	Nuclear Rep. energy          =     36.79178434341947
	SCF energy                   =   -150.83881479435132
	One-electron energy          =   -100.34247516353850
	Two-electron energy          =     44.43445188008509
	Reference energy             =   -150.83881479435195

*** tstop() called on n412-040.vsc4.prov at Tue Jan 26 18:16:08 2021
Module time:
	user time   =      10.57 seconds =       0.18 minutes
	system time =       3.86 seconds =       0.06 minutes
	total time  =         28 seconds =       0.47 minutes
Total time:
	user time   =      48.82 seconds =       0.81 minutes
	system time =       6.68 seconds =       0.11 minutes
	total time  =         47 seconds =       0.78 minutes
            **************************
            *                        *
            *        CCENERGY        *
            *                        *
            **************************

    Nuclear Rep. energy (wfn)     =   36.791784343419465
    SCF energy          (wfn)     = -150.838814794351322
    Reference energy    (file100) = -150.838814794351947

    Input parameters:
    -----------------
    Wave function   =     CCSD_T
    Reference wfn   =     RHF
    Brueckner       =     No
    Memory (Mbytes) =     250000.0
    Maxiter         =     50
    R_Convergence   =     1.0e-07
    E_Convergence   =     1.0e-06
    Restart         =     Yes
    DIIS            =     Yes
    AO Basis        =     NONE
    ABCD            =     NEW
    Cache Level     =     2
    Cache Type      =     LOW
    Print Level     =     1
    Num. of threads =     48
    # Amps to Print =     10
    Print MP2 Amps? =     No
    Analyze T2 Amps =     No
    Print Pair Ener =     No
    Local CC        =     No
    SCS-MP2         =     False
    SCSN-MP2        =     False
    SCS-CCSD        =     False

MP2 correlation energy -0.5091717233446447
                Solving CC Amplitude Equations
                ------------------------------
  Iter             Energy              RMS        T1Diag      D1Diag    New D1Diag    D2Diag
  ----     ---------------------    ---------   ----------  ----------  ----------   --------
     0        -0.509171723344645    0.000e+00    0.000000    0.000000    0.000000    0.162778
     1        -0.499680442663758    5.546e-02    0.010129    0.019345    0.019345    0.160153
     2        -0.512237492574387    2.181e-02    0.010264    0.019775    0.019775    0.171261
     3        -0.515352083716959    8.603e-03    0.012161    0.023835    0.023835    0.177050
     4        -0.515136108636133    2.042e-03    0.012396    0.024268    0.024268    0.177946
     5        -0.515224059414940    9.240e-04    0.012550    0.024585    0.024585    0.178432
     6        -0.515236340615602    3.254e-04    0.012588    0.024636    0.024636    0.178469
     7        -0.515227609044242    1.525e-04    0.012597    0.024630    0.024630    0.178452
     8        -0.515227865829542    6.974e-05    0.012603    0.024630    0.024630    0.178453
     9        -0.515229156484975    3.416e-05    0.012604    0.024628    0.024628    0.178452
    10        -0.515227012563915    1.805e-05    0.012604    0.024625    0.024625    0.178451
    11        -0.515228084794166    8.359e-06    0.012604    0.024625    0.024625    0.178452
    12        -0.515227932503693    2.931e-06    0.012604    0.024625    0.024625    0.178452
    13        -0.515228041872057    1.096e-06    0.012604    0.024626    0.024626    0.178452
    14        -0.515228076079236    3.290e-07    0.012604    0.024626    0.024626    0.178452
    15        -0.515228065299969    1.175e-07    0.012604    0.024626    0.024626    0.178452
    16        -0.515228066229504    4.733e-08    0.012604    0.024626    0.024626    0.178452

    Iterations converged.


    Largest TIA Amplitudes:
              6  67         0.0124350317
              5  72        -0.0105656653
              5  66        -0.0099890768
              3   5        -0.0093030768
              2   1         0.0091396982
              1   7        -0.0077350435
              3   2         0.0075707170
              1   1         0.0074939084
              6  68        -0.0073806732
              3   4        -0.0071130103

    Largest TIjAb Amplitudes:
      2   2  69  69        -0.0489572262
      1   2  69  69         0.0236346251
      2   1  69  69         0.0236346251
      1   1  69  69        -0.0224480992
      2   2  69  72         0.0224344581
      2   2  72  69         0.0224344581
      3   3  69  69        -0.0204571161
      2   2  66  69         0.0169449178
      2   2  69  66         0.0169449178
      6   6  69  69        -0.0161719521

    SCF energy       (wfn)                    = -150.838814794351322
    Reference energy (file100)                = -150.838814794351947

    Opposite-spin MP2 correlation energy      =   -0.383022109648206
    Same-spin MP2 correlation energy          =   -0.126149613696439
    Singles MP2 correlation energy            =   -0.000000000000000
    MP2 correlation energy                    =   -0.509171723344645
      * MP2 total energy                      = -151.347986517696597

    Opposite-spin CCSD correlation energy     =   -0.405073213705529
    Same-spin CCSD correlation energy         =   -0.110154852523975
    Singles CCSD correlation energy           =    0.000000000000000
    CCSD correlation energy                   =   -0.515228066229504
      * CCSD total energy                     = -151.354042860581444

            **************************
            *                        *
            *        CCTRIPLES       *
            *                        *
            **************************


    Wave function   =    CCSD_T
    Reference wfn   =      RHF

    Nuclear Rep. energy (wfn)                =   36.791784343419465
    SCF energy          (wfn)                = -150.838814794351322
    Reference energy    (file100)            = -150.838814794351947
    CCSD energy         (file100)            =   -0.515228066229504
    Total CCSD energy   (file100)            = -151.354042860581444

    Number of ijk index combinations:               84
    Memory available in words        :     31250000000
    ~Words needed per explicit thread:         1098500
    Number of threads for explicit ijk threading:   48

    (T) energy                                =   -0.020217302092316
      * CCSD(T) total energy                  = -151.374260162673778


    Psi4 stopped on: Tuesday, 26 January 2021 06:16PM
    Psi4 wall time for execution: 0:01:20.37

*** Psi4 exiting successfully. Buy a developer a beer!
