
    -----------------------------------------------------------------------
          Psi4: An Open-Source Ab Initio Electronic Structure Package
                               Psi4 1.4a3.dev88 

                         Git: Rev {master} 262e345 


    D. G. A. Smith, L. A. Burns, A. C. Simmonett, R. M. Parrish,
    M. C. Schieber, R. Galvelis, P. Kraus, H. Kruse, R. Di Remigio,
    A. Alenaizan, A. M. James, S. Lehtola, J. P. Misiewicz, M. Scheurer,
    R. A. Shaw, J. B. Schriber, Y. Xie, Z. L. Glick, D. A. Sirianni,
    J. S. O'Brien, J. M. Waldrop, A. Kumar, E. G. Hohenstein,
    B. P. Pritchard, B. R. Brooks, H. F. Schaefer III, A. Yu. Sokolov,
    K. Patkowski, A. E. DePrince III, U. Bozkaya, R. A. King,
    F. A. Evangelista, J. M. Turney, T. D. Crawford, C. D. Sherrill,
    J. Chem. Phys. 152(18) 184108 (2020). https://doi.org/10.1063/5.0006002

                            Additional Code Authors
    E. T. Seidl, C. L. Janssen, E. F. Valeev, M. L. Leininger,
    J. F. Gonthier, R. M. Richard, H. R. McAlexander, M. Saitow, X. Wang,
    P. Verma, and M. H. Lechner

             Previous Authors, Complete List of Code Contributors,
                       and Citations for Specific Modules
    https://github.com/psi4/psi4/blob/master/codemeta.json
    https://github.com/psi4/psi4/graphs/contributors
    http://psicode.org/psi4manual/master/introduction.html#citing-psifour

    -----------------------------------------------------------------------


    Psi4 started on: Wednesday, 20 January 2021 07:17PM

    Process ID: 180729
    Host:       n412-037.vsc4.prov
    PSIDATADIR: /home/fs71337/gallo4/psi4/psi4/build/stage/share/psi4
    Memory:     500.0 MiB
    Threads:    48
    
  ==> Input File <==

--------------------------------------------------------------------------
# Any line starting with the # character is a comment line
memory 250000 mb
molecule molecule{
0 1
O         -0.7244270781        0.0593002388       -0.0313570792
O          0.7244270781       -0.0593002388       -0.0313570792
H         -0.9500122316       -0.7177793110        0.4977423786
H          0.9500122316        0.7177793110        0.4977423786
}

set {
  reference rhf
  basis aug-cc-pv(q+d)z
  scf_type OUT_OF_CORE
  freeze_core true
}

energy('ccsd(t)')
--------------------------------------------------------------------------

  Memory set to 232.831 GiB by Python driver.

Scratch directory: /binfl/lv71337/airmler/temp/

*** tstart() called on n412-037.vsc4.prov
*** at Wed Jan 20 19:17:03 2021

   => Loading Basis Set <=

    Name: AUG-CC-PV(Q+D)Z
    Role: ORBITAL
    Keyword: BASIS
    atoms 1-2 entry O          line   451 file /home/fs71337/gallo4/psi4/psi4/build/stage/share/psi4/basis/aug-cc-pv_qpd_z.gbs 
    atoms 3-4 entry H          line    68 file /home/fs71337/gallo4/psi4/psi4/build/stage/share/psi4/basis/aug-cc-pv_qpd_z.gbs 


         ---------------------------------------------------------
                                   SCF
               by Justin Turney, Rob Parrish, Andy Simmonett
                          and Daniel G. A. Smith
                              RHF Reference
                       48 Threads, 238418 MiB Core
         ---------------------------------------------------------

  ==> Geometry <==

    Molecular point group: c2
    Full point group: C2

    Geometry (in Angstrom), charge = 0, multiplicity = 1:

       Center              X                  Y                   Z               Mass       
    ------------   -----------------  -----------------  -----------------  -----------------
         O           -0.724427078100     0.059300238800    -0.031361985717    15.994914619570
         O            0.724427078100    -0.059300238800    -0.031361985717    15.994914619570
         H           -0.950012231600    -0.717779311000     0.497737472083     1.007825032230
         H            0.950012231600     0.717779311000     0.497737472083     1.007825032230

  Running in c2 symmetry.

  Rotational constants: A =     10.02358  B =      0.88084  C =      0.85320 [cm^-1]
  Rotational constants: A = 300499.43657  B =  26406.97606  C =  25578.15126 [MHz]
  Nuclear repulsion =   36.791784343419465

  Charge       = 0
  Multiplicity = 1
  Electrons    = 18
  Nalpha       = 9
  Nbeta        = 9

  ==> Algorithm <==

  SCF Algorithm Type is OUT_OF_CORE.
  DIIS enabled.
  MOM disabled.
  Fractional occupation disabled.
  Guess Type is SAD.
  Energy threshold   = 1.00e-08
  Density threshold  = 1.00e-08
  Integral threshold = 1.00e-12

  ==> Primary Basis <==

  Basis Set: AUG-CC-PV(Q+D)Z
    Blend: AUG-CC-PV(Q+D)Z
    Number of shells: 68
    Number of basis function: 252
    Number of Cartesian functions: 320
    Spherical Harmonics?: true
    Max angular momentum: 4

  ==> Integral Setup <==

  ==> DiskJK: Disk-Based J/K Matrices <==

    J tasked:                  Yes
    K tasked:                  Yes
    wK tasked:                  No
    Memory [MiB]:           178813
    Schwarz Cutoff:          1E-12

  Minimum eigenvalue in the overlap matrix is 7.2520901022E-05.
  Reciprocal condition number of the overlap matrix is 9.7268555375E-06.
    Using symmetric orthogonalization.

  ==> Pre-Iterations <==

  SCF Guess: Superposition of Atomic Densities via on-the-fly atomic UHF (no occupation information).


 WARNING: Atomic UHF is not converging! Try casting from a smaller basis or call Rob at CCMST.

 WARNING: Atomic UHF is not converging! Try casting from a smaller basis or call Rob at CCMST.
   -------------------------
    Irrep   Nso     Nmo    
   -------------------------
     A        126     126 
     B        126     126 
   -------------------------
    Total     252     252
   -------------------------

  ==> Iterations <==

                        Total Energy        Delta E     RMS |[F,P]|

   @RHF iter SAD:  -137.56370020610308   -1.37564e+02   0.00000e+00 
   @RHF iter   1:  -150.17998807082219   -1.26163e+01   7.24280e-03 DIIS
   @RHF iter   2:  -150.64357110531759   -4.63583e-01   4.37367e-03 DIIS
   @RHF iter   3:  -150.84373024503404   -2.00159e-01   3.17024e-04 DIIS
   @RHF iter   4:  -150.84715065511344   -3.42041e-03   1.38216e-04 DIIS
   @RHF iter   5:  -150.84830796433309   -1.15731e-03   6.98883e-05 DIIS
   @RHF iter   6:  -150.84869251956687   -3.84555e-04   2.29283e-05 DIIS
   @RHF iter   7:  -150.84873595433697   -4.34348e-05   5.88925e-06 DIIS
   @RHF iter   8:  -150.84873816649485   -2.21216e-06   1.33253e-06 DIIS
   @RHF iter   9:  -150.84873825003643   -8.35416e-08   2.31328e-07 DIIS
   @RHF iter  10:  -150.84873825197516   -1.93873e-09   5.15659e-08 DIIS
   @RHF iter  11:  -150.84873825208939   -1.14227e-10   1.39986e-08 DIIS
   @RHF iter  12:  -150.84873825209755   -8.15703e-12   2.64108e-09 DIIS
  Energy and wave function converged.


  ==> Post-Iterations <==

    Orbital Energies [Eh]
    ---------------------

    Doubly Occupied:                                                      

       1A    -20.631398     1B    -20.631109     2A     -1.475339  
       2B     -1.215020     3A     -0.713381     3B     -0.712011  
       4A     -0.609671     5A     -0.520365     4B     -0.488939  

    Virtual:                                                              

       6A      0.029506     5B      0.037953     6B      0.092615  
       7A      0.110526     7B      0.137464     8A      0.145300  
       9A      0.157103     8B      0.164005    10A      0.167339  
       9B      0.184137    11A      0.199588    10B      0.243857  
      11B      0.261223    12B      0.276482    12A      0.282486  
      13A      0.304221    13B      0.330434    14A      0.354336  
      14B      0.374880    15B      0.485284    15A      0.485292  
      16A      0.530409    16B      0.553682    17A      0.561271  
      17B      0.563438    18A      0.583061    18B      0.593180  
      19A      0.610245    19B      0.617399    20A      0.630178  
      20B      0.658430    21A      0.689917    21B      0.708835  
      22A      0.718653    23A      0.738008    24A      0.741001  
      22B      0.742444    25A      0.779993    23B      0.784121  
      24B      0.798055    25B      0.815482    26A      0.867332  
      26B      0.941190    27B      1.009952    27A      1.035225  
      28B      1.036470    28A      1.092079    29B      1.132324  
      29A      1.151536    30B      1.193539    30A      1.213394  
      31A      1.320617    31B      1.392671    32A      1.458260  
      33A      1.485144    32B      1.488456    34A      1.505767  
      33B      1.506921    34B      1.547937    35A      1.566088  
      35B      1.572020    36A      1.595493    37A      1.617535  
      36B      1.633733    37B      1.672323    38A      1.673565  
      39A      1.693733    40A      1.709255    38B      1.709257  
      39B      1.732444    41A      1.785955    40B      1.802194  
      42A      1.802410    41B      1.819249    42B      1.851549  
      43A      1.902930    43B      1.924715    44A      1.929441  
      44B      1.967503    45A      1.969834    45B      2.010280  
      46B      2.068249    46A      2.085807    47A      2.149052  
      47B      2.162305    48A      2.186643    49A      2.223025  
      48B      2.236536    49B      2.280063    50A      2.317904  
      50B      2.366707    51B      2.428386    51A      2.430381  
      52B      2.630227    52A      2.653746    53A      2.750563  
      53B      2.855273    54A      2.866617    54B      2.987569  
      55A      3.010695    56A      3.053976    55B      3.069440  
      56B      3.123032    57B      3.185408    57A      3.189011  
      58A      3.262221    58B      3.335691    59A      3.411392  
      59B      3.432457    60A      3.652487    60B      3.733624  
      61A      3.738820    61B      3.751934    62A      3.788649  
      63A      3.881856    62B      3.890082    64A      3.915577  
      63B      4.009197    65A      4.009418    66A      4.106651  
      64B      4.109166    65B      4.159033    67A      4.170940  
      68A      4.192082    66B      4.198127    69A      4.248679  
      67B      4.251598    68B      4.312859    70A      4.361352  
      69B      4.393772    71A      4.454094    70B      4.459001  
      72A      4.472096    73A      4.558218    71B      4.566217  
      72B      4.584618    73B      4.711135    74A      4.751696  
      75A      4.799972    74B      4.811735    75B      4.847552  
      76A      4.973349    76B      5.070454    77A      5.120049  
      77B      5.137743    78B      5.195285    78A      5.242212  
      79B      5.296207    79A      5.380605    80A      5.436543  
      80B      5.439309    81A      5.550741    81B      5.663480  
      82A      5.686622    82B      5.876412    83B      5.984242  
      83A      6.070375    84A      6.261805    84B      6.359084  
      85A      6.433431    85B      6.850575    86A      6.857114  
      87A      6.948220    86B      7.004894    87B      7.169791  
      88A      7.765239    88B      7.783384    89A      7.818098  
      89B      7.830406    90A      7.919121    90B      7.923801  
      91B      8.008114    91A      8.010040    92A      8.126289  
      92B      8.150644    93A      8.611404    93B      8.629724  
      94B      8.640947    94A      8.774052    95B      8.815147  
      95A      8.852084    96B      8.901354    96A      8.958727  
      97A      9.125790    97B      9.375642    98A      9.862815  
      98B      9.864719    99A      9.910246    99B      9.937530  
     100B      9.982032   100A     10.029782   101A     10.614181  
     102A     10.708449   101B     10.763089   102B     10.859730  
     103A     10.863634   104A     10.984782   103B     10.993289  
     105A     11.030084   104B     11.079345   106A     11.121592  
     105B     11.131155   106B     11.259122   107A     11.294678  
     108A     11.333981   107B     11.411894   108B     11.609103  
     109A     11.638124   110A     11.660978   109B     11.694626  
     111A     11.812230   110B     11.834754   111B     11.903284  
     112A     11.997345   112B     12.165521   113A     12.172737  
     113B     12.225930   114A     12.268290   114B     12.275140  
     115B     12.340928   115A     12.349354   116B     12.536738  
     116A     12.727759   117B     12.803598   117A     12.807785  
     118A     12.926842   118B     12.948360   119B     13.201326  
     119A     13.291703   120B     13.632615   120A     13.721422  
     121A     14.256801   121B     14.268020   122B     14.572485  
     122A     14.573044   123A     14.595930   123B     14.648174  
     124A     14.690898   124B     15.459810   125A     17.028449  
     125B     17.044983   126A     43.957411   126B     45.619346  

    Final Occupation by Irrep:
              A     B 
    DOCC [     5,    4 ]

  @RHF Final Energy:  -150.84873825209755

   => Energetics <=

    Nuclear Repulsion Energy =             36.7917843434194651
    One-Electron Energy =                -281.2865826103400195
    Two-Electron Energy =                  93.6460600148230355
    Total Energy =                       -150.8487382520975189

Computation Completed


Properties will be evaluated at   0.000000,   0.000000,   0.000000 [a0]

Properties computed using the SCF density matrix

  Nuclear Dipole Moment: [e a0]
     X:     0.0000      Y:     0.0000      Z:     0.9329

  Electronic Dipole Moment: [e a0]
     X:     0.0000      Y:     0.0000      Z:    -0.1953

  Dipole Moment: [e a0]
     X:     0.0000      Y:     0.0000      Z:     0.7376     Total:     0.7376

  Dipole Moment: [D]
     X:     0.0000      Y:     0.0000      Z:     1.8748     Total:     1.8748


*** tstop() called on n412-037.vsc4.prov at Wed Jan 20 19:20:30 2021
Module time:
	user time   =     152.93 seconds =       2.55 minutes
	system time =      22.40 seconds =       0.37 minutes
	total time  =        207 seconds =       3.45 minutes
Total time:
	user time   =     152.93 seconds =       2.55 minutes
	system time =      22.40 seconds =       0.37 minutes
	total time  =        207 seconds =       3.45 minutes

*** tstart() called on n412-037.vsc4.prov
*** at Wed Jan 20 19:20:30 2021


	Wfn Parameters:
	--------------------
	Wavefunction         = CCSD_T
	Number of irreps     = 2
	Number of MOs        = 252
	Number of active MOs = 250
	AO-Basis             = NONE
	Semicanonical        = false
	Reference            = RHF
	Print Level          = 1

	IRREP	# MOs	# FZDC	# DOCC	# SOCC	# VIRT	# FZVR
	-----	-----	------	------	------	------	------
	 A	   126	    1	    4	    0	    121	    0
	 B	   126	    1	    3	    0	    122	    0
	Transforming integrals...
	IWL integrals will be deleted.
	(OO|OO)...
	Presorting SO-basis two-electron integrals.
	Sorting File: SO Ints (nn|nn) nbuckets = 1
	Constructing frozen core operators
	Starting first half-transformation.
	Sorting half-transformed integrals.
	First half integral transformation complete.
	Starting second half-transformation.
	Two-electron integral transformation complete.
	(OO|OV)...
	Starting second half-transformation.
	Two-electron integral transformation complete.
	(OO|VV)...
	Starting second half-transformation.
	Two-electron integral transformation complete.
	(OV|OO)...
	Starting first half-transformation.
	Sorting half-transformed integrals.
	First half integral transformation complete.
	Starting second half-transformation.
	Two-electron integral transformation complete.
	(OV|OV)...
	Starting second half-transformation.
	Two-electron integral transformation complete.
	(OV|VV)...
	Starting second half-transformation.
	Two-electron integral transformation complete.
	(VV|OO)...
	Starting first half-transformation.
	Sorting half-transformed integrals.
	First half integral transformation complete.
	Starting second half-transformation.
	Two-electron integral transformation complete.
	(VV|OV)...
	Starting second half-transformation.
	Two-electron integral transformation complete.
	(VV|VV)...
	Starting second half-transformation.
	Two-electron integral transformation complete.
	Frozen core energy     =   -131.72511540082397

	Size of irrep 0 of <ab|cd> integrals:    871.726 (MW) /   6973.805 (MB)
	Size of irrep 1 of <ab|cd> integrals:    871.667 (MW) /   6973.333 (MB)
	Total:                                  1743.392 (MW) /  13947.138 (MB)

	Size of irrep 0 of <ia|bc> integrals:     25.096 (MW) /    200.770 (MB)
	Size of irrep 1 of <ia|bc> integrals:     25.125 (MW) /    200.999 (MB)
	Total:                                    50.221 (MW) /    401.769 (MB)

	Size of irrep 0 of tijab amplitudes:       0.738 (MW) /      5.905 (MB)
	Size of irrep 1 of tijab amplitudes:       0.709 (MW) /      5.669 (MB)
	Total:                                     1.447 (MW) /     11.574 (MB)

	Nuclear Rep. energy          =     36.79178434341947
	SCF energy                   =   -150.84873825209755
	One-electron energy          =   -100.36136403863117
	Two-electron energy          =     44.44595684393915
	Reference energy             =   -150.84873825209652

*** tstop() called on n412-037.vsc4.prov at Wed Jan 20 19:25:07 2021
Module time:
	user time   =     111.20 seconds =       1.85 minutes
	system time =      56.17 seconds =       0.94 minutes
	total time  =        277 seconds =       4.62 minutes
Total time:
	user time   =     264.13 seconds =       4.40 minutes
	system time =      78.57 seconds =       1.31 minutes
	total time  =        484 seconds =       8.07 minutes
            **************************
            *                        *
            *        CCENERGY        *
            *                        *
            **************************

    Nuclear Rep. energy (wfn)     =   36.791784343419465
    SCF energy          (wfn)     = -150.848738252097547
    Reference energy    (file100) = -150.848738252096524

    Input parameters:
    -----------------
    Wave function   =     CCSD_T
    Reference wfn   =     RHF
    Brueckner       =     No
    Memory (Mbytes) =     250000.0
    Maxiter         =     50
    R_Convergence   =     1.0e-07
    E_Convergence   =     1.0e-06
    Restart         =     Yes
    DIIS            =     Yes
    AO Basis        =     NONE
    ABCD            =     NEW
    Cache Level     =     2
    Cache Type      =     LOW
    Print Level     =     1
    Num. of threads =     48
    # Amps to Print =     10
    Print MP2 Amps? =     No
    Analyze T2 Amps =     No
    Print Pair Ener =     No
    Local CC        =     No
    SCS-MP2         =     False
    SCSN-MP2        =     False
    SCS-CCSD        =     False

MP2 correlation energy -0.5422844952345293
                Solving CC Amplitude Equations
                ------------------------------
  Iter             Energy              RMS        T1Diag      D1Diag    New D1Diag    D2Diag
  ----     ---------------------    ---------   ----------  ----------  ----------   --------
     0        -0.542284495234529    0.000e+00    0.000000    0.000000    0.000000    0.163704
     1        -0.528019862620090    5.462e-02    0.009800    0.019088    0.019088    0.159692
     2        -0.540737953979797    2.182e-02    0.009811    0.019058    0.019058    0.170616
     3        -0.543862493081970    8.423e-03    0.011613    0.022221    0.022221    0.176333
     4        -0.543652169669039    2.006e-03    0.011834    0.022628    0.022628    0.177192
     5        -0.543731268787898    9.298e-04    0.011986    0.022938    0.022938    0.177666
     6        -0.543746533994647    3.250e-04    0.012026    0.022990    0.022990    0.177706
     7        -0.543737761357757    1.543e-04    0.012036    0.022986    0.022986    0.177689
     8        -0.543737303608071    6.983e-05    0.012042    0.022987    0.022987    0.177689
     9        -0.543739146942990    3.499e-05    0.012044    0.022985    0.022985    0.177689
    10        -0.543736693555751    1.893e-05    0.012044    0.022983    0.022983    0.177687
    11        -0.543737776641210    8.771e-06    0.012044    0.022983    0.022983    0.177688
    12        -0.543737611891588    3.228e-06    0.012044    0.022983    0.022983    0.177688
    13        -0.543737699859689    1.213e-06    0.012044    0.022983    0.022983    0.177688
    14        -0.543737738888363    3.846e-07    0.012044    0.022983    0.022983    0.177688
    15        -0.543737726894780    1.378e-07    0.012044    0.022983    0.022983    0.177688
    16        -0.543737726400943    5.483e-08    0.012044    0.022983    0.022983    0.177688

    Iterations converged.


    Largest TIA Amplitudes:
              6 124        -0.0102343560
              5 129        -0.0097979183
              5 123         0.0081763306
              2   1        -0.0078762178
              3   5         0.0071046280
              5 135        -0.0063905699
              2  47        -0.0062345780
              1   7        -0.0061622237
              2  20         0.0061205353
              1   1        -0.0061117515

    Largest TIjAb Amplitudes:
      2   2 126 126        -0.0357731654
      2   2 126 129         0.0224945061
      2   2 129 126         0.0224945061
      1   2 126 126         0.0173847691
      2   1 126 126         0.0173847691
      1   1 126 126        -0.0170686462
      1   1 130 130        -0.0158003193
      2   2 126 130        -0.0157669786
      2   2 130 126        -0.0157669786
      2   2 129 129        -0.0155186498

    SCF energy       (wfn)                    = -150.848738252097547
    Reference energy (file100)                = -150.848738252096524

    Opposite-spin MP2 correlation energy      =   -0.411947702520309
    Same-spin MP2 correlation energy          =   -0.130336792714220
    Singles MP2 correlation energy            =   -0.000000000000000
    MP2 correlation energy                    =   -0.542284495234529
      * MP2 total energy                      = -151.391022747331050

    Opposite-spin CCSD correlation energy     =   -0.429904536606578
    Same-spin CCSD correlation energy         =   -0.113833189794362
    Singles CCSD correlation energy           =    0.000000000000000
    CCSD correlation energy                   =   -0.543737726400943
      * CCSD total energy                     = -151.392475978497458

            **************************
            *                        *
            *        CCTRIPLES       *
            *                        *
            **************************


    Wave function   =    CCSD_T
    Reference wfn   =      RHF

    Nuclear Rep. energy (wfn)                =   36.791784343419465
    SCF energy          (wfn)                = -150.848738252097547
    Reference energy    (file100)            = -150.848738252096524
    CCSD energy         (file100)            =   -0.543737726400943
    Total CCSD energy   (file100)            = -151.392475978497458

    Number of ijk index combinations:               84
    Memory available in words        :     31250000000
    ~Words needed per explicit thread:         7263392
    Number of threads for explicit ijk threading:   48

    (T) energy                                =   -0.021813739053206
      * CCSD(T) total energy                  = -151.414289717550673


    Psi4 stopped on: Wednesday, 20 January 2021 07:29PM
    Psi4 wall time for execution: 0:12:34.69

*** Psi4 exiting successfully. Buy a developer a beer!
