
    -----------------------------------------------------------------------
          Psi4: An Open-Source Ab Initio Electronic Structure Package
                               Psi4 1.4a3.dev88 

                         Git: Rev {master} 262e345 


    D. G. A. Smith, L. A. Burns, A. C. Simmonett, R. M. Parrish,
    M. C. Schieber, R. Galvelis, P. Kraus, H. Kruse, R. Di Remigio,
    A. Alenaizan, A. M. James, S. Lehtola, J. P. Misiewicz, M. Scheurer,
    R. A. Shaw, J. B. Schriber, Y. Xie, Z. L. Glick, D. A. Sirianni,
    J. S. O'Brien, J. M. Waldrop, A. Kumar, E. G. Hohenstein,
    B. P. Pritchard, B. R. Brooks, H. F. Schaefer III, A. Yu. Sokolov,
    K. Patkowski, A. E. DePrince III, U. Bozkaya, R. A. King,
    F. A. Evangelista, J. M. Turney, T. D. Crawford, C. D. Sherrill,
    J. Chem. Phys. 152(18) 184108 (2020). https://doi.org/10.1063/5.0006002

                            Additional Code Authors
    E. T. Seidl, C. L. Janssen, E. F. Valeev, M. L. Leininger,
    J. F. Gonthier, R. M. Richard, H. R. McAlexander, M. Saitow, X. Wang,
    P. Verma, and M. H. Lechner

             Previous Authors, Complete List of Code Contributors,
                       and Citations for Specific Modules
    https://github.com/psi4/psi4/blob/master/codemeta.json
    https://github.com/psi4/psi4/graphs/contributors
    http://psicode.org/psi4manual/master/introduction.html#citing-psifour

    -----------------------------------------------------------------------


    Psi4 started on: Tuesday, 26 January 2021 06:18PM

    Process ID: 403742
    Host:       n412-039.vsc4.prov
    PSIDATADIR: /home/fs71337/gallo4/psi4/eri-6/psi4/build/stage/share/psi4
    Memory:     500.0 MiB
    Threads:    48
    
  ==> Input File <==

--------------------------------------------------------------------------
# Any line starting with the # character is a comment line
memory 250000 mb
molecule molecule{
0 1
O         -0.7244270781        0.0593002388       -0.0313570792
O          0.7244270781       -0.0593002388       -0.0313570792
H         -0.9500122316       -0.7177793110        0.4977423786
H          0.9500122316        0.7177793110        0.4977423786
}

set {
  reference rhf
  basis aug-cc-pV(d+d)Z
  scf_type OUT_OF_CORE
  freeze_core true
}

energy('ccsd(t)')
--------------------------------------------------------------------------

  Memory set to 232.831 GiB by Python driver.

Scratch directory: /binfl/lv71337/airmler/temp/

*** tstart() called on n412-039.vsc4.prov
*** at Tue Jan 26 18:18:44 2021

   => Loading Basis Set <=

    Name: AUG-CC-PV(D+D)Z
    Role: ORBITAL
    Keyword: BASIS
    atoms 1-2 entry O          line   282 file /home/fs71337/gallo4/psi4/eri-6/psi4/build/stage/share/psi4/basis/aug-cc-pv_dpd_z.gbs 
    atoms 3-4 entry H          line    68 file /home/fs71337/gallo4/psi4/eri-6/psi4/build/stage/share/psi4/basis/aug-cc-pv_dpd_z.gbs 


         ---------------------------------------------------------
                                   SCF
               by Justin Turney, Rob Parrish, Andy Simmonett
                          and Daniel G. A. Smith
                              RHF Reference
                       48 Threads, 238418 MiB Core
         ---------------------------------------------------------

  ==> Geometry <==

    Molecular point group: c2
    Full point group: C2

    Geometry (in Angstrom), charge = 0, multiplicity = 1:

       Center              X                  Y                   Z               Mass       
    ------------   -----------------  -----------------  -----------------  -----------------
         O           -0.724427078100     0.059300238800    -0.031361985717    15.994914619570
         O            0.724427078100    -0.059300238800    -0.031361985717    15.994914619570
         H           -0.950012231600    -0.717779311000     0.497737472083     1.007825032230
         H            0.950012231600     0.717779311000     0.497737472083     1.007825032230

  Running in c2 symmetry.

  Rotational constants: A =     10.02358  B =      0.88084  C =      0.85320 [cm^-1]
  Rotational constants: A = 300499.43657  B =  26406.97606  C =  25578.15126 [MHz]
  Nuclear repulsion =   36.791784343419465

  Charge       = 0
  Multiplicity = 1
  Electrons    = 18
  Nalpha       = 9
  Nbeta        = 9

  ==> Algorithm <==

  SCF Algorithm Type is OUT_OF_CORE.
  DIIS enabled.
  MOM disabled.
  Fractional occupation disabled.
  Guess Type is SAD.
  Energy threshold   = 1.00e-08
  Density threshold  = 1.00e-08
  Integral threshold = 1.00e-12

  ==> Primary Basis <==

  Basis Set: AUG-CC-PV(D+D)Z
    Blend: AUG-CC-PV(D+D)Z
    Number of shells: 28
    Number of basis function: 64
    Number of Cartesian functions: 68
    Spherical Harmonics?: true
    Max angular momentum: 2

  ==> Integral Setup <==

  ==> DiskJK: Disk-Based J/K Matrices <==

    J tasked:                  Yes
    K tasked:                  Yes
    wK tasked:                  No
    Memory [MiB]:           178813
    Schwarz Cutoff:          1E-12

  Minimum eigenvalue in the overlap matrix is 1.9619023622E-03.
  Reciprocal condition number of the overlap matrix is 3.7955889570E-04.
    Using symmetric orthogonalization.

  ==> Pre-Iterations <==

  SCF Guess: Superposition of Atomic Densities via on-the-fly atomic UHF (no occupation information).


 WARNING: Atomic UHF is not converging! Try casting from a smaller basis or call Rob at CCMST.
   -------------------------
    Irrep   Nso     Nmo    
   -------------------------
     A         32      32 
     B         32      32 
   -------------------------
    Total      64      64
   -------------------------

  ==> Iterations <==

                        Total Energy        Delta E     RMS |[F,P]|

   @RHF iter SAD:  -149.57509022129190   -1.49575e+02   0.00000e+00 
   @RHF iter   1:  -150.71309320053371   -1.13800e+00   9.96844e-03 DIIS
   @RHF iter   2:  -150.78363994627131   -7.05467e-02   4.73339e-03 DIIS
   @RHF iter   3:  -150.80039287384278   -1.67529e-02   6.95247e-04 DIIS
   @RHF iter   4:  -150.80115414769713   -7.61274e-04   1.88122e-04 DIIS
   @RHF iter   5:  -150.80124244676702   -8.82991e-05   4.91517e-05 DIIS
   @RHF iter   6:  -150.80125108961334   -8.64285e-06   1.15797e-05 DIIS
   @RHF iter   7:  -150.80125163017442   -5.40561e-07   3.56354e-06 DIIS
   @RHF iter   8:  -150.80125168867221   -5.84978e-08   1.38480e-06 DIIS
   @RHF iter   9:  -150.80125169961440   -1.09422e-08   4.64750e-07 DIIS
   @RHF iter  10:  -150.80125170083272   -1.21832e-09   8.10500e-08 DIIS
   @RHF iter  11:  -150.80125170085941   -2.66880e-11   1.57679e-08 DIIS
   @RHF iter  12:  -150.80125170086040   -9.94760e-13   3.68526e-09 DIIS
  Energy and wave function converged.


  ==> Post-Iterations <==

    Orbital Energies [Eh]
    ---------------------

    Doubly Occupied:                                                      

       1A    -20.643025     1B    -20.642742     2A     -1.480992  
       2B     -1.220258     3A     -0.715260     3B     -0.713425  
       4A     -0.611037     5A     -0.520750     4B     -0.488694  

    Virtual:                                                              

       6A      0.039102     5B      0.049773     6B      0.133827  
       7A      0.168281     7B      0.199351     8A      0.213710  
       9A      0.231084     8B      0.233962    10A      0.242433  
       9B      0.281221    10B      0.310862    11A      0.352896  
      11B      0.420681    12A      0.427129    12B      0.455664  
      13B      0.481348    13A      0.499831    14A      0.632055  
      14B      0.653473    15B      0.843603    15A      0.887084  
      16A      1.054366    17A      1.064412    16B      1.072793  
      17B      1.143968    18A      1.182592    18B      1.236984  
      19A      1.285619    19B      1.311420    20B      1.431107  
      20A      1.442122    21A      1.515055    21B      1.540479  
      22B      1.691353    22A      1.772583    23A      2.052451  
      23B      2.072622    24A      2.117262    24B      2.188594  
      25B      2.289039    25A      2.401116    26A      2.549741  
      26B      2.712041    27A      2.853707    28A      3.393751  
      29A      3.536344    27B      3.548153    28B      3.639365  
      30A      3.665247    29B      3.669735    30B      3.778029  
      31A      3.786178    31B      4.059781    32A      4.123837  
      32B      4.322126  

    Final Occupation by Irrep:
              A     B 
    DOCC [     5,    4 ]

  @RHF Final Energy:  -150.80125170086040

   => Energetics <=

    Nuclear Repulsion Energy =             36.7917843434194651
    One-Electron Energy =                -281.1137068948248725
    Two-Electron Energy =                  93.5206708505450166
    Total Energy =                       -150.8012517008604050

Computation Completed


Properties will be evaluated at   0.000000,   0.000000,   0.000000 [a0]

Properties computed using the SCF density matrix

  Nuclear Dipole Moment: [e a0]
     X:     0.0000      Y:     0.0000      Z:     0.9329

  Electronic Dipole Moment: [e a0]
     X:     0.0000      Y:     0.0000      Z:    -0.1865

  Dipole Moment: [e a0]
     X:     0.0000      Y:     0.0000      Z:     0.7464     Total:     0.7464

  Dipole Moment: [D]
     X:     0.0000      Y:     0.0000      Z:     1.8971     Total:     1.8971


*** tstop() called on n412-039.vsc4.prov at Tue Jan 26 18:18:46 2021
Module time:
	user time   =      19.85 seconds =       0.33 minutes
	system time =       1.11 seconds =       0.02 minutes
	total time  =          2 seconds =       0.03 minutes
Total time:
	user time   =      19.85 seconds =       0.33 minutes
	system time =       1.11 seconds =       0.02 minutes
	total time  =          2 seconds =       0.03 minutes

*** tstart() called on n412-039.vsc4.prov
*** at Tue Jan 26 18:18:46 2021


	Wfn Parameters:
	--------------------
	Wavefunction         = CCSD_T
	Number of irreps     = 2
	Number of MOs        = 64
	Number of active MOs = 62
	AO-Basis             = NONE
	Semicanonical        = false
	Reference            = RHF
	Print Level          = 1

	IRREP	# MOs	# FZDC	# DOCC	# SOCC	# VIRT	# FZVR
	-----	-----	------	------	------	------	------
	 A	   32	    1	    4	    0	    27	    0
	 B	   32	    1	    3	    0	    28	    0
	Transforming integrals...
	IWL integrals will be deleted.
	(OO|OO)...
	Presorting SO-basis two-electron integrals.
	Sorting File: SO Ints (nn|nn) nbuckets = 1
	Constructing frozen core operators
	Starting first half-transformation.
	Sorting half-transformed integrals.
	First half integral transformation complete.
	Starting second half-transformation.
	Two-electron integral transformation complete.
	(OO|OV)...
	Starting second half-transformation.
	Two-electron integral transformation complete.
	(OO|VV)...
	Starting second half-transformation.
	Two-electron integral transformation complete.
	(OV|OO)...
	Starting first half-transformation.
	Sorting half-transformed integrals.
	First half integral transformation complete.
	Starting second half-transformation.
	Two-electron integral transformation complete.
	(OV|OV)...
	Starting second half-transformation.
	Two-electron integral transformation complete.
	(OV|VV)...
	Starting second half-transformation.
	Two-electron integral transformation complete.
	(VV|OO)...
	Starting first half-transformation.
	Sorting half-transformed integrals.
	First half integral transformation complete.
	Starting second half-transformation.
	Two-electron integral transformation complete.
	(VV|OV)...
	Starting second half-transformation.
	Two-electron integral transformation complete.
	(VV|VV)...
	Starting second half-transformation.
	Two-electron integral transformation complete.
	Frozen core energy     =   -131.72138972027466

	Size of irrep 0 of <ab|cd> integrals:      2.289 (MW) /     18.313 (MB)
	Size of irrep 1 of <ab|cd> integrals:      2.286 (MW) /     18.289 (MB)
	Total:                                     4.575 (MW) /     36.603 (MB)

	Size of irrep 0 of <ia|bc> integrals:      0.290 (MW) /      2.324 (MB)
	Size of irrep 1 of <ia|bc> integrals:      0.292 (MW) /      2.335 (MB)
	Total:                                     0.582 (MW) /      4.658 (MB)

	Size of irrep 0 of tijab amplitudes:       0.038 (MW) /      0.303 (MB)
	Size of irrep 1 of tijab amplitudes:       0.036 (MW) /      0.290 (MB)
	Total:                                     0.074 (MW) /      0.593 (MB)

	Nuclear Rep. energy          =     36.79178434341947
	SCF energy                   =   -150.80125170086040
	One-electron energy          =   -100.24246251296374
	Two-electron energy          =     44.37081618895863
	Reference energy             =   -150.80125170086029

*** tstop() called on n412-039.vsc4.prov at Tue Jan 26 18:18:49 2021
Module time:
	user time   =       0.51 seconds =       0.01 minutes
	system time =       0.33 seconds =       0.01 minutes
	total time  =          3 seconds =       0.05 minutes
Total time:
	user time   =      20.36 seconds =       0.34 minutes
	system time =       1.44 seconds =       0.02 minutes
	total time  =          5 seconds =       0.08 minutes
            **************************
            *                        *
            *        CCENERGY        *
            *                        *
            **************************

    Nuclear Rep. energy (wfn)     =   36.791784343419465
    SCF energy          (wfn)     = -150.801251700860405
    Reference energy    (file100) = -150.801251700860291

    Input parameters:
    -----------------
    Wave function   =     CCSD_T
    Reference wfn   =     RHF
    Brueckner       =     No
    Memory (Mbytes) =     250000.0
    Maxiter         =     50
    R_Convergence   =     1.0e-07
    E_Convergence   =     1.0e-06
    Restart         =     Yes
    DIIS            =     Yes
    AO Basis        =     NONE
    ABCD            =     NEW
    Cache Level     =     2
    Cache Type      =     LOW
    Print Level     =     1
    Num. of threads =     48
    # Amps to Print =     10
    Print MP2 Amps? =     No
    Analyze T2 Amps =     No
    Print Pair Ener =     No
    Local CC        =     No
    SCS-MP2         =     False
    SCSN-MP2        =     False
    SCS-CCSD        =     False

MP2 correlation energy -0.4166226504738133
                Solving CC Amplitude Equations
                ------------------------------
  Iter             Energy              RMS        T1Diag      D1Diag    New D1Diag    D2Diag
  ----     ---------------------    ---------   ----------  ----------  ----------   --------
     0        -0.416622650473813    0.000e+00    0.000000    0.000000    0.000000    0.159887
     1        -0.414347479940275    5.763e-02    0.011253    0.022543    0.022543    0.160373
     2        -0.425584617690196    2.171e-02    0.011863    0.023763    0.023763    0.171691
     3        -0.428667904476574    9.130e-03    0.014071    0.028599    0.028599    0.177776
     4        -0.428523079477481    2.088e-03    0.014307    0.029109    0.029109    0.178689
     5        -0.428600928706287    8.795e-04    0.014436    0.029394    0.029394    0.179159
     6        -0.428611692723938    3.089e-04    0.014466    0.029445    0.029445    0.179211
     7        -0.428604419032503    1.361e-04    0.014470    0.029435    0.029435    0.179198
     8        -0.428604824517161    6.120e-05    0.014474    0.029434    0.029434    0.179198
     9        -0.428605486431673    2.932e-05    0.014476    0.029433    0.029433    0.179198
    10        -0.428604209524847    1.462e-05    0.014476    0.029431    0.029431    0.179196
    11        -0.428604819927664    6.881e-06    0.014476    0.029431    0.029431    0.179197
    12        -0.428604769655396    2.358e-06    0.014476    0.029431    0.029431    0.179197
    13        -0.428604873682602    8.265e-07    0.014476    0.029431    0.029431    0.179197
    14        -0.428604896872723    2.405e-07    0.014476    0.029431    0.029431    0.179197
    15        -0.428604894014273    8.295e-08    0.014476    0.029431    0.029431    0.179197

    Iterations converged.


    Largest TIA Amplitudes:
              6  30         0.0178049146
              5  29         0.0138740934
              3   5         0.0129268216
              2   1         0.0123257461
              1   1        -0.0109655070
              3   2         0.0103947870
              5  35        -0.0102576856
              2  19        -0.0099274594
              6  32         0.0091430244
              6  35         0.0090992146

    Largest TIjAb Amplitudes:
      2   2  32  32        -0.0459004253
      2   2  28  32        -0.0219637110
      2   2  32  28        -0.0219637110
      2   2  29  32        -0.0211376359
      2   2  32  29        -0.0211376359
      1   2  32  32        -0.0207430672
      2   1  32  32        -0.0207430672
      2   2  31  32        -0.0199340346
      2   2  32  31        -0.0199340346
      1   1  31  31        -0.0187813956

    SCF energy       (wfn)                    = -150.801251700860405
    Reference energy (file100)                = -150.801251700860291

    Opposite-spin MP2 correlation energy      =   -0.308888917184789
    Same-spin MP2 correlation energy          =   -0.107733733289024
    Singles MP2 correlation energy            =   -0.000000000000000
    MP2 correlation energy                    =   -0.416622650473813
      * MP2 total energy                      = -151.217874351334103

    Opposite-spin CCSD correlation energy     =   -0.335151449539919
    Same-spin CCSD correlation energy         =   -0.093453444474354
    Singles CCSD correlation energy           =    0.000000000000000
    CCSD correlation energy                   =   -0.428604894014273
      * CCSD total energy                     = -151.229856594874576

            **************************
            *                        *
            *        CCTRIPLES       *
            *                        *
            **************************


    Wave function   =    CCSD_T
    Reference wfn   =      RHF

    Nuclear Rep. energy (wfn)                =   36.791784343419465
    SCF energy          (wfn)                = -150.801251700860405
    Reference energy    (file100)            = -150.801251700860291
    CCSD energy         (file100)            =   -0.428604894014273
    Total CCSD energy   (file100)            = -151.229856594874576

    Number of ijk index combinations:               84
    Memory available in words        :     31250000000
    ~Words needed per explicit thread:           87808
    Number of threads for explicit ijk threading:   48

    (T) energy                                =   -0.013145808749679
      * CCSD(T) total energy                  = -151.243002403624246


    Psi4 stopped on: Tuesday, 26 January 2021 06:18PM
    Psi4 wall time for execution: 0:00:10.41

*** Psi4 exiting successfully. Buy a developer a beer!
