
    -----------------------------------------------------------------------
          Psi4: An Open-Source Ab Initio Electronic Structure Package
                               Psi4 1.4a3.dev88 

                         Git: Rev {master} 262e345 


    D. G. A. Smith, L. A. Burns, A. C. Simmonett, R. M. Parrish,
    M. C. Schieber, R. Galvelis, P. Kraus, H. Kruse, R. Di Remigio,
    A. Alenaizan, A. M. James, S. Lehtola, J. P. Misiewicz, M. Scheurer,
    R. A. Shaw, J. B. Schriber, Y. Xie, Z. L. Glick, D. A. Sirianni,
    J. S. O'Brien, J. M. Waldrop, A. Kumar, E. G. Hohenstein,
    B. P. Pritchard, B. R. Brooks, H. F. Schaefer III, A. Yu. Sokolov,
    K. Patkowski, A. E. DePrince III, U. Bozkaya, R. A. King,
    F. A. Evangelista, J. M. Turney, T. D. Crawford, C. D. Sherrill,
    J. Chem. Phys. 152(18) 184108 (2020). https://doi.org/10.1063/5.0006002

                            Additional Code Authors
    E. T. Seidl, C. L. Janssen, E. F. Valeev, M. L. Leininger,
    J. F. Gonthier, R. M. Richard, H. R. McAlexander, M. Saitow, X. Wang,
    P. Verma, and M. H. Lechner

             Previous Authors, Complete List of Code Contributors,
                       and Citations for Specific Modules
    https://github.com/psi4/psi4/blob/master/codemeta.json
    https://github.com/psi4/psi4/graphs/contributors
    http://psicode.org/psi4manual/master/introduction.html#citing-psifour

    -----------------------------------------------------------------------


    Psi4 started on: Wednesday, 20 January 2021 09:34PM

    Process ID: 3835
    Host:       l43
    PSIDATADIR: /home/fs71337/gallo4/psi4/psi4/build/stage/share/psi4
    Memory:     500.0 MiB
    Threads:    48
    
  ==> Input File <==

--------------------------------------------------------------------------
# Any line starting with the # character is a comment line
memory 250000 mb
molecule molecule{
0 2
P          0.0000000000        0.0000000000        0.5093442540
O          0.0000000000        0.0000000000       -0.9860561446
}

set {
  reference uhf
  basis aug-cc-pV(Q+d)Z
  scf_type OUT_OF_CORE
  freeze_core true
}

energy('ccsd(t)')
--------------------------------------------------------------------------

  Memory set to 232.831 GiB by Python driver.

Scratch directory: /tmp/

*** tstart() called on l43
*** at Wed Jan 20 21:34:32 2021

   => Loading Basis Set <=

    Name: AUG-CC-PV(Q+D)Z
    Role: ORBITAL
    Keyword: BASIS
    atoms 1 entry P          line  1066 file /home/fs71337/gallo4/psi4/psi4/build/stage/share/psi4/basis/aug-cc-pv_qpd_z.gbs 
    atoms 2 entry O          line   451 file /home/fs71337/gallo4/psi4/psi4/build/stage/share/psi4/basis/aug-cc-pv_qpd_z.gbs 


         ---------------------------------------------------------
                                   SCF
               by Justin Turney, Rob Parrish, Andy Simmonett
                          and Daniel G. A. Smith
                              UHF Reference
                       48 Threads, 238418 MiB Core
         ---------------------------------------------------------

  ==> Geometry <==

    Molecular point group: c2v
    Full point group: C_inf_v

    Geometry (in Angstrom), charge = 0, multiplicity = 2:

       Center              X                  Y                   Z               Mass       
    ------------   -----------------  -----------------  -----------------  -----------------
         P            0.000000000000     0.000000000000     0.509250066639    30.973761998420
         O            0.000000000000     0.000000000000    -0.986150331961    15.994914619570

  Running in c2v symmetry.

  Rotational constants: A = ************  B =      0.71468  C =      0.71468 [cm^-1]
  Rotational constants: A = ************  B =  21425.68205  C =  21425.68205 [MHz]
  Nuclear repulsion =   42.464389697802773

  Charge       = 0
  Multiplicity = 2
  Electrons    = 23
  Nalpha       = 12
  Nbeta        = 11

  ==> Algorithm <==

  SCF Algorithm Type is OUT_OF_CORE.
  DIIS enabled.
  MOM disabled.
  Fractional occupation disabled.
  Guess Type is SAD.
  Energy threshold   = 1.00e-08
  Density threshold  = 1.00e-08
  Integral threshold = 1.00e-12

  ==> Primary Basis <==

  Basis Set: AUG-CC-PV(Q+D)Z
    Blend: AUG-CC-PV(Q+D)Z
    Number of shells: 43
    Number of basis function: 169
    Number of Cartesian functions: 220
    Spherical Harmonics?: true
    Max angular momentum: 4

  ==> Integral Setup <==

  ==> DiskJK: Disk-Based J/K Matrices <==

    J tasked:                  Yes
    K tasked:                  Yes
    wK tasked:                  No
    Memory [MiB]:           178813
    Schwarz Cutoff:          1E-12

  Minimum eigenvalue in the overlap matrix is 1.0774675807E-04.
  Reciprocal condition number of the overlap matrix is 1.8723753546E-05.
    Using symmetric orthogonalization.

  ==> Pre-Iterations <==

  SCF Guess: Superposition of Atomic Densities via on-the-fly atomic UHF (no occupation information).


 WARNING: Atomic UHF is not converging! Try casting from a smaller basis or call Rob at CCMST.

 WARNING: Atomic UHF is not converging! Try casting from a smaller basis or call Rob at CCMST.
   -------------------------
    Irrep   Nso     Nmo    
   -------------------------
     A1        66      66 
     A2        23      23 
     B1        40      40 
     B2        40      40 
   -------------------------
    Total     169     169
   -------------------------

  ==> Iterations <==

                        Total Energy        Delta E     RMS |[F,P]|

   @UHF iter SAD:  -405.74422914409763   -4.05744e+02   0.00000e+00 
   @UHF iter   1:  -414.44649796422868   -8.70227e+00   1.68992e-02 DIIS
   @UHF iter   2:  -414.47401815275640   -2.75202e-02   2.11491e-02 DIIS
   @UHF iter   3:  -415.57781577113724   -1.10380e+00   3.91545e-03 DIIS
   @UHF iter   4:  -415.62996999941748   -5.21542e-02   5.89851e-04 DIIS
   @UHF iter   5:  -415.63260332595968   -2.63333e-03   1.57198e-04 DIIS
   @UHF iter   6:  -415.63300177950720   -3.98454e-04   6.05115e-05 DIIS
   @UHF iter   7:  -415.63305692768432   -5.51482e-05   3.27962e-05 DIIS
   @UHF iter   8:  -415.63307225556457   -1.53279e-05   1.24499e-05 DIIS
   @UHF iter   9:  -415.63307616691009   -3.91135e-06   7.43499e-06 DIIS
   @UHF iter  10:  -415.63307801970763   -1.85280e-06   4.48987e-06 DIIS
   @UHF iter  11:  -415.63307887240222   -8.52695e-07   3.34303e-06 DIIS
   @UHF iter  12:  -415.63307940356094   -5.31159e-07   3.06930e-06 DIIS
   @UHF iter  13:  -415.63308008854614   -6.84985e-07   2.89687e-06 DIIS
   @UHF iter  14:  -415.63308266793359   -2.57939e-06   2.04398e-06 DIIS
   @UHF iter  15:  -415.63308426374840   -1.59581e-06   1.08814e-06 DIIS
   @UHF iter  16:  -415.63308441878212   -1.55034e-07   5.29570e-07 DIIS
   @UHF iter  17:  -415.63308444208269   -2.33006e-08   2.36876e-07 DIIS
   @UHF iter  18:  -415.63308444326685   -1.18416e-09   4.63442e-08 DIIS
   @UHF iter  19:  -415.63308444330437   -3.75167e-11   1.35287e-08 DIIS
   @UHF iter  20:  -415.63308444330579   -1.42109e-12   4.25496e-09 DIIS
  Energy and wave function converged.


  ==> Post-Iterations <==

   @Spin Contamination Metric:   2.367612617E-02
   @S^2 Expected:                7.500000000E-01
   @S^2 Observed:                7.736761262E-01
   @S   Expected:                5.000000000E-01
   @S   Observed:                5.000000000E-01

    Orbital Energies [Eh]
    ---------------------

    Alpha Occupied:                                                       

       1A1   -80.032348     2A1   -20.591766     3A1    -7.569312  
       1B1    -5.470555     1B2    -5.460027     4A1    -5.457737  
       5A1    -1.356446     6A1    -0.767010     2B1    -0.600908  
       7A1    -0.556309     2B2    -0.527412     3B1    -0.343852  

    Alpha Virtual:                                                        

       3B2    -0.004151     8A1     0.047108     9A1     0.059374  
       4B1     0.064431     4B2     0.071932    10A1     0.132721  
       1A2     0.151176    11A1     0.151234     5B1     0.169694  
       5B2     0.170473    12A1     0.173880     6B1     0.208565  
       6B2     0.211538    13A1     0.242142    14A1     0.265867  
       7B1     0.343520     7B2     0.353115    15A1     0.380211  
       2A2     0.399181    16A1     0.400044     8B1     0.422679  
       8B2     0.422710    17A1     0.423166     3A2     0.423347  
       9B1     0.468028     9B2     0.472823    18A1     0.482903  
      10B1     0.536375    10B2     0.550746    19A1     0.552060  
      11B1     0.625954    11B2     0.627160    20A1     0.659057  
       4A2     0.659415    21A1     0.674734    22A1     0.743067  
      12B2     0.987444    12B1     0.990105    23A1     0.993176  
       5A2     1.036225    24A1     1.036536    13B1     1.063660  
      13B2     1.071966    25A1     1.135691     6A2     1.182163  
      26A1     1.182426    14B1     1.196461    14B2     1.196465  
      15B2     1.201841    15B1     1.201856     7A2     1.208038  
      27A1     1.208039    28A1     1.224302    16B2     1.262281  
      16B1     1.266512    29A1     1.350564     8A2     1.351359  
      30A1     1.375433    17B2     1.393880    17B1     1.395901  
      18B2     1.540319    18B1     1.541769    19B2     1.603683  
      19B1     1.603689    31A1     1.614957     9A2     1.678725  
      32A1     1.678871    33A1     1.706104    20B2     1.936628  
      20B1     1.941410    34A1     2.011681    35A1     2.070868  
      10A2     2.083945    36A1     2.086181    21B2     2.328699  
      21B1     2.331963    37A1     2.372910    22B2     2.491529  
      22B1     2.500115    11A2     2.502136    38A1     2.502502  
      39A1     2.944320    12A2     2.944516    23B2     2.987979  
      23B1     2.987981    40A1     3.064921    41A1     3.097436  
      24B2     3.123706    24B1     3.131973    25B2     3.214140  
      25B1     3.215970    26B2     3.221653    26B1     3.224537  
      13A2     3.262732    42A1     3.262732    14A2     3.366709  
      43A1     3.366853    44A1     3.692690    15A2     3.696276  
      45A1     3.696277    27B2     3.847338    27B1     3.855927  
      28B2     3.996011    28B1     3.996012    46A1     4.062335  
      29B2     4.202187    29B1     4.202187    47A1     4.320302  
      16A2     4.320322    48A1     4.420940    30B2     4.445896  
      30B1     4.453813    49A1     4.624587    17A2     4.625312  
      50A1     4.657624    31B2     4.856441    31B1     4.864599  
      18A2     4.879892    51A1     4.879961    32B2     5.338284  
      32B1     5.341865    52A1     5.520459    53A1     5.755550  
      33B2     6.348574    33B1     6.361502    54A1     7.562888  
      19A2     7.563043    55A1     7.688424    34B2     7.973913  
      34B1     7.984365    56A1     8.714450    57A1    10.649941  
      20A2    10.649941    35B2    10.745194    35B1    10.745198  
      36B2    10.937644    58A1    10.946904    36B1    10.947063  
      21A2    10.947484    37B2    11.007100    37B1    11.010962  
      59A1    11.031564    60A1    11.886432    38B2    11.926697  
      38B1    11.926697    22A2    12.087378    61A1    12.087533  
      62A1    12.449702    39B2    12.519888    39B1    12.528598  
      23A2    12.885265    63A1    12.885267    40B2    13.331526  
      40B1    13.337285    64A1    13.724638    65A1    17.142377  
      66A1    42.723942  

    Beta Occupied:                                                        

       1A1   -80.027116     2A1   -20.578791     3A1    -7.563054  
       1B2    -5.457848     4A1    -5.456129     1B1    -5.442776  
       5A1    -1.323788     6A1    -0.709953     7A1    -0.516166  
       2B2    -0.512470     2B1    -0.500348  

    Beta Virtual:                                                         

       3B2     0.005761     3B1     0.035857     8A1     0.049680  
       9A1     0.060069     4B2     0.073951     4B1     0.093282  
      10A1     0.135759     1A2     0.159324    11A1     0.160825  
       5B2     0.171334     5B1     0.174445    12A1     0.178063  
       6B2     0.212592     6B1     0.221435    13A1     0.246212  
      14A1     0.270058     7B2     0.354761     7B1     0.375839  
      15A1     0.385543     2A2     0.424730    16A1     0.424819  
       8B2     0.428169     8B1     0.428227     3A2     0.434548  
      17A1     0.437421     9B2     0.472028    18A1     0.483732  
       9B1     0.486381    10B2     0.554404    19A1     0.559211  
      10B1     0.573654    11B2     0.627888    11B1     0.635513  
      20A1     0.662030     4A2     0.662436    21A1     0.682051  
      22A1     0.748365    12B2     0.988117    23A1     0.997967  
      12B1     0.999439    24A1     1.062525     5A2     1.062615  
      13B2     1.073675    13B1     1.101435    25A1     1.141046  
       6A2     1.195423    26A1     1.197761    14B2     1.201084  
      14B1     1.201105    27A1     1.218045     7A2     1.218047  
      15B2     1.223007    15B1     1.223763    28A1     1.229227  
      16B2     1.265030    16B1     1.290204    29A1     1.354731  
       8A2     1.358161    30A1     1.386138    17B2     1.396656  
      17B1     1.421573    18B2     1.541779    18B1     1.557768  
      19B2     1.606329    19B1     1.606371    31A1     1.622679  
       9A2     1.684510    32A1     1.684628    33A1     1.712112  
      20B2     1.938270    20B1     1.958725    34A1     2.017325  
      35A1     2.075905    10A2     2.092421    36A1     2.098609  
      21B2     2.330963    21B1     2.346602    37A1     2.377881  
      22B2     2.492617    22B1     2.512858    11A2     2.514739  
      38A1     2.516668    39A1     2.953992    12A2     2.955429  
      23B2     3.009934    23B1     3.010044    40A1     3.068036  
      41A1     3.106187    24B2     3.125132    24B1     3.151899  
      25B2     3.216757    25B1     3.226050    26B2     3.234535  
      26B1     3.251075    13A2     3.282221    42A1     3.282227  
      14A2     3.376473    43A1     3.377118    15A2     3.697187  
      44A1     3.697187    45A1     3.699459    27B2     3.849326  
      27B1     3.869050    28B2     3.999507    28B1     3.999518  
      46A1     4.069058    29B2     4.210051    29B1     4.210053  
      47A1     4.330123    16A2     4.330213    48A1     4.423590  
      30B2     4.446522    30B1     4.458758    49A1     4.634751  
      17A2     4.636629    50A1     4.667197    31B2     4.859572  
      31B1     4.879766    18A2     4.891360    51A1     4.891573  
      32B2     5.342907    32B1     5.360548    52A1     5.527664  
      53A1     5.762393    33B2     6.351415    33B1     6.383158  
      54A1     7.570147    19A2     7.570575    55A1     7.692376  
      34B2     7.974556    34B1     7.991218    56A1     8.720432  
      57A1    10.658789    20A2    10.658789    35B2    10.751873  
      35B1    10.751884    36B2    10.941085    58A1    10.951775  
      21A2    10.952862    36B1    10.956895    37B2    11.013933  
      37B1    11.034054    59A1    11.036474    60A1    11.894397  
      38B2    11.943108    38B1    11.943110    22A2    12.099291  
      61A1    12.099728    62A1    12.455962    39B2    12.524773  
      39B1    12.541685    63A1    12.905547    23A2    12.905590  
      40B2    13.337671    40B1    13.355576    64A1    13.733479  
      65A1    17.147490    66A1    42.731788  

    Final Occupation by Irrep:
             A1    A2    B1    B2 
    DOCC [     7,    0,    2,    2 ]
    SOCC [     0,    0,    1,    0 ]

  @UHF Final Energy:  -415.63308444330579

   => Energetics <=

    Nuclear Repulsion Energy =             42.4643896978027726
    One-Electron Energy =                -659.3728257319114618
    Two-Electron Energy =                 201.2753515908029271
    Total Energy =                       -415.6330844433057905

  UHF NO Occupations:
  HONO-2 :    2 B1 1.9963752
  HONO-1 :    7 A1 1.9923473
  HONO-0 :    3 B1 1.0000000
  LUNO+0 :    8 A1 0.0076527
  LUNO+1 :    4 B1 0.0036248
  LUNO+2 :    3 B2 0.0003848
  LUNO+3 :    9 A1 0.0001439


Computation Completed


Properties will be evaluated at   0.000000,   0.000000,   0.000000 [a0]

Properties computed using the SCF density matrix

  Nuclear Dipole Moment: [e a0]
     X:     0.0000      Y:     0.0000      Z:    -0.4733

  Electronic Dipole Moment: [e a0]
     X:     0.0000      Y:     0.0000      Z:     1.5281

  Dipole Moment: [e a0]
     X:     0.0000      Y:     0.0000      Z:     1.0549     Total:     1.0549

  Dipole Moment: [D]
     X:     0.0000      Y:     0.0000      Z:     2.6812     Total:     2.6812


*** tstop() called on l43 at Wed Jan 20 21:35:11 2021
Module time:
	user time   =      42.17 seconds =       0.70 minutes
	system time =       7.23 seconds =       0.12 minutes
	total time  =         39 seconds =       0.65 minutes
Total time:
	user time   =      42.17 seconds =       0.70 minutes
	system time =       7.23 seconds =       0.12 minutes
	total time  =         39 seconds =       0.65 minutes

*** tstart() called on l43
*** at Wed Jan 20 21:35:11 2021


	Wfn Parameters:
	--------------------
	Wavefunction         = CCSD_T
	Number of irreps     = 4
	Number of MOs        = 169
	Number of active MOs = 163
	AO-Basis             = NONE
	Semicanonical        = false
	Reference            = UHF
	Print Level          = 1

	IRREP	# MOs	# FZDC	# DOCC	# SOCC	# VIRT	# FZVR
	-----	-----	------	------	------	------	------
	 A1	   66	    4	    3	    0	    59	    0
	 A2	   23	    0	    0	    0	    23	    0
	 B1	   40	    1	    1	    1	    37	    0
	 B2	   40	    1	    1	    0	    38	    0
	Transforming integrals...
	IWL integrals will be deleted.
	(OO|OO)...
	Presorting SO-basis two-electron integrals.
	Sorting File: SO Ints (nn|nn) nbuckets = 1
	Constructing frozen core operators
	Starting AA/AB first half-transformation.
	Sorting AA/AB half-transformed integrals.
	Starting BB first half-transformation.
	Sorting BB half-transformed integrals.
	First half integral transformation complete.
	Starting AA second half-transformation.
	Starting AB second half-transformation.
	Starting BB second half-transformation.
	Two-electron integral transformation complete.
	(OO|OV)...
	Starting AA second half-transformation.
	Starting AB second half-transformation.
	Starting BB second half-transformation.
	Two-electron integral transformation complete.
	(OO|VV)...
	Starting AA second half-transformation.
	Starting AB second half-transformation.
	Starting BB second half-transformation.
	Two-electron integral transformation complete.
	(OV|OO)...
	Starting AA/AB first half-transformation.
	Sorting AA/AB half-transformed integrals.
	Starting BB first half-transformation.
	Sorting BB half-transformed integrals.
	First half integral transformation complete.
	Starting AA second half-transformation.
	Starting AB second half-transformation.
	Starting BB second half-transformation.
	Two-electron integral transformation complete.
	(OV|OV)...
	Starting AA second half-transformation.
	Starting AB second half-transformation.
	Starting BB second half-transformation.
	Two-electron integral transformation complete.
	(OV|VV)...
	Starting AA second half-transformation.
	Starting AB second half-transformation.
	Starting BB second half-transformation.
	Two-electron integral transformation complete.
	(VV|OO)...
	Starting AA/AB first half-transformation.
	Sorting AA/AB half-transformed integrals.
	Starting BB first half-transformation.
	Sorting BB half-transformed integrals.
	First half integral transformation complete.
	Starting AA second half-transformation.
	Starting AB second half-transformation.
	Starting BB second half-transformation.
	Two-electron integral transformation complete.
	(VV|OV)...
	Starting AA second half-transformation.
	Starting AB second half-transformation.
	Starting BB second half-transformation.
	Two-electron integral transformation complete.
	(VV|VV)...
	Starting AA second half-transformation.
	Starting AB second half-transformation.
	Starting BB second half-transformation.
	Two-electron integral transformation complete.
	Frozen core energy     =   -425.31888508082847

	Size of irrep 0 of <AB|CD> integrals:     11.109 (MW) /     88.871 (MB)
	Size of irrep 1 of <AB|CD> integrals:      7.634 (MW) /     61.073 (MB)
	Size of irrep 2 of <AB|CD> integrals:      9.345 (MW) /     74.762 (MB)
	Size of irrep 3 of <AB|CD> integrals:      9.567 (MW) /     76.533 (MB)
	Total:                                    37.655 (MW) /    301.240 (MB)

	Size of irrep 0 of <ab|cd> integrals:     11.357 (MW) /     90.855 (MB)
	Size of irrep 1 of <ab|cd> integrals:      7.846 (MW) /     62.765 (MB)
	Size of irrep 2 of <ab|cd> integrals:      9.709 (MW) /     77.676 (MB)
	Size of irrep 3 of <ab|cd> integrals:      9.709 (MW) /     77.676 (MB)
	Total:                                    38.621 (MW) /    308.971 (MB)

	Size of irrep 0 of <Ab|Cd> integrals:     47.060 (MW) /    376.477 (MB)
	Size of irrep 1 of <Ab|Cd> integrals:     30.958 (MW) /    247.665 (MB)
	Size of irrep 2 of <Ab|Cd> integrals:     38.106 (MW) /    304.847 (MB)
	Size of irrep 3 of <Ab|Cd> integrals:     38.552 (MW) /    308.413 (MB)
	Total:                                   154.675 (MW) /   1237.402 (MB)

	Size of irrep 0 of <IA|BC> integrals:      1.972 (MW) /     15.775 (MB)
	Size of irrep 1 of <IA|BC> integrals:      1.006 (MW) /      8.046 (MB)
	Size of irrep 2 of <IA|BC> integrals:      1.541 (MW) /     12.326 (MB)
	Size of irrep 3 of <IA|BC> integrals:      1.355 (MW) /     10.838 (MB)
	Total:                                     5.873 (MW) /     46.984 (MB)

	Size of irrep 0 of <ia|bc> integrals:      1.745 (MW) /     13.962 (MB)
	Size of irrep 1 of <ia|bc> integrals:      0.812 (MW) /      6.498 (MB)
	Size of irrep 2 of <ia|bc> integrals:      1.221 (MW) /      9.772 (MB)
	Size of irrep 3 of <ia|bc> integrals:      1.221 (MW) /      9.772 (MB)
	Total:                                     5.000 (MW) /     40.003 (MB)

	Size of irrep 0 of <Ia|Bc> integrals:      1.996 (MW) /     15.970 (MB)
	Size of irrep 1 of <Ia|Bc> integrals:      1.018 (MW) /      8.146 (MB)
	Size of irrep 2 of <Ia|Bc> integrals:      1.574 (MW) /     12.593 (MB)
	Size of irrep 3 of <Ia|Bc> integrals:      1.360 (MW) /     10.878 (MB)
	Total:                                     5.948 (MW) /     47.587 (MB)

	Size of irrep 0 of <iA|bC> integrals:      1.729 (MW) /     13.830 (MB)
	Size of irrep 1 of <iA|bC> integrals:      0.801 (MW) /      6.410 (MB)
	Size of irrep 2 of <iA|bC> integrals:      1.191 (MW) /      9.531 (MB)
	Size of irrep 3 of <iA|bC> integrals:      1.217 (MW) /      9.736 (MB)
	Total:                                     4.938 (MW) /     39.506 (MB)

	Size of irrep 0 of tIjAb amplitudes:       0.082 (MW) /      0.659 (MB)
	Size of irrep 1 of tIjAb amplitudes:       0.017 (MW) /      0.134 (MB)
	Size of irrep 2 of tIjAb amplitudes:       0.056 (MW) /      0.444 (MB)
	Size of irrep 3 of tIjAb amplitudes:       0.037 (MW) /      0.298 (MB)
	Total:                                     0.192 (MW) /      1.535 (MB)

	Nuclear Rep. energy          =     42.46438969780277
	SCF energy                   =   -415.63308444330579
	One-electron energy          =    -57.84251442685462
	Two-electron (AA) energy     =      6.01251770074937
	Two-electron (BB) energy     =      4.31479868779259
	Two-electron (AB) energy     =     14.73660897803117
	Two-electron energy          =     25.06392536657313
	Reference energy             =   -415.63308444330721

*** tstop() called on l43 at Wed Jan 20 21:35:44 2021
Module time:
	user time   =      22.12 seconds =       0.37 minutes
	system time =      10.92 seconds =       0.18 minutes
	total time  =         33 seconds =       0.55 minutes
Total time:
	user time   =      64.29 seconds =       1.07 minutes
	system time =      18.15 seconds =       0.30 minutes
	total time  =         72 seconds =       1.20 minutes
            **************************
            *                        *
            *        CCENERGY        *
            *                        *
            **************************

    Nuclear Rep. energy (wfn)     =   42.464389697802773
    SCF energy          (wfn)     = -415.633084443305791
    Reference energy    (file100) = -415.633084443307212

    Input parameters:
    -----------------
    Wave function   =     CCSD_T
    Reference wfn   =     UHF
    Brueckner       =     No
    Memory (Mbytes) =     250000.0
    Maxiter         =     50
    R_Convergence   =     1.0e-07
    E_Convergence   =     1.0e-06
    Restart         =     Yes
    DIIS            =     Yes
    AO Basis        =     NONE
    ABCD            =     NEW
    Cache Level     =     2
    Cache Type      =     LRU
    Print Level     =     1
    Num. of threads =     48
    # Amps to Print =     10
    Print MP2 Amps? =     No
    Analyze T2 Amps =     No
    Print Pair Ener =     No
    Local CC        =     No
    SCS-MP2         =     False
    SCSN-MP2        =     False
    SCS-CCSD        =     False

MP2 correlation energy -0.3893680725748231
                Solving CC Amplitude Equations
                ------------------------------
  Iter             Energy              RMS        T1Diag      D1Diag    New D1Diag    D2Diag
  ----     ---------------------    ---------   ----------  ----------  ----------   --------
     0        -0.389368072574823    0.000e+00    0.000000    0.000000    0.000000    0.000000
     1        -0.372424670994891    1.190e-01    0.028097    0.000000    0.000000    0.000000
     2        -0.386984127974972    4.897e-02    0.025107    0.000000    0.000000    0.000000
     3        -0.391819823523806    2.423e-02    0.032119    0.000000    0.000000    0.000000
     4        -0.391466793090102    7.205e-03    0.034553    0.000000    0.000000    0.000000
     5        -0.391470909898945    3.272e-03    0.035741    0.000000    0.000000    0.000000
     6        -0.391485216161923    1.230e-03    0.036070    0.000000    0.000000    0.000000
     7        -0.391472038232860    5.766e-04    0.036151    0.000000    0.000000    0.000000
     8        -0.391479073318531    2.625e-04    0.036182    0.000000    0.000000    0.000000
     9        -0.391484087300858    1.319e-04    0.036184    0.000000    0.000000    0.000000
    10        -0.391479600281410    6.539e-05    0.036184    0.000000    0.000000    0.000000
    11        -0.391480867794070    2.944e-05    0.036178    0.000000    0.000000    0.000000
    12        -0.391480626634514    1.315e-05    0.036181    0.000000    0.000000    0.000000
    13        -0.391480557939376    5.802e-06    0.036180    0.000000    0.000000    0.000000
    14        -0.391480787621671    2.782e-06    0.036180    0.000000    0.000000    0.000000
    15        -0.391480724974923    1.338e-06    0.036180    0.000000    0.000000    0.000000
    16        -0.391480715337878    6.231e-07    0.036180    0.000000    0.000000    0.000000
    17        -0.391480712756212    2.578e-07    0.036180    0.000000    0.000000    0.000000
    18        -0.391480708040689    1.029e-07    0.036180    0.000000    0.000000    0.000000
    19        -0.391480710622034    4.519e-08    0.036180    0.000000    0.000000    0.000000

    Iterations converged.


    Largest TIA Amplitudes:
              5 119        -0.0590718986
              5 120         0.0241539586
              3  88        -0.0189532521
              1   8         0.0145172208
              2   8         0.0144066626
              2   7        -0.0140259118
              3  83         0.0138702724
              5 123        -0.0138603976
              2   2         0.0127218147
              2   3         0.0122992304

    Largest Tia Amplitudes:
              3  82        -0.0420907822
              3  83         0.0396762712
              4 120        -0.0305050171
              3  86        -0.0163490653
              4 121         0.0162822478
              1   2        -0.0118980861
              1   4         0.0118484534
              4 124        -0.0113786487
              3  85         0.0113335613
              1   7         0.0108080765

    Largest TIJAB Amplitudes:
      5   4 119  88        -0.0156274364
      5   2 119   2         0.0143296353
      5   2 119   7        -0.0138083554
      5   2 119   5        -0.0126595685
      5   4  60   8        -0.0124138667
      5   4 119  87         0.0118785255
      5   2 119   4        -0.0106399320
      5   2 119  15        -0.0105569089
      5   2 119  11         0.0102498488
      4   2  87   7         0.0101132013

    Largest Tijab Amplitudes:
      4   3 120  82        -0.0240312417
      4   3 120  83         0.0204229114
      4   2 120   7        -0.0150688019
      4   3 120  89        -0.0147949533
      4   2 120   2         0.0136151832
      4   2 120   5        -0.0123403632
      4   3 127  82        -0.0110213270
      4   3 120  85         0.0104530745
      4   3 121  82         0.0100042800
      4   2 120   4        -0.0099451018

    Largest TIjAb Amplitudes:
      5   4 119 120        -0.0677865873
      2   2 119 120        -0.0407333455
      5   4 119 127        -0.0337193591
      5   3 119  82        -0.0335492453
      5   4 126 120        -0.0308677949
      1   2 119 120        -0.0308451284
      5   4 119 121         0.0291105861
      1   1 119 120        -0.0287776793
      5   3 119  83         0.0286477026
      4   2  60 120        -0.0277763483

    SCF energy       (wfn)                    = -415.633084443305791
    Reference energy (file100)                = -415.633084443307212

    Opposite-spin MP2 correlation energy      =   -0.292946012295847
    Same-spin MP2 correlation energy          =   -0.096422060278976
    Singles MP2 correlation energy            =   -0.000000000000000
    MP2 correlation energy                    =   -0.389368072574823
      * MP2 total energy                      = -416.022452515882037

    Opposite-spin CCSD correlation energy     =   -0.308410260967819
    Same-spin CCSD correlation energy         =   -0.083070449654215
    Singles CCSD correlation energy           =    0.000000000000000
    CCSD correlation energy                   =   -0.391480710622034
      * CCSD total energy                     = -416.024565153929245

            **************************
            *                        *
            *        CCTRIPLES       *
            *                        *
            **************************


    Wave function   =    CCSD_T
    Reference wfn   =      UHF

    Nuclear Rep. energy (wfn)                =   42.464389697802773
    SCF energy          (wfn)                = -415.633084443305791
    Reference energy    (file100)            = -415.633084443307212
    CCSD energy         (file100)            =   -0.391480710622034
    Total CCSD energy   (file100)            = -416.024565153929245

    Number of ijk index combinations:
    Spin Case AAA:                                  20
    Spin Case BBB:                                  10
    Spin Case AAB:                                  75
    Spin Case ABB:                                  60
    AAA (T) energy                             =   -0.000489689215250
    BBB (T) energy                             =   -0.000536204513024
    AAB (T) energy                             =   -0.010509955877837
    ABB (T) energy                             =   -0.010123236857839
    (T) energy                                   =   -0.021659086463951
      * CCSD(T) total energy                     = -416.046224240393201


    Psi4 stopped on: Wednesday, 20 January 2021 09:36PM
    Psi4 wall time for execution: 0:02:22.57

*** Psi4 exiting successfully. Buy a developer a beer!
