
    -----------------------------------------------------------------------
          Psi4: An Open-Source Ab Initio Electronic Structure Package
                               Psi4 1.4a3.dev88 

                         Git: Rev {master} 262e345 


    D. G. A. Smith, L. A. Burns, A. C. Simmonett, R. M. Parrish,
    M. C. Schieber, R. Galvelis, P. Kraus, H. Kruse, R. Di Remigio,
    A. Alenaizan, A. M. James, S. Lehtola, J. P. Misiewicz, M. Scheurer,
    R. A. Shaw, J. B. Schriber, Y. Xie, Z. L. Glick, D. A. Sirianni,
    J. S. O'Brien, J. M. Waldrop, A. Kumar, E. G. Hohenstein,
    B. P. Pritchard, B. R. Brooks, H. F. Schaefer III, A. Yu. Sokolov,
    K. Patkowski, A. E. DePrince III, U. Bozkaya, R. A. King,
    F. A. Evangelista, J. M. Turney, T. D. Crawford, C. D. Sherrill,
    J. Chem. Phys. 152(18) 184108 (2020). https://doi.org/10.1063/5.0006002

                            Additional Code Authors
    E. T. Seidl, C. L. Janssen, E. F. Valeev, M. L. Leininger,
    J. F. Gonthier, R. M. Richard, H. R. McAlexander, M. Saitow, X. Wang,
    P. Verma, and M. H. Lechner

             Previous Authors, Complete List of Code Contributors,
                       and Citations for Specific Modules
    https://github.com/psi4/psi4/blob/master/codemeta.json
    https://github.com/psi4/psi4/graphs/contributors
    http://psicode.org/psi4manual/master/introduction.html#citing-psifour

    -----------------------------------------------------------------------


    Psi4 started on: Friday, 22 January 2021 07:11AM

    Process ID: 64557
    Host:       n412-045.vsc4.prov
    PSIDATADIR: /home/fs71337/gallo4/psi4/psi4/build/stage/share/psi4
    Memory:     500.0 MiB
    Threads:    48
    
  ==> Input File <==

--------------------------------------------------------------------------
# Any line starting with the # character is a comment line
memory 250000 mb
molecule molecule{
0 2
P          0.0000000000        0.0000000000        0.5093442540
O          0.0000000000        0.0000000000       -0.9860561446
}

set {
  reference uhf
  basis aug-cc-pV(5+d)Z
  scf_type OUT_OF_CORE
  freeze_core true
}

energy('ccsd(t)')
--------------------------------------------------------------------------

  Memory set to 232.831 GiB by Python driver.

Scratch directory: /binfl/lv71337/airmler/temp/

*** tstart() called on n412-045.vsc4.prov
*** at Fri Jan 22 07:11:55 2021

   => Loading Basis Set <=

    Name: AUG-CC-PV(5+D)Z
    Role: ORBITAL
    Keyword: BASIS
    atoms 1 entry P          line  1330 file /home/fs71337/gallo4/psi4/psi4/build/stage/share/psi4/basis/aug-cc-pv_5pd_z.gbs 
    atoms 2 entry O          line   568 file /home/fs71337/gallo4/psi4/psi4/build/stage/share/psi4/basis/aug-cc-pv_5pd_z.gbs 


         ---------------------------------------------------------
                                   SCF
               by Justin Turney, Rob Parrish, Andy Simmonett
                          and Daniel G. A. Smith
                              UHF Reference
                       48 Threads, 238418 MiB Core
         ---------------------------------------------------------

  ==> Geometry <==

    Molecular point group: c2v
    Full point group: C_inf_v

    Geometry (in Angstrom), charge = 0, multiplicity = 2:

       Center              X                  Y                   Z               Mass       
    ------------   -----------------  -----------------  -----------------  -----------------
         P            0.000000000000     0.000000000000     0.509250066639    30.973761998420
         O            0.000000000000     0.000000000000    -0.986150331961    15.994914619570

  Running in c2v symmetry.

  Rotational constants: A = ************  B =      0.71468  C =      0.71468 [cm^-1]
  Rotational constants: A = ************  B =  21425.68205  C =  21425.68205 [MHz]
  Nuclear repulsion =   42.464389697802773

  Charge       = 0
  Multiplicity = 2
  Electrons    = 23
  Nalpha       = 12
  Nbeta        = 11

  ==> Algorithm <==

  SCF Algorithm Type is OUT_OF_CORE.
  DIIS enabled.
  MOM disabled.
  Fractional occupation disabled.
  Guess Type is SAD.
  Energy threshold   = 1.00e-08
  Density threshold  = 1.00e-08
  Integral threshold = 1.00e-12

  ==> Primary Basis <==

  Basis Set: AUG-CC-PV(5+D)Z
    Blend: AUG-CC-PV(5+D)Z
    Number of shells: 57
    Number of basis function: 263
    Number of Cartesian functions: 374
    Spherical Harmonics?: true
    Max angular momentum: 5

  ==> Integral Setup <==

  ==> DiskJK: Disk-Based J/K Matrices <==

    J tasked:                  Yes
    K tasked:                  Yes
    wK tasked:                  No
    Memory [MiB]:           178813
    Schwarz Cutoff:          1E-12

  Minimum eigenvalue in the overlap matrix is 2.6149308476E-05.
  Reciprocal condition number of the overlap matrix is 4.0420100325E-06.
    Using symmetric orthogonalization.

  ==> Pre-Iterations <==

  SCF Guess: Superposition of Atomic Densities via on-the-fly atomic UHF (no occupation information).


 WARNING: Atomic UHF is not converging! Try casting from a smaller basis or call Rob at CCMST.

 WARNING: Atomic UHF is not converging! Try casting from a smaller basis or call Rob at CCMST.
   -------------------------
    Irrep   Nso     Nmo    
   -------------------------
     A1        96      96 
     A2        39      39 
     B1        64      64 
     B2        64      64 
   -------------------------
    Total     263     263
   -------------------------

  ==> Iterations <==

                        Total Energy        Delta E     RMS |[F,P]|

   @UHF iter SAD:   -25.25145228868184   -2.52515e+01   0.00000e+00 
    Occupation by irrep:
             A1    A2    B1    B2 
    DOCC [     7,    0,    2,    2 ]
    SOCC [     0,    0,    1,    0 ]

   @UHF iter   1:  -402.46585387803623   -3.77214e+02   6.58729e-02 DIIS
   @UHF iter   2:  -397.66215730365906    4.80370e+00   2.53631e-02 DIIS
   @UHF iter   3:  -408.81353092473921   -1.11514e+01   3.10066e-02 DIIS
   @UHF iter   4:  -412.44050306036524   -3.62697e+00   1.98917e-02 DIIS
   @UHF iter   5:  -414.89381018731035   -2.45331e+00   8.68027e-03 DIIS
   @UHF iter   6:  -415.61820187929584   -7.24392e-01   1.21436e-03 DIIS
   @UHF iter   7:  -415.63109676246927   -1.28949e-02   4.77199e-04 DIIS
   @UHF iter   8:  -415.63416705592965   -3.07029e-03   2.72141e-04 DIIS
   @UHF iter   9:  -415.63488309051365   -7.16035e-04   5.87324e-05 DIIS
   @UHF iter  10:  -415.63500525923695   -1.22169e-04   2.66637e-05 DIIS
   @UHF iter  11:  -415.63503314579668   -2.78866e-05   1.05647e-05 DIIS
   @UHF iter  12:  -415.63503838745004   -5.24165e-06   6.13639e-06 DIIS
   @UHF iter  13:  -415.63504010040299   -1.71295e-06   3.54638e-06 DIIS
   @UHF iter  14:  -415.63504105682750   -9.56425e-07   2.82563e-06 DIIS
   @UHF iter  15:  -415.63504197401573   -9.17188e-07   2.52789e-06 DIIS
   @UHF iter  16:  -415.63504290908242   -9.35067e-07   2.37431e-06 DIIS
   @UHF iter  17:  -415.63504470256782   -1.79349e-06   2.11004e-06 DIIS
   @UHF iter  18:  -415.63504809898308   -3.39642e-06   1.40201e-06 DIIS
   @UHF iter  19:  -415.63504984285339   -1.74387e-06   4.55010e-07 DIIS
   @UHF iter  20:  -415.63504992440534   -8.15519e-08   1.58003e-07 DIIS
   @UHF iter  21:  -415.63504992764251   -3.23718e-09   3.52409e-08 DIIS
   @UHF iter  22:  -415.63504992769947   -5.69571e-11   1.26013e-08 DIIS
   @UHF iter  23:  -415.63504992770453   -5.05906e-12   3.50612e-09 DIIS
  Energy and wave function converged.


  ==> Post-Iterations <==

   @Spin Contamination Metric:   2.371466922E-02
   @S^2 Expected:                7.500000000E-01
   @S^2 Observed:                7.737146692E-01
   @S   Expected:                5.000000000E-01
   @S   Observed:                5.000000000E-01

    Orbital Energies [Eh]
    ---------------------

    Alpha Occupied:                                                       

       1A1   -80.031920     2A1   -20.590845     3A1    -7.568803  
       1B1    -5.470770     1B2    -5.459380     4A1    -5.457430  
       5A1    -1.356035     6A1    -0.766866     2B1    -0.600809  
       7A1    -0.556305     2B2    -0.527294     3B1    -0.343926  

    Alpha Virtual:                                                        

       3B2    -0.004251     8A1     0.041555     9A1     0.053937  
       4B1     0.057315     4B2     0.064146    10A1     0.119366  
       5B2     0.141795     5B1     0.142283    11A1     0.142963  
       1A2     0.143096    12A1     0.150355     6B1     0.194108  
       6B2     0.196907    13A1     0.210925    14A1     0.227840  
       7B1     0.275061     7B2     0.283970    15A1     0.334177  
       2A2     0.359075    16A1     0.359190     8B1     0.359710  
       8B2     0.359726    17A1     0.376957     3A2     0.377247  
       9B1     0.406070     9B2     0.407381    18A1     0.409687  
      19A1     0.470366    10B1     0.507125    10B2     0.524491  
      11B1     0.528997    11B2     0.530399    20A1     0.549244  
       4A2     0.549648    21A1     0.558982    22A1     0.595788  
      12B2     0.668724    12B1     0.670386    23A1     0.815251  
       5A2     0.883767    24A1     0.883767    13B1     0.888154  
      13B2     0.888170    25A1     0.921190     6A2     0.935851  
      26A1     0.937216     7A2     0.947293    27A1     0.947981  
      14B1     0.955276    14B2     0.955980    15B1     0.964887  
      15B2     0.972632    28A1     0.987570    16B2     0.992424  
      16B1     0.998787     8A2     1.024032    29A1     1.024819  
      17B2     1.097787    17B1     1.101414    30A1     1.163898  
      18B2     1.209673    18B1     1.209678    31A1     1.246016  
       9A2     1.267853    32A1     1.268073    19B2     1.282093  
      19B1     1.284348    33A1     1.305980    20B1     1.462357  
      20B2     1.462952    34A1     1.483832    35A1     1.663969  
      21B2     1.667624    21B1     1.667841    10A2     1.708782  
      36A1     1.709459    37A1     1.914739    22B2     2.109141  
      22B1     2.112493    38A1     2.123219    11A2     2.123220  
      23B2     2.129208    23B1     2.129208    39A1     2.136298  
      12A2     2.136612    24B2     2.146179    24B1     2.146190  
      25B2     2.256339    40A1     2.260962    13A2     2.264322  
      41A1     2.264864    25B1     2.265323    26B2     2.270988  
      26B1     2.271755    42A1     2.287239    14A2     2.287250  
      43A1     2.315834    27B2     2.333792    27B1     2.334740  
      28B2     2.345225    15A2     2.353511    44A1     2.355279  
      28B1     2.358143    45A1     2.547117    29B2     2.585681  
      29B1     2.595864    46A1     2.687136    16A2     2.691501  
      47A1     2.692437    17A2     2.843833    48A1     2.843833  
      30B2     2.915237    30B1     2.924804    31B2     3.039909  
      31B1     3.039910    49A1     3.063817    18A2     3.197204  
      50A1     3.197345    32B2     3.341422    32B1     3.347628  
      33B2     3.430059    33B1     3.430068    51A1     3.473283  
      34B2     3.501350    34B1     3.508753    52A1     3.566985  
      19A2     3.567062    53A1     3.586289    54A1     3.724038  
      35B2     4.046038    35B1     4.052887    20A2     4.251011  
      55A1     4.251093    56A1     4.315597    36B2     4.553020  
      36B1     4.553028    21A2     4.620066    57A1     4.620234  
      37B2     4.662271    37B1     4.674906    58A1     4.796273  
      38B2     4.828792    38B1     4.839529    22A2     4.898189  
      59A1     4.899329    60A1     4.974033    39B2     5.150544  
      61A1     5.154113    23A2     5.154113    39B1     5.155734  
      40B2     5.155742    40B1     5.164457    41B2     5.165161  
      41B1     5.165208    62A1     5.241174    24A2     5.241340  
      63A1     5.254213    25A2     5.259949    64A1     5.271556  
      42B2     5.311174    42B1     5.311199    43B2     5.490910  
      65A1     5.491045    43B1     5.501230    44B2     5.735931  
      66A1     5.749752    44B1     5.749850    26A2     5.750593  
      67A1     5.871096    45B2     6.220748    45B1     6.220748  
      68A1     6.310448    46B2     6.347787    46B1     6.360431  
      27A2     6.378136    69A1     6.378136    47B2     7.026649  
      47B1     7.026650    70A1     7.185320    28A2     7.185320  
      71A1     7.372313    29A2     7.372435    72A1     7.431410  
      48B2     7.454934    48B1     7.463353    49B2     7.486002  
      49B1     7.486039    50B2     7.606727    50B1     7.606727  
      73A1     7.713098    74A1     7.799183    30A2     7.799429  
      75A1     7.970519    51B2     8.066878    51B1     8.077477  
      31A2     8.639178    76A1     8.639200    32A2     8.819707  
      77A1     8.819718    78A1     8.965068    52B2     8.978060  
      52B1     8.987106    53B2    10.046216    53B1    10.055068  
      79A1    10.359170    80A1    12.171283    33A2    13.118837  
      81A1    13.118872    54B2    13.435781    54B1    13.444300  
      82A1    13.811538    55B2    16.206007    55B1    16.211537  
      56B2    16.258476    56B1    16.258476    83A1    16.320022  
      34A2    16.320022    57B2    16.560396    57B1    16.560402  
      58B2    16.752823    58B1    16.763856    84A1    16.794595  
      35A2    16.812614    85A1    16.816306    86A1    17.654629  
      59B2    17.966542    59B1    17.969137    87A1    19.141959  
      36A2    19.141959    88A1    19.166096    60B2    19.279656  
      60B1    19.279656    61B2    19.300222    61B1    19.300225  
      37A2    19.416333    89A1    19.416557    62B2    19.607187  
      62B1    19.620420    90A1    19.807364    38A2    19.807442  
      91A1    20.208896    63B2    20.277509    63B1    20.288669  
      92A1    21.364006    93A1    22.311719    39A2    22.311725  
      64B2    23.047231    64B1    23.056577    94A1    23.571626  
      95A1    54.635262    96A1    63.128227  

    Beta Occupied:                                                        

       1A1   -80.026075     2A1   -20.577940     3A1    -7.562665  
       1B2    -5.457115     4A1    -5.455772     1B1    -5.442001  
       5A1    -1.323431     6A1    -0.709778     7A1    -0.516134  
       2B2    -0.512441     2B1    -0.500304  

    Beta Virtual:                                                         

       3B2     0.005508     3B1     0.034126     8A1     0.043688  
       9A1     0.054486     4B2     0.066186     4B1     0.085577  
      10A1     0.121498     5B2     0.142194     5B1     0.144295  
       1A2     0.150090    11A1     0.150669    12A1     0.154980  
       6B2     0.198026     6B1     0.205554    13A1     0.214807  
      14A1     0.230646     7B2     0.285623     7B1     0.303793  
      15A1     0.339602    16A1     0.362313     2A2     0.362388  
       8B2     0.363214     8B1     0.363242     3A2     0.406490  
       9B2     0.406956    17A1     0.407372    18A1     0.411448  
       9B1     0.418024    19A1     0.478500    10B2     0.525832  
      11B2     0.532998    10B1     0.535546    11B1     0.547441  
      20A1     0.553106     4A2     0.553995    21A1     0.563826  
      22A1     0.598905    12B2     0.669086    12B1     0.682701  
      23A1     0.820790     5A2     0.889424    24A1     0.889427  
      13B2     0.891248    13B1     0.891301    25A1     0.923289  
       6A2     0.951085    26A1     0.952207    27A1     0.959183  
       7A2     0.962533    14B2     0.968704    14B1     0.972125  
      15B2     0.975837    16B2     0.992979    28A1     0.997125  
      15B1     1.002341    16B1     1.008263     8A2     1.033057  
      29A1     1.033675    17B2     1.100829    17B1     1.121559  
      30A1     1.172589    18B2     1.210941    18B1     1.210991  
      31A1     1.251658     9A2     1.270327    32A1     1.270585  
      19B2     1.282592    19B1     1.293028    33A1     1.311027  
      20B2     1.465202    20B1     1.481565    34A1     1.488918  
      21B2     1.669752    35A1     1.670189    21B1     1.684183  
      10A2     1.715803    36A1     1.717355    37A1     1.922839  
      22B2     2.110959    38A1     2.127930    11A2     2.127961  
      22B1     2.132426    23B2     2.137542    23B1     2.137561  
      39A1     2.147870    12A2     2.149645    24B2     2.167820  
      24B1     2.167994    25B2     2.257545    40A1     2.267766  
      13A2     2.276075    41A1     2.276579    25B1     2.277776  
      26B2     2.278666    26B1     2.282612    42A1     2.305976  
      14A2     2.306028    43A1     2.319590    27B2     2.337307  
      27B1     2.341460    28B2     2.351186    15A2     2.360768  
      44A1     2.365806    28B1     2.375083    45A1     2.551629  
      29B2     2.588088    29B1     2.610759    46A1     2.690740  
      16A2     2.697194    47A1     2.699059    17A2     2.844928  
      48A1     2.844929    30B2     2.916413    30B1     2.934278  
      31B2     3.043579    31B1     3.043584    49A1     3.065074  
      18A2     3.200834    50A1     3.200982    32B2     3.342552  
      32B1     3.355797    33B2     3.432556    33B1     3.432585  
      51A1     3.477281    34B2     3.503610    34B1     3.529842  
      52A1     3.579824    19A2     3.582382    53A1     3.597316  
      54A1     3.730538    35B2     4.049333    35B1     4.069421  
      20A2     4.257863    55A1     4.258193    56A1     4.323204  
      36B2     4.567302    36B1     4.567373    21A2     4.626426  
      57A1     4.626785    37B2     4.662909    37B1     4.686877  
      58A1     4.803703    38B2     4.830191    38B1     4.850800  
      22A2     4.907129    59A1     4.910174    60A1     4.976445  
      39B2     5.152855    39B1     5.163091    40B2     5.163101  
      61A1     5.163657    23A2     5.163657    40B1     5.177160  
      41B2     5.177215    41B1     5.182775    62A1     5.250330  
      24A2     5.254646    63A1     5.261476    25A2     5.270818  
      64A1     5.282354    42B2     5.323545    42B1     5.323747  
      43B2     5.494712    65A1     5.497504    43B1     5.518925  
      44B2     5.737142    66A1     5.754792    26A2     5.756618  
      44B1     5.760343    67A1     5.879075    45B2     6.221785  
      45B1     6.221785    68A1     6.314531    46B2     6.349856  
      46B1     6.371684    27A2     6.379277    69A1     6.379277  
      47B2     7.029260    47B1     7.029262    70A1     7.190567  
      28A2     7.190567    71A1     7.375744    29A2     7.376004  
      72A1     7.438108    48B2     7.455541    48B1     7.467254  
      49B2     7.491854    49B1     7.491935    50B2     7.616960  
      50B1     7.616961    73A1     7.715565    74A1     7.804883  
      30A2     7.805346    75A1     7.974227    51B2     8.069686  
      51B1     8.086110    31A2     8.646362    76A1     8.646394  
      77A1     8.837354    32A2     8.837381    78A1     8.970650  
      52B2     8.981031    52B1     8.997025    53B2    10.050362  
      53B1    10.068202    79A1    10.364463    80A1    12.182512  
      81A1    13.127002    33A2    13.127004    54B2    13.436538  
      54B1    13.452725    82A1    13.815084    55B2    16.212325  
      55B1    16.232212    56B2    16.264807    56B1    16.264807  
      83A1    16.325125    34A2    16.325125    57B2    16.564566  
      57B1    16.564577    58B2    16.754674    58B1    16.769412  
      84A1    16.796295    35A2    16.816118    85A1    16.821089  
      86A1    17.660580    59B2    17.968401    59B1    17.986582  
      87A1    19.152722    36A2    19.152724    88A1    19.170534  
      60B2    19.293358    60B1    19.293359    61B2    19.309260  
      61B1    19.309268    37A2    19.423366    89A1    19.423800  
      62B2    19.610876    62B1    19.629118    90A1    19.817619  
      38A2    19.817827    91A1    20.215600    63B2    20.281785  
      63B1    20.300167    92A1    21.366901    93A1    22.325923  
      39A2    22.325947    64B2    23.051782    64B1    23.069613  
      94A1    23.577679    95A1    54.638992    96A1    63.133421  

    Final Occupation by Irrep:
             A1    A2    B1    B2 
    DOCC [     7,    0,    2,    2 ]
    SOCC [     0,    0,    1,    0 ]

  @UHF Final Energy:  -415.63504992770453

   => Energetics <=

    Nuclear Repulsion Energy =             42.4643896978027726
    One-Electron Energy =                -659.3848398690524846
    Two-Electron Energy =                 201.2854002435451832
    Total Energy =                       -415.6350499277045856

  UHF NO Occupations:
  HONO-2 :    2 B1 1.9963710
  HONO-1 :    7 A1 1.9923253
  HONO-0 :    3 B1 1.0000000
  LUNO+0 :    8 A1 0.0076747
  LUNO+1 :    4 B1 0.0036290
  LUNO+2 :    3 B2 0.0003772
  LUNO+3 :    9 A1 0.0001437


Computation Completed


Properties will be evaluated at   0.000000,   0.000000,   0.000000 [a0]

Properties computed using the SCF density matrix

  Nuclear Dipole Moment: [e a0]
     X:     0.0000      Y:     0.0000      Z:    -0.4733

  Electronic Dipole Moment: [e a0]
     X:     0.0000      Y:     0.0000      Z:     1.5284

  Dipole Moment: [e a0]
     X:     0.0000      Y:     0.0000      Z:     1.0552     Total:     1.0552

  Dipole Moment: [D]
     X:     0.0000      Y:     0.0000      Z:     2.6819     Total:     2.6819


*** tstop() called on n412-045.vsc4.prov at Fri Jan 22 07:16:28 2021
Module time:
	user time   =     323.26 seconds =       5.39 minutes
	system time =      23.84 seconds =       0.40 minutes
	total time  =        273 seconds =       4.55 minutes
Total time:
	user time   =     323.26 seconds =       5.39 minutes
	system time =      23.84 seconds =       0.40 minutes
	total time  =        273 seconds =       4.55 minutes

*** tstart() called on n412-045.vsc4.prov
*** at Fri Jan 22 07:16:28 2021


	Wfn Parameters:
	--------------------
	Wavefunction         = CCSD_T
	Number of irreps     = 4
	Number of MOs        = 263
	Number of active MOs = 257
	AO-Basis             = NONE
	Semicanonical        = false
	Reference            = UHF
	Print Level          = 1

	IRREP	# MOs	# FZDC	# DOCC	# SOCC	# VIRT	# FZVR
	-----	-----	------	------	------	------	------
	 A1	   96	    4	    3	    0	    89	    0
	 A2	   39	    0	    0	    0	    39	    0
	 B1	   64	    1	    1	    1	    61	    0
	 B2	   64	    1	    1	    0	    62	    0
	Transforming integrals...
	IWL integrals will be deleted.
	(OO|OO)...
	Presorting SO-basis two-electron integrals.
	Sorting File: SO Ints (nn|nn) nbuckets = 1
	Constructing frozen core operators
	Starting AA/AB first half-transformation.
	Sorting AA/AB half-transformed integrals.
	Starting BB first half-transformation.
	Sorting BB half-transformed integrals.
	First half integral transformation complete.
	Starting AA second half-transformation.
	Starting AB second half-transformation.
	Starting BB second half-transformation.
	Two-electron integral transformation complete.
	(OO|OV)...
	Starting AA second half-transformation.
	Starting AB second half-transformation.
	Starting BB second half-transformation.
	Two-electron integral transformation complete.
	(OO|VV)...
	Starting AA second half-transformation.
	Starting AB second half-transformation.
	Starting BB second half-transformation.
	Two-electron integral transformation complete.
	(OV|OO)...
	Starting AA/AB first half-transformation.
	Sorting AA/AB half-transformed integrals.
	Starting BB first half-transformation.
	Sorting BB half-transformed integrals.
	First half integral transformation complete.
	Starting AA second half-transformation.
	Starting AB second half-transformation.
	Starting BB second half-transformation.
	Two-electron integral transformation complete.
	(OV|OV)...
	Starting AA second half-transformation.
	Starting AB second half-transformation.
	Starting BB second half-transformation.
	Two-electron integral transformation complete.
	(OV|VV)...
	Starting AA second half-transformation.
	Starting AB second half-transformation.
	Starting BB second half-transformation.
	Two-electron integral transformation complete.
	(VV|OO)...
	Starting AA/AB first half-transformation.
	Sorting AA/AB half-transformed integrals.
	Starting BB first half-transformation.
	Sorting BB half-transformed integrals.
	First half integral transformation complete.
	Starting AA second half-transformation.
	Starting AB second half-transformation.
	Starting BB second half-transformation.
	Two-electron integral transformation complete.
	(VV|OV)...
	Starting AA second half-transformation.
	Starting AB second half-transformation.
	Starting BB second half-transformation.
	Two-electron integral transformation complete.
	(VV|VV)...
	Starting AA second half-transformation.
	Starting AB second half-transformation.
	Starting BB second half-transformation.
	Two-electron integral transformation complete.
	Frozen core energy     =   -425.31933228075701

	Size of irrep 0 of <AB|CD> integrals:     70.191 (MW) /    561.527 (MB)
	Size of irrep 1 of <AB|CD> integrals:     52.606 (MW) /    420.848 (MB)
	Size of irrep 2 of <AB|CD> integrals:     61.575 (MW) /    492.603 (MB)
	Size of irrep 3 of <AB|CD> integrals:     62.363 (MW) /    498.901 (MB)
	Total:                                   246.735 (MW) /   1973.879 (MB)

	Size of irrep 0 of <ab|cd> integrals:     71.217 (MW) /    569.734 (MB)
	Size of irrep 1 of <ab|cd> integrals:     53.509 (MW) /    428.074 (MB)
	Size of irrep 2 of <ab|cd> integrals:     62.980 (MW) /    503.841 (MB)
	Size of irrep 3 of <ab|cd> integrals:     62.980 (MW) /    503.841 (MB)
	Total:                                   250.686 (MW) /   2005.489 (MB)

	Size of irrep 0 of <Ab|Cd> integrals:    291.317 (MW) /   2330.533 (MB)
	Size of irrep 1 of <Ab|Cd> integrals:    212.227 (MW) /   1697.813 (MB)
	Size of irrep 2 of <Ab|Cd> integrals:    249.103 (MW) /   1992.825 (MB)
	Size of irrep 3 of <Ab|Cd> integrals:    250.684 (MW) /   2005.471 (MB)
	Total:                                  1003.330 (MW) /   8026.642 (MB)

	Size of irrep 0 of <IA|BC> integrals:      7.670 (MW) /     61.361 (MB)
	Size of irrep 1 of <IA|BC> integrals:      4.381 (MW) /     35.046 (MB)
	Size of irrep 2 of <IA|BC> integrals:      6.278 (MW) /     50.221 (MB)
	Size of irrep 3 of <IA|BC> integrals:      5.575 (MW) /     44.602 (MB)
	Total:                                    23.904 (MW) /    191.231 (MB)

	Size of irrep 0 of <ia|bc> integrals:      6.698 (MW) /     53.583 (MB)
	Size of irrep 1 of <ia|bc> integrals:      3.526 (MW) /     28.207 (MB)
	Size of irrep 2 of <ia|bc> integrals:      4.984 (MW) /     39.870 (MB)
	Size of irrep 3 of <ia|bc> integrals:      4.984 (MW) /     39.870 (MB)
	Total:                                    20.191 (MW) /    161.530 (MB)

	Size of irrep 0 of <Ia|Bc> integrals:      7.732 (MW) /     61.854 (MB)
	Size of irrep 1 of <Ia|Bc> integrals:      4.414 (MW) /     35.313 (MB)
	Size of irrep 2 of <Ia|Bc> integrals:      6.361 (MW) /     50.884 (MB)
	Size of irrep 3 of <Ia|Bc> integrals:      5.589 (MW) /     44.712 (MB)
	Total:                                    24.096 (MW) /    192.764 (MB)

	Size of irrep 0 of <iA|bC> integrals:      6.657 (MW) /     53.252 (MB)
	Size of irrep 1 of <iA|bC> integrals:      3.496 (MW) /     27.971 (MB)
	Size of irrep 2 of <iA|bC> integrals:      4.909 (MW) /     39.268 (MB)
	Size of irrep 3 of <iA|bC> integrals:      4.972 (MW) /     39.772 (MB)
	Total:                                    20.033 (MW) /    160.263 (MB)

	Size of irrep 0 of tIjAb amplitudes:       0.205 (MW) /      1.639 (MB)
	Size of irrep 1 of tIjAb amplitudes:       0.044 (MW) /      0.350 (MB)
	Size of irrep 2 of tIjAb amplitudes:       0.142 (MW) /      1.136 (MB)
	Size of irrep 3 of tIjAb amplitudes:       0.095 (MW) /      0.760 (MB)
	Total:                                     0.486 (MW) /      3.885 (MB)

	Nuclear Rep. energy          =     42.46438969780277
	SCF energy                   =   -415.63504992770453
	One-electron energy          =    -57.84689079838132
	Two-electron (AA) energy     =      6.01296051041352
	Two-electron (BB) energy     =      4.31552548767583
	Two-electron (AB) energy     =     14.73829745553942
	Two-electron energy          =     25.06678345362877
	Reference energy             =   -415.63504992770680

*** tstop() called on n412-045.vsc4.prov at Fri Jan 22 07:22:26 2021
Module time:
	user time   =     121.89 seconds =       2.03 minutes
	system time =      75.06 seconds =       1.25 minutes
	total time  =        358 seconds =       5.97 minutes
Total time:
	user time   =     445.16 seconds =       7.42 minutes
	system time =      98.90 seconds =       1.65 minutes
	total time  =        631 seconds =      10.52 minutes
            **************************
            *                        *
            *        CCENERGY        *
            *                        *
            **************************

    Nuclear Rep. energy (wfn)     =   42.464389697802773
    SCF energy          (wfn)     = -415.635049927704529
    Reference energy    (file100) = -415.635049927706802

    Input parameters:
    -----------------
    Wave function   =     CCSD_T
    Reference wfn   =     UHF
    Brueckner       =     No
    Memory (Mbytes) =     250000.0
    Maxiter         =     50
    R_Convergence   =     1.0e-07
    E_Convergence   =     1.0e-06
    Restart         =     Yes
    DIIS            =     Yes
    AO Basis        =     NONE
    ABCD            =     NEW
    Cache Level     =     2
    Cache Type      =     LRU
    Print Level     =     1
    Num. of threads =     48
    # Amps to Print =     10
    Print MP2 Amps? =     No
    Analyze T2 Amps =     No
    Print Pair Ener =     No
    Local CC        =     No
    SCS-MP2         =     False
    SCSN-MP2        =     False
    SCS-CCSD        =     False

MP2 correlation energy -0.3996582931633168
                Solving CC Amplitude Equations
                ------------------------------
  Iter             Energy              RMS        T1Diag      D1Diag    New D1Diag    D2Diag
  ----     ---------------------    ---------   ----------  ----------  ----------   --------
     0        -0.399658293163317    0.000e+00    0.000000    0.000000    0.000000    0.000000
     1        -0.379395908214940    1.187e-01    0.027942    0.000000    0.000000    0.000000
     2        -0.394173918778195    4.937e-02    0.024908    0.000000    0.000000    0.000000
     3        -0.399039307782545    2.411e-02    0.031818    0.000000    0.000000    0.000000
     4        -0.398671936515928    7.230e-03    0.034265    0.000000    0.000000    0.000000
     5        -0.398661797399995    3.266e-03    0.035447    0.000000    0.000000    0.000000
     6        -0.398681851132776    1.220e-03    0.035772    0.000000    0.000000    0.000000
     7        -0.398669744164976    5.751e-04    0.035855    0.000000    0.000000    0.000000
     8        -0.398675196963238    2.599e-04    0.035885    0.000000    0.000000    0.000000
     9        -0.398680769634961    1.323e-04    0.035888    0.000000    0.000000    0.000000
    10        -0.398676167044896    6.659e-05    0.035887    0.000000    0.000000    0.000000
    11        -0.398677424019714    2.953e-05    0.035881    0.000000    0.000000    0.000000
    12        -0.398677177760036    1.322e-05    0.035884    0.000000    0.000000    0.000000
    13        -0.398677064180487    5.796e-06    0.035883    0.000000    0.000000    0.000000
    14        -0.398677293245296    2.783e-06    0.035883    0.000000    0.000000    0.000000
    15        -0.398677231904981    1.357e-06    0.035883    0.000000    0.000000    0.000000
    16        -0.398677224051110    6.349e-07    0.035883    0.000000    0.000000    0.000000
    17        -0.398677221685159    2.669e-07    0.035883    0.000000    0.000000    0.000000
    18        -0.398677217227353    1.044e-07    0.035883    0.000000    0.000000    0.000000
    19        -0.398677219533715    4.609e-08    0.035883    0.000000    0.000000    0.000000

    Iterations converged.


    Largest TIA Amplitudes:
              5 189        -0.0577477288
              5 190         0.0238432949
              3 134        -0.0216410268
              5 193        -0.0155157277
              2   9        -0.0148041729
              2   3        -0.0129084249
              2   7         0.0127905145
              3 130        -0.0127430380
              1   9         0.0127207522
              2   2        -0.0100860314

    Largest Tia Amplitudes:
              3 129         0.0409843394
              3 128        -0.0391654864
              4 190        -0.0295135990
              3 132        -0.0186491492
              4 191         0.0160746985
              1   4         0.0136793370
              1   7        -0.0122257276
              4 194        -0.0116714906
              2   4         0.0103079101
              4 207         0.0094242812

    Largest TIJAB Amplitudes:
      5   4 189 134        -0.0181122188
      5   2 189   7         0.0160322051
      5   2 189  15        -0.0127583432
      5   2 189   4        -0.0125425399
      5   4  91   9         0.0119420743
      5   2 189   2        -0.0114408444
      4   2 134   7         0.0113111518
      5   2 189   5        -0.0107624462
      5   2 189  11        -0.0102284698
      5   3 189 134        -0.0091130992

    Largest Tijab Amplitudes:
      4   3 190 128        -0.0224055282
      4   3 190 129         0.0214115167
      4   2 190   7         0.0165451627
      4   3 190 136        -0.0151268796
      4   2 190  15        -0.0120258271
      3   2 129   7        -0.0110321594
      3   2 128   7         0.0109224025
      4   2 190   4        -0.0107693824
      4   2 190   2        -0.0107483579
      4   3 190 131        -0.0104149926

    Largest TIjAb Amplitudes:
      5   4 189 190        -0.0663361524
      2   2 189 190        -0.0400006208
      5   3 189 128        -0.0313481207
      1   2 189 190         0.0303507981
      5   3 189 129         0.0300920428
      5   4 189 191         0.0297085214
      5   4 189 198         0.0292971619
      1   1 189 190         0.0282814453
      5   4 196 190        -0.0262257077
      5   4 190 190         0.0249318075

    SCF energy       (wfn)                    = -415.635049927704529
    Reference energy (file100)                = -415.635049927706802

    Opposite-spin MP2 correlation energy      =   -0.302253239201695
    Same-spin MP2 correlation energy          =   -0.097405053961622
    Singles MP2 correlation energy            =   -0.000000000000000
    MP2 correlation energy                    =   -0.399658293163317
      * MP2 total energy                      = -416.034708220870129

    Opposite-spin CCSD correlation energy     =   -0.314799392220741
    Same-spin CCSD correlation energy         =   -0.083877827312978
    Singles CCSD correlation energy           =    0.000000000000004
    CCSD correlation energy                   =   -0.398677219533715
      * CCSD total energy                     = -416.033727147240540

            **************************
            *                        *
            *        CCTRIPLES       *
            *                        *
            **************************


    Wave function   =    CCSD_T
    Reference wfn   =      UHF

    Nuclear Rep. energy (wfn)                =   42.464389697802773
    SCF energy          (wfn)                = -415.635049927704529
    Reference energy    (file100)            = -415.635049927706802
    CCSD energy         (file100)            =   -0.398677219533715
    Total CCSD energy   (file100)            = -416.033727147240540

    Number of ijk index combinations:
    Spin Case AAA:                                  20
    Spin Case BBB:                                  10
    Spin Case AAB:                                  75
    Spin Case ABB:                                  60
    AAA (T) energy                             =   -0.000501538573202
    BBB (T) energy                             =   -0.000545011088894
    AAB (T) energy                             =   -0.010805231745617
    ABB (T) energy                             =   -0.010373418878891
    (T) energy                                   =   -0.022225200286605
      * CCSD(T) total energy                     = -416.055952347527125


    Psi4 stopped on: Friday, 22 January 2021 07:32AM
    Psi4 wall time for execution: 0:20:40.94

*** Psi4 exiting successfully. Buy a developer a beer!
