
    -----------------------------------------------------------------------
          Psi4: An Open-Source Ab Initio Electronic Structure Package
                               Psi4 1.4a3.dev88 

                         Git: Rev {master} 262e345 


    D. G. A. Smith, L. A. Burns, A. C. Simmonett, R. M. Parrish,
    M. C. Schieber, R. Galvelis, P. Kraus, H. Kruse, R. Di Remigio,
    A. Alenaizan, A. M. James, S. Lehtola, J. P. Misiewicz, M. Scheurer,
    R. A. Shaw, J. B. Schriber, Y. Xie, Z. L. Glick, D. A. Sirianni,
    J. S. O'Brien, J. M. Waldrop, A. Kumar, E. G. Hohenstein,
    B. P. Pritchard, B. R. Brooks, H. F. Schaefer III, A. Yu. Sokolov,
    K. Patkowski, A. E. DePrince III, U. Bozkaya, R. A. King,
    F. A. Evangelista, J. M. Turney, T. D. Crawford, C. D. Sherrill,
    J. Chem. Phys. 152(18) 184108 (2020). https://doi.org/10.1063/5.0006002

                            Additional Code Authors
    E. T. Seidl, C. L. Janssen, E. F. Valeev, M. L. Leininger,
    J. F. Gonthier, R. M. Richard, H. R. McAlexander, M. Saitow, X. Wang,
    P. Verma, and M. H. Lechner

             Previous Authors, Complete List of Code Contributors,
                       and Citations for Specific Modules
    https://github.com/psi4/psi4/blob/master/codemeta.json
    https://github.com/psi4/psi4/graphs/contributors
    http://psicode.org/psi4manual/master/introduction.html#citing-psifour

    -----------------------------------------------------------------------


    Psi4 started on: Tuesday, 26 January 2021 06:29PM

    Process ID: 410154
    Host:       n412-040.vsc4.prov
    PSIDATADIR: /home/fs71337/gallo4/psi4/eri-6/psi4/build/stage/share/psi4
    Memory:     500.0 MiB
    Threads:    48
    
  ==> Input File <==

--------------------------------------------------------------------------
# Any line starting with the # character is a comment line
memory 250000 mb
molecule molecule{
0 2
P          0.0000000000        0.0000000000        0.5093442540
O          0.0000000000        0.0000000000       -0.9860561446
}

set {
  reference uhf
  basis aug-cc-pV(t+d)Z
  scf_type OUT_OF_CORE
  freeze_core true
}

energy('ccsd(t)')
--------------------------------------------------------------------------

  Memory set to 232.831 GiB by Python driver.

Scratch directory: /binfl/lv71337/airmler/temp/

*** tstart() called on n412-040.vsc4.prov
*** at Tue Jan 26 18:29:15 2021

   => Loading Basis Set <=

    Name: AUG-CC-PV(T+D)Z
    Role: ORBITAL
    Keyword: BASIS
    atoms 1 entry P          line   860 file /home/fs71337/gallo4/psi4/eri-6/psi4/build/stage/share/psi4/basis/aug-cc-pv_tpd_z.gbs 
    atoms 2 entry O          line   359 file /home/fs71337/gallo4/psi4/eri-6/psi4/build/stage/share/psi4/basis/aug-cc-pv_tpd_z.gbs 


         ---------------------------------------------------------
                                   SCF
               by Justin Turney, Rob Parrish, Andy Simmonett
                          and Daniel G. A. Smith
                              UHF Reference
                       48 Threads, 238418 MiB Core
         ---------------------------------------------------------

  ==> Geometry <==

    Molecular point group: c2v
    Full point group: C_inf_v

    Geometry (in Angstrom), charge = 0, multiplicity = 2:

       Center              X                  Y                   Z               Mass       
    ------------   -----------------  -----------------  -----------------  -----------------
         P            0.000000000000     0.000000000000     0.509250066639    30.973761998420
         O            0.000000000000     0.000000000000    -0.986150331961    15.994914619570

  Running in c2v symmetry.

  Rotational constants: A = ************  B =      0.71468  C =      0.71468 [cm^-1]
  Rotational constants: A = ************  B =  21425.68205  C =  21425.68205 [MHz]
  Nuclear repulsion =   42.464389697802773

  Charge       = 0
  Multiplicity = 2
  Electrons    = 23
  Nalpha       = 12
  Nbeta        = 11

  ==> Algorithm <==

  SCF Algorithm Type is OUT_OF_CORE.
  DIIS enabled.
  MOM disabled.
  Fractional occupation disabled.
  Guess Type is SAD.
  Energy threshold   = 1.00e-08
  Density threshold  = 1.00e-08
  Integral threshold = 1.00e-12

  ==> Primary Basis <==

  Basis Set: AUG-CC-PV(T+D)Z
    Blend: AUG-CC-PV(T+D)Z
    Number of shells: 31
    Number of basis function: 101
    Number of Cartesian functions: 120
    Spherical Harmonics?: true
    Max angular momentum: 3

  ==> Integral Setup <==

  ==> DiskJK: Disk-Based J/K Matrices <==

    J tasked:                  Yes
    K tasked:                  Yes
    wK tasked:                  No
    Memory [MiB]:           178813
    Schwarz Cutoff:          1E-12

  Minimum eigenvalue in the overlap matrix is 4.8168089938E-04.
  Reciprocal condition number of the overlap matrix is 9.8999869126E-05.
    Using symmetric orthogonalization.

  ==> Pre-Iterations <==

  SCF Guess: Superposition of Atomic Densities via on-the-fly atomic UHF (no occupation information).


 WARNING: Atomic UHF is not converging! Try casting from a smaller basis or call Rob at CCMST.

 WARNING: Atomic UHF is not converging! Try casting from a smaller basis or call Rob at CCMST.
   -------------------------
    Irrep   Nso     Nmo    
   -------------------------
     A1        42      42 
     A2        11      11 
     B1        24      24 
     B2        24      24 
   -------------------------
    Total     101     101
   -------------------------

  ==> Iterations <==

                        Total Energy        Delta E     RMS |[F,P]|

   @UHF iter SAD:  -328.76885374855635   -3.28769e+02   0.00000e+00 
   @UHF iter   1:  -402.73666956398063   -7.39678e+01   1.28208e-01 DIIS
   @UHF iter   2:  -399.04405984839985    3.69261e+00   5.61879e-02 DIIS
   @UHF iter   3:  -408.88187130854897   -9.83781e+00   7.62536e-02 DIIS
   @UHF iter   4:  -412.54929525647952   -3.66742e+00   4.77574e-02 DIIS
   @UHF iter   5:  -414.69388946089254   -2.14459e+00   2.43691e-02 DIIS
   @UHF iter   6:  -415.59018701991829   -8.96298e-01   3.37505e-03 DIIS
   @UHF iter   7:  -415.62290134698827   -3.27143e-02   6.54963e-04 DIIS
   @UHF iter   8:  -415.62454056967601   -1.63922e-03   4.76945e-04 DIIS
   @UHF iter   9:  -415.62499762218403   -4.57053e-04   1.27727e-04 DIIS
   @UHF iter  10:  -415.62508988752364   -9.22653e-05   5.18643e-05 DIIS
   @UHF iter  11:  -415.62510808947712   -1.82020e-05   2.34630e-05 DIIS
   @UHF iter  12:  -415.62511351289163   -5.42341e-06   1.43842e-05 DIIS
   @UHF iter  13:  -415.62511673345671   -3.22057e-06   9.82886e-06 DIIS
   @UHF iter  14:  -415.62511843703282   -1.70358e-06   8.66702e-06 DIIS
   @UHF iter  15:  -415.62511965853105   -1.22150e-06   8.16964e-06 DIIS
   @UHF iter  16:  -415.62512237279975   -2.71427e-06   7.41284e-06 DIIS
   @UHF iter  17:  -415.62513060359936   -8.23080e-06   4.30702e-06 DIIS
   @UHF iter  18:  -415.62513310733834   -2.50374e-06   1.90592e-06 DIIS
   @UHF iter  19:  -415.62513317703014   -6.96918e-08   1.00017e-06 DIIS
   @UHF iter  20:  -415.62513318542500   -8.39486e-09   1.54701e-07 DIIS
   @UHF iter  21:  -415.62513318558189   -1.56888e-10   5.75806e-08 DIIS
   @UHF iter  22:  -415.62513318560082   -1.89289e-11   2.32572e-08 DIIS
   @UHF iter  23:  -415.62513318560309   -2.27374e-12   7.87871e-09 DIIS
  Energy and wave function converged.


  ==> Post-Iterations <==

   @Spin Contamination Metric:   2.359239498E-02
   @S^2 Expected:                7.500000000E-01
   @S^2 Observed:                7.735923950E-01
   @S   Expected:                5.000000000E-01
   @S   Observed:                5.000000000E-01

    Orbital Energies [Eh]
    ---------------------

    Alpha Occupied:                                                       

       1A1   -80.033796     2A1   -20.595204     3A1    -7.570352  
       1B2    -5.471381     1B1    -5.460673     4A1    -5.458766  
       5A1    -1.357831     6A1    -0.767403     2B2    -0.601054  
       7A1    -0.556488     2B1    -0.527846     3B2    -0.343649  

    Alpha Virtual:                                                        

       3B1    -0.004022     8A1     0.059134     9A1     0.069065  
       4B2     0.077703     4B1     0.087543    10A1     0.155869  
      11A1     0.192403     1A2     0.192459    12A1     0.204589  
       5B2     0.205366     5B1     0.205910     6B2     0.280929  
       6B1     0.288647    13A1     0.324043    14A1     0.357264  
       7B2     0.473594     7B1     0.487486    15A1     0.514264  
       2A2     0.536748    16A1     0.537099     8B2     0.607654  
      17A1     0.616443     3A2     0.616811     8B1     0.620650  
       9B2     0.626027     9B1     0.626690    18A1     0.648244  
      19A1     0.754238    10B2     0.783049    10B1     0.785393  
      11B2     0.875372    11B1     0.882138     4A2     0.892465  
      20A1     0.892468    21A1     0.977719    22A1     1.059468  
      12B1     1.310827    12B2     1.311996    23A1     1.386583  
      24A1     1.544953     5A2     1.545004    13B1     1.599586  
      13B2     1.602954    25A1     1.689101    26A1     1.754553  
       6A2     1.761431    27A1     1.765395    14B1     1.822464  
      14B2     1.822474    15B1     1.865099    15B2     1.867466  
      16B1     2.110354    16B2     2.110354    28A1     2.298858  
       7A2     2.325258    29A1     2.325544    17B2     2.415969  
      17B1     2.419262     8A2     2.455251    30A1     2.455394  
      31A1     2.477993    18B1     2.493797    18B2     2.495735  
      32A1     2.781729    19B1     3.052852    19B2     3.060221  
      33A1     3.641800    20B2     4.447921    20B1     4.458835  
      34A1     4.565277    35A1     5.327815     9A2     6.145218  
      36A1     6.145296    21B1     6.330475    21B2     6.339744  
      22B1     6.502092    22B2     6.502093    37A1     6.608393  
      10A2     6.608640    38A1     6.694506    23B1     6.780725  
      23B2     6.788390    11A2     7.084651    39A1     7.084676  
      40A1     7.266101    24B1     7.340330    24B2     7.342327  
      41A1     7.880991    42A1    11.519815  

    Beta Occupied:                                                        

       1A1   -80.028439     2A1   -20.582176     3A1    -7.564180  
       1B1    -5.458550     4A1    -5.457182     1B2    -5.443496  
       5A1    -1.325025     6A1    -0.710459     7A1    -0.516297  
       2B1    -0.512487     2B2    -0.500392  

    Beta Virtual:                                                         

       3B1     0.006182     3B2     0.038081     8A1     0.062021  
       9A1     0.070863     4B1     0.089814     4B2     0.110914  
      10A1     0.161000     5B1     0.206786    11A1     0.207958  
       1A2     0.208040     5B2     0.209880    12A1     0.210398  
       6B1     0.290428     6B2     0.303904    13A1     0.325436  
      14A1     0.367664     7B1     0.490051     7B2     0.517529  
      15A1     0.521206     2A2     0.572459    16A1     0.574512  
       8B1     0.619953    17A1     0.626637     3A2     0.627673  
       8B2     0.638239     9B1     0.638387     9B2     0.645124  
      18A1     0.649713    19A1     0.762883    10B1     0.788766  
      10B2     0.809290    11B1     0.885223    11B2     0.895078  
       4A2     0.898134    20A1     0.898225    21A1     0.984878  
      22A1     1.072691    12B1     1.312889    12B2     1.326108  
      23A1     1.397282     5A2     1.565984    24A1     1.567083  
      13B1     1.601050    13B2     1.630305    25A1     1.693021  
      26A1     1.755318     6A2     1.774354    27A1     1.779915  
      14B1     1.846276    14B2     1.848438    15B1     1.870463  
      15B2     1.897181    16B1     2.112830    16B2     2.112835  
      28A1     2.306118     7A2     2.343621    29A1     2.343861  
      17B1     2.422509    17B2     2.450726     8A2     2.460915  
      30A1     2.461514    31A1     2.486754    18B1     2.495732  
      18B2     2.512226    32A1     2.790021    19B1     3.054197  
      19B2     3.071322    33A1     3.646862    20B1     4.468301  
      20B2     4.485505    34A1     4.574181    35A1     5.335027  
       9A2     6.152106    36A1     6.152353    21B1     6.331631  
      21B2     6.348532    22B1     6.515770    22B2     6.515774  
      37A1     6.617355    10A2     6.618258    38A1     6.701827  
      23B1     6.784456    23B2     6.799559    39A1     7.111515  
      11A2     7.111719    40A1     7.274962    24B1     7.348074  
      24B2     7.366122    41A1     7.887369    42A1    11.531726  

    Final Occupation by Irrep:
             A1    A2    B1    B2 
    DOCC [     7,    0,    2,    2 ]
    SOCC [     0,    0,    0,    1 ]

  @UHF Final Energy:  -415.62513318560309

   => Energetics <=

    Nuclear Repulsion Energy =             42.4643896978027726
    One-Electron Energy =                -659.3359203691566108
    Two-Electron Energy =                 201.2463974857507765
    Total Energy =                       -415.6251331856030902

  UHF NO Occupations:
  HONO-2 :    2 B2 1.9963896
  HONO-1 :    7 A1 1.9924122
  HONO-0 :    3 B2 1.0000000
  LUNO+0 :    8 A1 0.0075878
  LUNO+1 :    4 B2 0.0036104
  LUNO+2 :    3 B1 0.0004236
  LUNO+3 :    9 A1 0.0001426


Computation Completed


Properties will be evaluated at   0.000000,   0.000000,   0.000000 [a0]

Properties computed using the SCF density matrix

  Nuclear Dipole Moment: [e a0]
     X:     0.0000      Y:     0.0000      Z:    -0.4733

  Electronic Dipole Moment: [e a0]
     X:     0.0000      Y:     0.0000      Z:     1.5261

  Dipole Moment: [e a0]
     X:     0.0000      Y:     0.0000      Z:     1.0528     Total:     1.0528

  Dipole Moment: [D]
     X:     0.0000      Y:     0.0000      Z:     2.6761     Total:     2.6761


*** tstop() called on n412-040.vsc4.prov at Tue Jan 26 18:29:25 2021
Module time:
	user time   =      53.00 seconds =       0.88 minutes
	system time =       3.04 seconds =       0.05 minutes
	total time  =         10 seconds =       0.17 minutes
Total time:
	user time   =      53.00 seconds =       0.88 minutes
	system time =       3.04 seconds =       0.05 minutes
	total time  =         10 seconds =       0.17 minutes

*** tstart() called on n412-040.vsc4.prov
*** at Tue Jan 26 18:29:25 2021


	Wfn Parameters:
	--------------------
	Wavefunction         = CCSD_T
	Number of irreps     = 4
	Number of MOs        = 101
	Number of active MOs = 95
	AO-Basis             = NONE
	Semicanonical        = false
	Reference            = UHF
	Print Level          = 1

	IRREP	# MOs	# FZDC	# DOCC	# SOCC	# VIRT	# FZVR
	-----	-----	------	------	------	------	------
	 A1	   42	    4	    3	    0	    35	    0
	 A2	   11	    0	    0	    0	    11	    0
	 B1	   24	    1	    1	    0	    22	    0
	 B2	   24	    1	    1	    1	    21	    0
	Transforming integrals...
	IWL integrals will be deleted.
	(OO|OO)...
	Presorting SO-basis two-electron integrals.
	Sorting File: SO Ints (nn|nn) nbuckets = 1
	Constructing frozen core operators
	Starting AA/AB first half-transformation.
	Sorting AA/AB half-transformed integrals.
	Starting BB first half-transformation.
	Sorting BB half-transformed integrals.
	First half integral transformation complete.
	Starting AA second half-transformation.
	Starting AB second half-transformation.
	Starting BB second half-transformation.
	Two-electron integral transformation complete.
	(OO|OV)...
	Starting AA second half-transformation.
	Starting AB second half-transformation.
	Starting BB second half-transformation.
	Two-electron integral transformation complete.
	(OO|VV)...
	Starting AA second half-transformation.
	Starting AB second half-transformation.
	Starting BB second half-transformation.
	Two-electron integral transformation complete.
	(OV|OO)...
	Starting AA/AB first half-transformation.
	Sorting AA/AB half-transformed integrals.
	Starting BB first half-transformation.
	Sorting BB half-transformed integrals.
	First half integral transformation complete.
	Starting AA second half-transformation.
	Starting AB second half-transformation.
	Starting BB second half-transformation.
	Two-electron integral transformation complete.
	(OV|OV)...
	Starting AA second half-transformation.
	Starting AB second half-transformation.
	Starting BB second half-transformation.
	Two-electron integral transformation complete.
	(OV|VV)...
	Starting AA second half-transformation.
	Starting AB second half-transformation.
	Starting BB second half-transformation.
	Two-electron integral transformation complete.
	(VV|OO)...
	Starting AA/AB first half-transformation.
	Sorting AA/AB half-transformed integrals.
	Starting BB first half-transformation.
	Sorting BB half-transformed integrals.
	First half integral transformation complete.
	Starting AA second half-transformation.
	Starting AB second half-transformation.
	Starting BB second half-transformation.
	Two-electron integral transformation complete.
	(VV|OV)...
	Starting AA second half-transformation.
	Starting AB second half-transformation.
	Starting BB second half-transformation.
	Two-electron integral transformation complete.
	(VV|VV)...
	Starting AA second half-transformation.
	Starting AB second half-transformation.
	Starting BB second half-transformation.
	Two-electron integral transformation complete.
	Frozen core energy     =   -425.31597851422600

	Size of irrep 0 of <AB|CD> integrals:      1.190 (MW) /      9.522 (MB)
	Size of irrep 1 of <AB|CD> integrals:      0.717 (MW) /      5.739 (MB)
	Size of irrep 2 of <AB|CD> integrals:      1.002 (MW) /      8.016 (MB)
	Size of irrep 3 of <AB|CD> integrals:      0.955 (MW) /      7.636 (MB)
	Total:                                     3.864 (MW) /     30.914 (MB)

	Size of irrep 0 of <ab|cd> integrals:      1.237 (MW) /      9.892 (MB)
	Size of irrep 1 of <ab|cd> integrals:      0.755 (MW) /      6.041 (MB)
	Size of irrep 2 of <ab|cd> integrals:      1.024 (MW) /      8.193 (MB)
	Size of irrep 3 of <ab|cd> integrals:      1.024 (MW) /      8.193 (MB)
	Total:                                     4.040 (MW) /     32.320 (MB)

	Size of irrep 0 of <Ab|Cd> integrals:      5.253 (MW) /     42.026 (MB)
	Size of irrep 1 of <Ab|Cd> integrals:      2.945 (MW) /     23.557 (MB)
	Size of irrep 2 of <Ab|Cd> integrals:      4.052 (MW) /     32.417 (MB)
	Size of irrep 3 of <Ab|Cd> integrals:      3.956 (MW) /     31.649 (MB)
	Total:                                    16.206 (MW) /    129.650 (MB)

	Size of irrep 0 of <IA|BC> integrals:      0.384 (MW) /      3.070 (MB)
	Size of irrep 1 of <IA|BC> integrals:      0.166 (MW) /      1.328 (MB)
	Size of irrep 2 of <IA|BC> integrals:      0.246 (MW) /      1.970 (MB)
	Size of irrep 3 of <IA|BC> integrals:      0.281 (MW) /      2.251 (MB)
	Total:                                     1.077 (MW) /      8.619 (MB)

	Size of irrep 0 of <ia|bc> integrals:      0.345 (MW) /      2.758 (MB)
	Size of irrep 1 of <ia|bc> integrals:      0.134 (MW) /      1.071 (MB)
	Size of irrep 2 of <ia|bc> integrals:      0.227 (MW) /      1.814 (MB)
	Size of irrep 3 of <ia|bc> integrals:      0.227 (MW) /      1.814 (MB)
	Total:                                     0.932 (MW) /      7.456 (MB)

	Size of irrep 0 of <Ia|Bc> integrals:      0.392 (MW) /      3.135 (MB)
	Size of irrep 1 of <Ia|Bc> integrals:      0.170 (MW) /      1.359 (MB)
	Size of irrep 2 of <Ia|Bc> integrals:      0.248 (MW) /      1.981 (MB)
	Size of irrep 3 of <Ia|Bc> integrals:      0.292 (MW) /      2.339 (MB)
	Total:                                     1.102 (MW) /      8.814 (MB)

	Size of irrep 0 of <iA|bC> integrals:      0.339 (MW) /      2.714 (MB)
	Size of irrep 1 of <iA|bC> integrals:      0.130 (MW) /      1.043 (MB)
	Size of irrep 2 of <iA|bC> integrals:      0.225 (MW) /      1.804 (MB)
	Size of irrep 3 of <iA|bC> integrals:      0.217 (MW) /      1.734 (MB)
	Total:                                     0.912 (MW) /      7.295 (MB)

	Size of irrep 0 of tIjAb amplitudes:       0.028 (MW) /      0.220 (MB)
	Size of irrep 1 of tIjAb amplitudes:       0.005 (MW) /      0.041 (MB)
	Size of irrep 2 of tIjAb amplitudes:       0.012 (MW) /      0.097 (MB)
	Size of irrep 3 of tIjAb amplitudes:       0.018 (MW) /      0.143 (MB)
	Total:                                     0.063 (MW) /      0.501 (MB)

	Nuclear Rep. energy          =     42.46438969780277
	SCF energy                   =   -415.62513318560309
	One-electron energy          =    -57.82815798034618
	Two-electron (AA) energy     =      6.01101285152754
	Two-electron (BB) energy     =      4.31247672587958
	Two-electron (AB) energy     =     14.73112403375808
	Two-electron energy          =     25.05461361116520
	Reference energy             =   -415.62513318560423

*** tstop() called on n412-040.vsc4.prov at Tue Jan 26 18:29:36 2021
Module time:
	user time   =       2.93 seconds =       0.05 minutes
	system time =       1.57 seconds =       0.03 minutes
	total time  =         11 seconds =       0.18 minutes
Total time:
	user time   =      55.93 seconds =       0.93 minutes
	system time =       4.61 seconds =       0.08 minutes
	total time  =         21 seconds =       0.35 minutes
            **************************
            *                        *
            *        CCENERGY        *
            *                        *
            **************************

    Nuclear Rep. energy (wfn)     =   42.464389697802773
    SCF energy          (wfn)     = -415.625133185603090
    Reference energy    (file100) = -415.625133185604227

    Input parameters:
    -----------------
    Wave function   =     CCSD_T
    Reference wfn   =     UHF
    Brueckner       =     No
    Memory (Mbytes) =     250000.0
    Maxiter         =     50
    R_Convergence   =     1.0e-07
    E_Convergence   =     1.0e-06
    Restart         =     Yes
    DIIS            =     Yes
    AO Basis        =     NONE
    ABCD            =     NEW
    Cache Level     =     2
    Cache Type      =     LRU
    Print Level     =     1
    Num. of threads =     48
    # Amps to Print =     10
    Print MP2 Amps? =     No
    Analyze T2 Amps =     No
    Print Pair Ener =     No
    Local CC        =     No
    SCS-MP2         =     False
    SCSN-MP2        =     False
    SCS-CCSD        =     False

MP2 correlation energy -0.3656366932291179
                Solving CC Amplitude Equations
                ------------------------------
  Iter             Energy              RMS        T1Diag      D1Diag    New D1Diag    D2Diag
  ----     ---------------------    ---------   ----------  ----------  ----------   --------
     0        -0.365636693229118    0.000e+00    0.000000    0.000000    0.000000    0.000000
     1        -0.352616832575099    1.204e-01    0.028673    0.000000    0.000000    0.000000
     2        -0.367079402832243    4.845e-02    0.025773    0.000000    0.000000    0.000000
     3        -0.372021053187893    2.479e-02    0.033143    0.000000    0.000000    0.000000
     4        -0.371647931104699    7.181e-03    0.035527    0.000000    0.000000    0.000000
     5        -0.371665653470650    3.336e-03    0.036745    0.000000    0.000000    0.000000
     6        -0.371682007994535    1.256e-03    0.037087    0.000000    0.000000    0.000000
     7        -0.371667944174251    5.852e-04    0.037164    0.000000    0.000000    0.000000
     8        -0.371674651261154    2.717e-04    0.037196    0.000000    0.000000    0.000000
     9        -0.371679145759669    1.333e-04    0.037198    0.000000    0.000000    0.000000
    10        -0.371675013128256    6.398e-05    0.037197    0.000000    0.000000    0.000000
    11        -0.371676406222985    2.906e-05    0.037191    0.000000    0.000000    0.000000
    12        -0.371676128707066    1.294e-05    0.037194    0.000000    0.000000    0.000000
    13        -0.371676150605579    5.724e-06    0.037194    0.000000    0.000000    0.000000
    14        -0.371676375224079    2.736e-06    0.037194    0.000000    0.000000    0.000000
    15        -0.371676298536967    1.253e-06    0.037194    0.000000    0.000000    0.000000
    16        -0.371676291263989    5.691e-07    0.037194    0.000000    0.000000    0.000000
    17        -0.371676289533829    2.197e-07    0.037194    0.000000    0.000000    0.000000
    18        -0.371676285837989    9.693e-08    0.037194    0.000000    0.000000    0.000000

    Iterations converged.


    Largest TIA Amplitudes:
              3  46         0.0628819339
              3  47         0.0261108080
              4  70        -0.0184331953
              2   2        -0.0158136940
              2   3        -0.0155383791
              4  69         0.0147569266
              4  72         0.0141438240
              2   8        -0.0134210796
              1   8        -0.0128837137
              3  50        -0.0123566028

    Largest Tia Amplitudes:
              4  68        -0.0468266353
              4  69         0.0391201689
              3  46         0.0328000510
              3  47         0.0172454437
              1   2        -0.0154359862
              1   6         0.0140891425
              4  72        -0.0134007910
              3  55        -0.0114857145
              1   4        -0.0105616413
              3  50        -0.0100082663

    Largest TIJAB Amplitudes:
      3   2  46   2         0.0177542169
      3   2  46   6        -0.0157666252
      5   3  72  46        -0.0150024288
      5   2  72   2         0.0137813378
      5   3  70  46         0.0128790344
      5   3  36   8        -0.0119921445
      3   2  46   7        -0.0116017282
      5   3  74  46         0.0110327213
      3   2  46   4         0.0109785452
      5   2  72   7        -0.0105593759

    Largest Tijab Amplitudes:
      4   3  68  46         0.0262203484
      4   3  69  46        -0.0200674212
      3   2  46   2         0.0171954045
      3   2  46   6        -0.0157857522
      4   3  71  46         0.0128329416
      4   2  68   2        -0.0127822058
      4   2  68   6         0.0127595874
      3   2  46   7        -0.0121105033
      4   3  68  47         0.0109988845
      3   2  46   3         0.0099074344

    Largest TIjAb Amplitudes:
      3   3  46  46        -0.0702760828
      2   2  46  46        -0.0418370914
      3   4  46  68         0.0366463164
      1   2  46  46        -0.0314977782
      3   3  46  47        -0.0305393108
      1   1  46  46         0.0294240660
      3   3  46  49         0.0287230097
      3   4  46  69        -0.0282434274
      3   3  47  46        -0.0268099458
      3   3  49  46         0.0257637520

    SCF energy       (wfn)                    = -415.625133185603090
    Reference energy (file100)                = -415.625133185604227

    Opposite-spin MP2 correlation energy      =   -0.272062309946893
    Same-spin MP2 correlation energy          =   -0.093574383282225
    Singles MP2 correlation energy            =   -0.000000000000000
    MP2 correlation energy                    =   -0.365636693229118
      * MP2 total energy                      = -415.990769878833362

    Opposite-spin CCSD correlation energy     =   -0.291113490192629
    Same-spin CCSD correlation energy         =   -0.080562795645360
    Singles CCSD correlation energy           =    0.000000000000001
    CCSD correlation energy                   =   -0.371676285837989
      * CCSD total energy                     = -415.996809471442191

            **************************
            *                        *
            *        CCTRIPLES       *
            *                        *
            **************************


    Wave function   =    CCSD_T
    Reference wfn   =      UHF

    Nuclear Rep. energy (wfn)                =   42.464389697802773
    SCF energy          (wfn)                = -415.625133185603090
    Reference energy    (file100)            = -415.625133185604227
    CCSD energy         (file100)            =   -0.371676285837989
    Total CCSD energy   (file100)            = -415.996809471442191

    Number of ijk index combinations:
    Spin Case AAA:                                  20
    Spin Case BBB:                                  10
    Spin Case AAB:                                  75
    Spin Case ABB:                                  60
    AAA (T) energy                             =   -0.000449922966163
    BBB (T) energy                             =   -0.000505143277903
    AAB (T) energy                             =   -0.009743542928107
    ABB (T) energy                             =   -0.009477679453027
    (T) energy                                   =   -0.020176288625201
      * CCSD(T) total energy                     = -416.016985760067428


    Psi4 stopped on: Tuesday, 26 January 2021 06:29PM
    Psi4 wall time for execution: 0:00:42.35

*** Psi4 exiting successfully. Buy a developer a beer!
