
    -----------------------------------------------------------------------
          Psi4: An Open-Source Ab Initio Electronic Structure Package
                               Psi4 1.4a3.dev88 

                         Git: Rev {master} 262e345 


    D. G. A. Smith, L. A. Burns, A. C. Simmonett, R. M. Parrish,
    M. C. Schieber, R. Galvelis, P. Kraus, H. Kruse, R. Di Remigio,
    A. Alenaizan, A. M. James, S. Lehtola, J. P. Misiewicz, M. Scheurer,
    R. A. Shaw, J. B. Schriber, Y. Xie, Z. L. Glick, D. A. Sirianni,
    J. S. O'Brien, J. M. Waldrop, A. Kumar, E. G. Hohenstein,
    B. P. Pritchard, B. R. Brooks, H. F. Schaefer III, A. Yu. Sokolov,
    K. Patkowski, A. E. DePrince III, U. Bozkaya, R. A. King,
    F. A. Evangelista, J. M. Turney, T. D. Crawford, C. D. Sherrill,
    J. Chem. Phys. 152(18) 184108 (2020). https://doi.org/10.1063/5.0006002

                            Additional Code Authors
    E. T. Seidl, C. L. Janssen, E. F. Valeev, M. L. Leininger,
    J. F. Gonthier, R. M. Richard, H. R. McAlexander, M. Saitow, X. Wang,
    P. Verma, and M. H. Lechner

             Previous Authors, Complete List of Code Contributors,
                       and Citations for Specific Modules
    https://github.com/psi4/psi4/blob/master/codemeta.json
    https://github.com/psi4/psi4/graphs/contributors
    http://psicode.org/psi4manual/master/introduction.html#citing-psifour

    -----------------------------------------------------------------------


    Psi4 started on: Wednesday, 20 January 2021 06:39PM

    Process ID: 175623
    Host:       n412-037.vsc4.prov
    PSIDATADIR: /home/fs71337/gallo4/psi4/psi4/build/stage/share/psi4
    Memory:     500.0 MiB
    Threads:    48
    
  ==> Input File <==

--------------------------------------------------------------------------
# Any line starting with the # character is a comment line
memory 250000 mb
molecule molecule{
0 2
C          0.0000000000        0.0000000000        0.6422282651
N          0.0000000000        0.0000000000       -0.5507224180
}

set {
  reference uhf
  basis aug-cc-pv(q+d)z
  scf_type OUT_OF_CORE
  freeze_core true
}

energy('ccsd(t)')
--------------------------------------------------------------------------

  Memory set to 232.831 GiB by Python driver.

Scratch directory: /binfl/lv71337/airmler/temp/

*** tstart() called on n412-037.vsc4.prov
*** at Wed Jan 20 18:39:10 2021

   => Loading Basis Set <=

    Name: AUG-CC-PV(Q+D)Z
    Role: ORBITAL
    Keyword: BASIS
    atoms 1 entry C          line   331 file /home/fs71337/gallo4/psi4/psi4/build/stage/share/psi4/basis/aug-cc-pv_qpd_z.gbs 
    atoms 2 entry N          line   391 file /home/fs71337/gallo4/psi4/psi4/build/stage/share/psi4/basis/aug-cc-pv_qpd_z.gbs 


         ---------------------------------------------------------
                                   SCF
               by Justin Turney, Rob Parrish, Andy Simmonett
                          and Daniel G. A. Smith
                              UHF Reference
                       48 Threads, 238418 MiB Core
         ---------------------------------------------------------

  ==> Geometry <==

    Molecular point group: c2v
    Full point group: C_inf_v

    Geometry (in Angstrom), charge = 0, multiplicity = 2:

       Center              X                  Y                   Z               Mass       
    ------------   -----------------  -----------------  -----------------  -----------------
         C            0.000000000000     0.000000000000     0.642423149518    12.000000000000
         N            0.000000000000     0.000000000000    -0.550527533582    14.003074004430

  Running in c2v symmetry.

  Rotational constants: A = ************  B =      1.83304  C =      1.83304 [cm^-1]
  Rotational constants: A = ************  B =  54953.11064  C =  54953.11064 [MHz]
  Nuclear repulsion =   18.630646818010110

  Charge       = 0
  Multiplicity = 2
  Electrons    = 13
  Nalpha       = 7
  Nbeta        = 6

  ==> Algorithm <==

  SCF Algorithm Type is OUT_OF_CORE.
  DIIS enabled.
  MOM disabled.
  Fractional occupation disabled.
  Guess Type is SAD.
  Energy threshold   = 1.00e-08
  Density threshold  = 1.00e-08
  Integral threshold = 1.00e-12

  ==> Primary Basis <==

  Basis Set: AUG-CC-PV(Q+D)Z
    Blend: AUG-CC-PV(Q+D)Z
    Number of shells: 40
    Number of basis function: 160
    Number of Cartesian functions: 210
    Spherical Harmonics?: true
    Max angular momentum: 4

  ==> Integral Setup <==

  ==> DiskJK: Disk-Based J/K Matrices <==

    J tasked:                  Yes
    K tasked:                  Yes
    wK tasked:                  No
    Memory [MiB]:           178813
    Schwarz Cutoff:          1E-12

  Minimum eigenvalue in the overlap matrix is 6.4493727867E-05.
  Reciprocal condition number of the overlap matrix is 1.1054986858E-05.
    Using symmetric orthogonalization.

  ==> Pre-Iterations <==

  SCF Guess: Superposition of Atomic Densities via on-the-fly atomic UHF (no occupation information).


 WARNING: Atomic UHF is not converging! Try casting from a smaller basis or call Rob at CCMST.

 WARNING: Atomic UHF is not converging! Try casting from a smaller basis or call Rob at CCMST.
   -------------------------
    Irrep   Nso     Nmo    
   -------------------------
     A1        62      62 
     A2        22      22 
     B1        38      38 
     B2        38      38 
   -------------------------
    Total     160     160
   -------------------------

  ==> Iterations <==

                        Total Energy        Delta E     RMS |[F,P]|

   @UHF iter SAD:   -30.65625204359887   -3.06563e+01   0.00000e+00 
   @UHF iter   1:   -89.82221515698829   -5.91660e+01   3.16231e-02 DIIS
   @UHF iter   2:   -88.21304483221840    1.60917e+00   2.55375e-02 DIIS
   @UHF iter   3:   -91.53674530024581   -3.32370e+00   1.41282e-02 DIIS
   @UHF iter   4:   -92.17143130003845   -6.34686e-01   3.72990e-03 DIIS
   @UHF iter   5:   -92.22300720412062   -5.15759e-02   9.85264e-04 DIIS
   @UHF iter   6:   -92.22842036203630   -5.41316e-03   2.72197e-04 DIIS
   @UHF iter   7:   -92.22994218985927   -1.52183e-03   2.51434e-04 DIIS
   @UHF iter   8:   -92.23152106823210   -1.57888e-03   2.41663e-04 DIIS
   @UHF iter   9:   -92.23695409616121   -5.43303e-03   1.69678e-04 DIIS
   @UHF iter  10:   -92.23884637208396   -1.89228e-03   8.01088e-05 DIIS
   @UHF iter  11:   -92.23807500257708    7.71370e-04   1.26677e-04 DIIS
   @UHF iter  12:   -92.23894890940684   -8.73907e-04   4.89191e-05 DIIS
   @UHF iter  13:   -92.23907876712214   -1.29858e-04   3.88297e-06 DIIS
   @UHF iter  14:   -92.23907727985444    1.48727e-06   6.43200e-06 DIIS
   @UHF iter  15:   -92.23907937190400   -2.09205e-06   1.98977e-07 DIIS
   @UHF iter  16:   -92.23907937207244   -1.68441e-10   1.44065e-07 DIIS
   @UHF iter  17:   -92.23907937280700   -7.34559e-10   6.03019e-08 DIIS
   @UHF iter  18:   -92.23907937293799   -1.30996e-10   2.16690e-08 DIIS
   @UHF iter  19:   -92.23907937295181   -1.38130e-11   5.88402e-09 DIIS
  Energy and wave function converged.


  ==> Post-Iterations <==

   @Spin Contamination Metric:   4.964845517E-01
   @S^2 Expected:                7.500000000E-01
   @S^2 Observed:                1.246484552E+00
   @S   Expected:                5.000000000E-01
   @S   Observed:                5.000000000E-01

    Orbital Energies [Eh]
    ---------------------

    Alpha Occupied:                                                       

       1A1   -15.607215     2A1   -11.360907     3A1    -1.230400  
       4A1    -0.745908     5A1    -0.564917     1B2    -0.515671  
       1B1    -0.515671  

    Alpha Virtual:                                                        

       6A1     0.057936     7A1     0.064057     2B1     0.069697  
       2B2     0.069697     3B2     0.116169     3B1     0.116169  
       8A1     0.128808     4B1     0.174511     4B2     0.174511  
       9A1     0.216047     1A2     0.224000    10A1     0.224000  
      11A1     0.279744     5B1     0.316739     5B2     0.316739  
       6B2     0.368221     6B1     0.368221    12A1     0.378949  
      13A1     0.399614     2A2     0.411617    14A1     0.411617  
       7B2     0.478901     7B1     0.478901    15A1     0.560059  
      16A1     0.720064     3A2     0.729967    17A1     0.729967  
       8B2     0.747168     8B1     0.747168    18A1     0.775251  
       9B1     0.780097     9B2     0.780097    10B1     0.820641  
      10B2     0.820641     4A2     0.850191    19A1     0.850191  
      20A1     0.892144    21A1     1.026519    11B1     1.055553  
      11B2     1.055553    12B1     1.136799    12B2     1.136799  
      22A1     1.169873     5A2     1.169873    13B2     1.245496  
      13B1     1.245496    23A1     1.290786    24A1     1.388827  
      14B2     1.516002    14B1     1.516002     6A2     1.533058  
      25A1     1.533058    26A1     1.603221    15B1     1.823352  
      15B2     1.823352    27A1     1.971586    28A1     2.099894  
       7A2     2.099894    29A1     2.112153     8A2     2.112153  
      30A1     2.195695    16B1     2.214961    16B2     2.214961  
      17B1     2.232394    17B2     2.232394    31A1     2.289660  
       9A2     2.289660    18B1     2.301490    18B2     2.301490  
      32A1     2.405578    19B1     2.422749    19B2     2.422749  
      33A1     2.603517    20B1     2.698759    20B2     2.698759  
      10A2     2.732490    34A1     2.732490    35A1     2.972208  
      11A2     2.972208    21B2     3.065436    21B1     3.065436  
      36A1     3.102754    37A1     3.179964    22B2     3.218720  
      22B1     3.218720    12A2     3.282272    38A1     3.282272  
      23B2     3.360843    23B1     3.360843    39A1     3.435108  
      24B1     3.565578    24B2     3.565578    13A2     3.595312  
      40A1     3.595312    25B2     4.184074    25B1     4.184074  
      41A1     4.297881    42A1     4.445367    14A2     4.448500  
      43A1     4.448500    26B2     4.650928    26B1     4.650928  
      44A1     5.076022    45A1     5.907693    15A2     5.907693  
      27B1     5.993100    27B2     5.993100    28B1     6.054224  
      28B2     6.054224    29B1     6.152158    29B2     6.152158  
      46A1     6.172632    16A2     6.172632    47A1     6.313486  
      30B2     6.444288    30B1     6.444288    48A1     6.478472  
      17A2     6.478472    49A1     6.791097    50A1     6.897194  
      18A2     6.897194    31B1     7.031799    31B2     7.031799  
      51A1     7.482816    52A1     7.885124    32B1     7.991122  
      32B2     7.991122    19A2     8.286443    53A1     8.286443  
      33B2     8.585583    33B1     8.585583    34B2     8.785295  
      34B1     8.785296    20A2     8.932076    54A1     8.932076  
      55A1     9.070221    35B2     9.134034    35B1     9.134034  
      36B2     9.241607    36B1     9.241607    21A2     9.781461  
      56A1     9.781461    57A1     9.781881    22A2     9.925602  
      58A1     9.925602    37B2    10.331138    37B1    10.331138  
      59A1    11.512912    38B2    11.594403    38B1    11.594403  
      60A1    11.981044    61A1    24.283102    62A1    32.372887  

    Beta Occupied:                                                        

       1A1   -15.635900     2A1   -11.303151     3A1    -1.248241  
       4A1    -0.623586     1B1    -0.538918     1B2    -0.538918  

    Beta Virtual:                                                         

       5A1    -0.036450     6A1     0.063953     2B1     0.065919  
       2B2     0.065919     7A1     0.084336     3B2     0.132587  
       3B1     0.132587     8A1     0.138056     4B1     0.191269  
       4B2     0.191269     9A1     0.220396     1A2     0.229327  
      10A1     0.229327    11A1     0.287672     5B1     0.313286  
       5B2     0.313286     6B2     0.388943     6B1     0.388943  
      12A1     0.397554     2A2     0.407417    13A1     0.407417  
      14A1     0.423713     7B1     0.508251     7B2     0.508251  
      15A1     0.615003    16A1     0.742650     8B2     0.754875  
       8B1     0.754875     9B1     0.773639     9B2     0.773639  
       3A2     0.774858    17A1     0.774858    18A1     0.789864  
      10B1     0.821951    10B2     0.821951     4A2     0.848458  
      19A1     0.848458    20A1     0.914774    21A1     1.028547  
      11B1     1.060392    11B2     1.060392    12B2     1.131459  
      12B1     1.131459    22A1     1.156848     5A2     1.156848  
      13B1     1.259080    13B2     1.259080    23A1     1.312006  
      24A1     1.401399     6A2     1.506191    25A1     1.506191  
      14B2     1.551092    14B1     1.551092    26A1     1.618914  
      15B1     1.838554    15B2     1.838554    27A1     2.061316  
      28A1     2.113462     7A2     2.113462     8A2     2.194982  
      29A1     2.194982    30A1     2.250724    16B1     2.267382  
      16B2     2.267382    17B2     2.270143    17B1     2.270143  
      18B1     2.312359    18B2     2.312359     9A2     2.322327  
      31A1     2.322327    19B1     2.430464    19B2     2.430464  
      32A1     2.431170    33A1     2.612643    20B1     2.686412  
      20B2     2.686412    10A2     2.737354    34A1     2.737354  
      35A1     2.961958    11A2     2.961958    21B2     3.060630  
      21B1     3.060630    36A1     3.097857    37A1     3.189275  
      22B2     3.194087    22B1     3.194087    12A2     3.254808  
      38A1     3.254808    23B2     3.360344    23B1     3.360344  
      39A1     3.429092    13A2     3.551193    40A1     3.551193  
      24B1     3.554956    24B2     3.554956    25B2     4.187367  
      25B1     4.187367    41A1     4.303821    14A2     4.450555  
      42A1     4.450555    43A1     4.470205    26B1     4.668472  
      26B2     4.668472    44A1     5.084321    45A1     5.943084  
      15A2     5.943084    27B1     6.023755    27B2     6.023755  
      28B1     6.084949    28B2     6.084949    29B1     6.213860  
      29B2     6.213860    46A1     6.225135    16A2     6.225135  
      47A1     6.374657    30B2     6.500297    30B1     6.500297  
      48A1     6.521740    17A2     6.521740    49A1     6.814613  
      18A2     6.937610    50A1     6.937610    31B1     7.064734  
      31B2     7.064734    51A1     7.515667    52A1     7.923334  
      32B1     8.020424    32B2     8.020424    19A2     8.255252  
      53A1     8.255252    33B2     8.566032    33B1     8.566032  
      34B2     8.742145    34B1     8.742145    20A2     8.916801  
      54A1     8.916801    55A1     9.063152    35B2     9.126436  
      35B1     9.126436    36B2     9.192988    36B1     9.192988  
      21A2     9.755121    56A1     9.755121    57A1     9.772448  
      22A2     9.876612    58A1     9.876612    37B2    10.318305  
      37B1    10.318305    59A1    11.516114    38B2    11.585233  
      38B1    11.585233    60A1    11.987756    61A1    24.315416  
      62A1    32.355487  

    Final Occupation by Irrep:
             A1    A2    B1    B2 
    DOCC [     4,    0,    1,    1 ]
    SOCC [     1,    0,    0,    0 ]

  @UHF Final Energy:   -92.23907937295181

   => Energetics <=

    Nuclear Repulsion Energy =             18.6306468180101099
    One-Electron Energy =                -161.3100502207752811
    Two-Electron Energy =                  50.4403240298133468
    Total Energy =                        -92.2390793729518066

  UHF NO Occupations:
  HONO-2 :    1 B1 1.8686449
  HONO-1 :    1 B2 1.8686447
  HONO-0 :    5 A1 1.0000000
  LUNO+0 :    2 B2 0.1313553
  LUNO+1 :    2 B1 0.1313551
  LUNO+2 :    6 A1 0.0021031
  LUNO+3 :    7 A1 0.0006837


Computation Completed


Properties will be evaluated at   0.000000,   0.000000,   0.000000 [a0]

Properties computed using the SCF density matrix

  Nuclear Dipole Moment: [e a0]
     X:     0.0000      Y:     0.0000      Z:     0.0016

  Electronic Dipole Moment: [e a0]
     X:     0.0000      Y:     0.0000      Z:     0.8400

  Dipole Moment: [e a0]
     X:     0.0000      Y:     0.0000      Z:     0.8416     Total:     0.8416

  Dipole Moment: [D]
     X:     0.0000      Y:     0.0000      Z:     2.1390     Total:     2.1390


*** tstop() called on n412-037.vsc4.prov at Wed Jan 20 18:39:41 2021
Module time:
	user time   =      82.47 seconds =       1.37 minutes
	system time =       2.72 seconds =       0.05 minutes
	total time  =         31 seconds =       0.52 minutes
Total time:
	user time   =      82.47 seconds =       1.37 minutes
	system time =       2.72 seconds =       0.05 minutes
	total time  =         31 seconds =       0.52 minutes

*** tstart() called on n412-037.vsc4.prov
*** at Wed Jan 20 18:39:41 2021


	Wfn Parameters:
	--------------------
	Wavefunction         = CCSD_T
	Number of irreps     = 4
	Number of MOs        = 160
	Number of active MOs = 158
	AO-Basis             = NONE
	Semicanonical        = false
	Reference            = UHF
	Print Level          = 1

	IRREP	# MOs	# FZDC	# DOCC	# SOCC	# VIRT	# FZVR
	-----	-----	------	------	------	------	------
	 A1	   62	    2	    2	    1	    57	    0
	 A2	   22	    0	    0	    0	    22	    0
	 B1	   38	    0	    1	    0	    37	    0
	 B2	   38	    0	    1	    0	    37	    0
	Transforming integrals...
	IWL integrals will be deleted.
	(OO|OO)...
	Presorting SO-basis two-electron integrals.
	Sorting File: SO Ints (nn|nn) nbuckets = 1
	Constructing frozen core operators
	Starting AA/AB first half-transformation.
	Sorting AA/AB half-transformed integrals.
	Starting BB first half-transformation.
	Sorting BB half-transformed integrals.
	First half integral transformation complete.
	Starting AA second half-transformation.
	Starting AB second half-transformation.
	Starting BB second half-transformation.
	Two-electron integral transformation complete.
	(OO|OV)...
	Starting AA second half-transformation.
	Starting AB second half-transformation.
	Starting BB second half-transformation.
	Two-electron integral transformation complete.
	(OO|VV)...
	Starting AA second half-transformation.
	Starting AB second half-transformation.
	Starting BB second half-transformation.
	Two-electron integral transformation complete.
	(OV|OO)...
	Starting AA/AB first half-transformation.
	Sorting AA/AB half-transformed integrals.
	Starting BB first half-transformation.
	Sorting BB half-transformed integrals.
	First half integral transformation complete.
	Starting AA second half-transformation.
	Starting AB second half-transformation.
	Starting BB second half-transformation.
	Two-electron integral transformation complete.
	(OV|OV)...
	Starting AA second half-transformation.
	Starting AB second half-transformation.
	Starting BB second half-transformation.
	Two-electron integral transformation complete.
	(OV|VV)...
	Starting AA second half-transformation.
	Starting AB second half-transformation.
	Starting BB second half-transformation.
	Two-electron integral transformation complete.
	(VV|OO)...
	Starting AA/AB first half-transformation.
	Sorting AA/AB half-transformed integrals.
	Starting BB first half-transformation.
	Sorting BB half-transformed integrals.
	First half integral transformation complete.
	Starting AA second half-transformation.
	Starting AB second half-transformation.
	Starting BB second half-transformation.
	Two-electron integral transformation complete.
	(VV|OV)...
	Starting AA second half-transformation.
	Starting AB second half-transformation.
	Starting BB second half-transformation.
	Two-electron integral transformation complete.
	(VV|VV)...
	Starting AA second half-transformation.
	Starting AB second half-transformation.
	Starting BB second half-transformation.
	Two-electron integral transformation complete.
	Frozen core energy     =    -86.85178282296587

	Size of irrep 0 of <AB|CD> integrals:      9.979 (MW) /     79.834 (MB)
	Size of irrep 1 of <AB|CD> integrals:      6.880 (MW) /     55.041 (MB)
	Size of irrep 2 of <AB|CD> integrals:      8.544 (MW) /     68.351 (MB)
	Size of irrep 3 of <AB|CD> integrals:      8.544 (MW) /     68.351 (MB)
	Total:                                    33.947 (MW) /    271.578 (MB)

	Size of irrep 0 of <ab|cd> integrals:     10.343 (MW) /     82.741 (MB)
	Size of irrep 1 of <ab|cd> integrals:      6.996 (MW) /     55.968 (MB)
	Size of irrep 2 of <ab|cd> integrals:      8.762 (MW) /     70.093 (MB)
	Size of irrep 3 of <ab|cd> integrals:      8.762 (MW) /     70.093 (MB)
	Total:                                    34.862 (MW) /    278.895 (MB)

	Size of irrep 0 of <Ab|Cd> integrals:     42.615 (MW) /    340.918 (MB)
	Size of irrep 1 of <Ab|Cd> integrals:     27.752 (MW) /    222.015 (MB)
	Size of irrep 2 of <Ab|Cd> integrals:     34.610 (MW) /    276.878 (MB)
	Size of irrep 3 of <Ab|Cd> integrals:     34.610 (MW) /    276.878 (MB)
	Total:                                   139.586 (MW) /   1116.688 (MB)

	Size of irrep 0 of <IA|BC> integrals:      1.585 (MW) /     12.683 (MB)
	Size of irrep 1 of <IA|BC> integrals:      0.734 (MW) /      5.876 (MB)
	Size of irrep 2 of <IA|BC> integrals:      1.111 (MW) /      8.886 (MB)
	Size of irrep 3 of <IA|BC> integrals:      1.111 (MW) /      8.886 (MB)
	Total:                                     4.541 (MW) /     36.331 (MB)

	Size of irrep 0 of <ia|bc> integrals:      1.251 (MW) /     10.011 (MB)
	Size of irrep 1 of <ia|bc> integrals:      0.624 (MW) /      4.994 (MB)
	Size of irrep 2 of <ia|bc> integrals:      0.912 (MW) /      7.293 (MB)
	Size of irrep 3 of <ia|bc> integrals:      0.912 (MW) /      7.293 (MB)
	Total:                                     3.699 (MW) /     29.591 (MB)

	Size of irrep 0 of <Ia|Bc> integrals:      1.619 (MW) /     12.952 (MB)
	Size of irrep 1 of <Ia|Bc> integrals:      0.738 (MW) /      5.900 (MB)
	Size of irrep 2 of <Ia|Bc> integrals:      1.124 (MW) /      8.989 (MB)
	Size of irrep 3 of <Ia|Bc> integrals:      1.124 (MW) /      8.989 (MB)
	Total:                                     4.604 (MW) /     36.830 (MB)

	Size of irrep 0 of <iA|bC> integrals:      1.227 (MW) /      9.818 (MB)
	Size of irrep 1 of <iA|bC> integrals:      0.622 (MW) /      4.973 (MB)
	Size of irrep 2 of <iA|bC> integrals:      0.900 (MW) /      7.201 (MB)
	Size of irrep 3 of <iA|bC> integrals:      0.900 (MW) /      7.201 (MB)
	Total:                                     3.649 (MW) /     29.193 (MB)

	Size of irrep 0 of tIjAb amplitudes:       0.052 (MW) /      0.418 (MB)
	Size of irrep 1 of tIjAb amplitudes:       0.011 (MW) /      0.084 (MB)
	Size of irrep 2 of tIjAb amplitudes:       0.029 (MW) /      0.235 (MB)
	Size of irrep 3 of tIjAb amplitudes:       0.029 (MW) /      0.235 (MB)
	Total:                                     0.122 (MW) /      0.973 (MB)

	Nuclear Rep. energy          =     18.63064681801011
	SCF energy                   =    -92.23907937295181
	One-electron energy          =    -41.51365747615181
	Two-electron (AA) energy     =      4.25274754291729
	Two-electron (BB) energy     =      3.04383529927293
	Two-electron (AB) energy     =     10.19913126596500
	Two-electron energy          =     17.49571410815521
	Reference energy             =    -92.23907937295236

*** tstop() called on n412-037.vsc4.prov at Wed Jan 20 18:40:41 2021
Module time:
	user time   =      19.47 seconds =       0.32 minutes
	system time =       8.23 seconds =       0.14 minutes
	total time  =         60 seconds =       1.00 minutes
Total time:
	user time   =     101.94 seconds =       1.70 minutes
	system time =      10.95 seconds =       0.18 minutes
	total time  =         91 seconds =       1.52 minutes
            **************************
            *                        *
            *        CCENERGY        *
            *                        *
            **************************

    Nuclear Rep. energy (wfn)     =   18.630646818010110
    SCF energy          (wfn)     =  -92.239079372951807
    Reference energy    (file100) =  -92.239079372952361

    Input parameters:
    -----------------
    Wave function   =     CCSD_T
    Reference wfn   =     UHF
    Brueckner       =     No
    Memory (Mbytes) =     250000.0
    Maxiter         =     50
    R_Convergence   =     1.0e-07
    E_Convergence   =     1.0e-06
    Restart         =     Yes
    DIIS            =     Yes
    AO Basis        =     NONE
    ABCD            =     NEW
    Cache Level     =     2
    Cache Type      =     LRU
    Print Level     =     1
    Num. of threads =     48
    # Amps to Print =     10
    Print MP2 Amps? =     No
    Analyze T2 Amps =     No
    Print Pair Ener =     No
    Local CC        =     No
    SCS-MP2         =     False
    SCSN-MP2        =     False
    SCS-CCSD        =     False

MP2 correlation energy -0.2907819995949954
                Solving CC Amplitude Equations
                ------------------------------
  Iter             Energy              RMS        T1Diag      D1Diag    New D1Diag    D2Diag
  ----     ---------------------    ---------   ----------  ----------  ----------   --------
     0        -0.290781999594995    0.000e+00    0.000000    0.000000    0.000000    0.000000
     1        -0.289586106341312    1.233e-01    0.037905    0.000000    0.000000    0.000000
     2        -0.308837602514788    6.355e-02    0.056840    0.000000    0.000000    0.000000
     3        -0.325503113164094    5.511e-02    0.103889    0.000000    0.000000    0.000000
     4        -0.329075715584940    2.281e-02    0.125729    0.000000    0.000000    0.000000
     5        -0.329767839775676    1.270e-02    0.131018    0.000000    0.000000    0.000000
     6        -0.330672674532756    8.021e-03    0.134350    0.000000    0.000000    0.000000
     7        -0.330769164077658    4.428e-03    0.135922    0.000000    0.000000    0.000000
     8        -0.330890315536418    2.003e-03    0.136736    0.000000    0.000000    0.000000
     9        -0.330979928129815    9.359e-04    0.137133    0.000000    0.000000    0.000000
    10        -0.330976175493245    4.937e-04    0.137308    0.000000    0.000000    0.000000
    11        -0.330966943954398    2.020e-04    0.137271    0.000000    0.000000    0.000000
    12        -0.330958589689810    7.570e-05    0.137271    0.000000    0.000000    0.000000
    13        -0.330963565110024    3.362e-05    0.137290    0.000000    0.000000    0.000000
    14        -0.330965254783325    1.421e-05    0.137293    0.000000    0.000000    0.000000
    15        -0.330965990356229    3.715e-06    0.137296    0.000000    0.000000    0.000000
    16        -0.330966160685799    1.140e-06    0.137297    0.000000    0.000000    0.000000
    17        -0.330966176044351    4.993e-07    0.137297    0.000000    0.000000    0.000000
    18        -0.330966176321795    1.513e-07    0.137297    0.000000    0.000000    0.000000
    19        -0.330966175558876    6.791e-08    0.137297    0.000000    0.000000    0.000000

    Iterations converged.


    Largest TIA Amplitudes:
              4 118        -0.1302071659
              3  81        -0.1302069904
              4 117        -0.0889138828
              3  80        -0.0889137778
              4 119        -0.0632528463
              3  82        -0.0632527659
              4 121        -0.0370098597
              3  84        -0.0370098020
              3  79         0.0341634466
              4 116         0.0341634110

    Largest Tia Amplitudes:
              1   0         0.2046877477
              2  82         0.1229362228
              3 119         0.1229362033
              1   2        -0.0820359606
              2  85         0.0577408522
              3 122         0.0577408508
              2  83         0.0423330261
              3 120         0.0423330189
              1   3        -0.0412889646
              1   9         0.0371823245

    Largest TIJAB Amplitudes:
      4   3 118  81        -0.0224777473
      4   3 118  80        -0.0158408271
      4   3 117  81        -0.0158408196
      4   3 117  80        -0.0131224518
      4   3 119  81        -0.0119142321
      4   3 118  82        -0.0119142310
      4   1 118   9         0.0107283296
      3   1  81   9         0.0107283264
      4   3  59  11        -0.0106427764
      4   3 118  84        -0.0102966321

    Largest Tijab Amplitudes:
      3   2 119  82        -0.0235059398
      3   1 119   0        -0.0206392287
      2   1  82   0        -0.0206392254
      3   2 122  82        -0.0119711902
      3   2 119  85        -0.0119711899
      3   2 120  82        -0.0117058734
      3   2 119  83        -0.0117058729
      3   1 120   0        -0.0105817034
      2   1  83   0        -0.0105817014
      3   1 119   2         0.0102421607

    Largest TIjAb Amplitudes:
      4   3 118 119        -0.0645548311
      3   2  81  82        -0.0645548066
      4   1 118   0        -0.0531008919
      3   1  81   0        -0.0531008585
      4   3 117 119        -0.0442134314
      3   2  80  82        -0.0442134291
      4   2 118  82        -0.0388464626
      3   3  81 119        -0.0388464553
      4   3 119 119        -0.0363121712
      3   2  82  82        -0.0363121575

    SCF energy       (wfn)                    =  -92.239079372951807
    Reference energy (file100)                =  -92.239079372952361

    Opposite-spin MP2 correlation energy      =   -0.211685066891187
    Same-spin MP2 correlation energy          =   -0.079096932703809
    Singles MP2 correlation energy            =   -0.000000000000000
    MP2 correlation energy                    =   -0.290781999594995
      * MP2 total energy                      =  -92.529861372547359

    Opposite-spin CCSD correlation energy     =   -0.267502460625915
    Same-spin CCSD correlation energy         =   -0.063463714932982
    Singles CCSD correlation energy           =    0.000000000000021
    CCSD correlation energy                   =   -0.330966175558876
      * CCSD total energy                     =  -92.570045548511231

            **************************
            *                        *
            *        CCTRIPLES       *
            *                        *
            **************************


    Wave function   =    CCSD_T
    Reference wfn   =      UHF

    Nuclear Rep. energy (wfn)                =   18.630646818010110
    SCF energy          (wfn)                =  -92.239079372951807
    Reference energy    (file100)            =  -92.239079372952361
    CCSD energy         (file100)            =   -0.330966175558876
    Total CCSD energy   (file100)            =  -92.570045548511231

    Number of ijk index combinations:
    Spin Case AAA:                                  10
    Spin Case BBB:                                   4
    Spin Case AAB:                                  40
    Spin Case ABB:                                  30
    AAA (T) energy                             =   -0.000346047436592
    BBB (T) energy                             =   -0.000198680311836
    AAB (T) energy                             =   -0.011224779004032
    ABB (T) energy                             =   -0.009107439682183
    (T) energy                                   =   -0.020876946434642
      * CCSD(T) total energy                     =  -92.590922494945872


    Psi4 stopped on: Wednesday, 20 January 2021 06:42PM
    Psi4 wall time for execution: 0:03:10.49

*** Psi4 exiting successfully. Buy a developer a beer!
