
    -----------------------------------------------------------------------
          Psi4: An Open-Source Ab Initio Electronic Structure Package
                               Psi4 1.4a3.dev88 

                         Git: Rev {master} 262e345 


    D. G. A. Smith, L. A. Burns, A. C. Simmonett, R. M. Parrish,
    M. C. Schieber, R. Galvelis, P. Kraus, H. Kruse, R. Di Remigio,
    A. Alenaizan, A. M. James, S. Lehtola, J. P. Misiewicz, M. Scheurer,
    R. A. Shaw, J. B. Schriber, Y. Xie, Z. L. Glick, D. A. Sirianni,
    J. S. O'Brien, J. M. Waldrop, A. Kumar, E. G. Hohenstein,
    B. P. Pritchard, B. R. Brooks, H. F. Schaefer III, A. Yu. Sokolov,
    K. Patkowski, A. E. DePrince III, U. Bozkaya, R. A. King,
    F. A. Evangelista, J. M. Turney, T. D. Crawford, C. D. Sherrill,
    J. Chem. Phys. 152(18) 184108 (2020). https://doi.org/10.1063/5.0006002

                            Additional Code Authors
    E. T. Seidl, C. L. Janssen, E. F. Valeev, M. L. Leininger,
    J. F. Gonthier, R. M. Richard, H. R. McAlexander, M. Saitow, X. Wang,
    P. Verma, and M. H. Lechner

             Previous Authors, Complete List of Code Contributors,
                       and Citations for Specific Modules
    https://github.com/psi4/psi4/blob/master/codemeta.json
    https://github.com/psi4/psi4/graphs/contributors
    http://psicode.org/psi4manual/master/introduction.html#citing-psifour

    -----------------------------------------------------------------------


    Psi4 started on: Thursday, 21 January 2021 10:41AM

    Process ID: 404148
    Host:       n412-045.vsc4.prov
    PSIDATADIR: /home/fs71337/gallo4/psi4/psi4/build/stage/share/psi4
    Memory:     500.0 MiB
    Threads:    48
    
  ==> Input File <==

--------------------------------------------------------------------------
# Any line starting with the # character is a comment line
memory 250000 mb
molecule molecule{
0 2
C          0.0000000000        0.0000000000        0.6422282651
N          0.0000000000        0.0000000000       -0.5507224180
}

set {
  reference uhf
  basis aug-cc-pV(5+d)Z
  scf_type OUT_OF_CORE
  freeze_core true
}

energy('ccsd(t)')
--------------------------------------------------------------------------

  Memory set to 232.831 GiB by Python driver.

Scratch directory: /binfl/lv71337/airmler/temp/

*** tstart() called on n412-045.vsc4.prov
*** at Thu Jan 21 10:41:53 2021

   => Loading Basis Set <=

    Name: AUG-CC-PV(5+D)Z
    Role: ORBITAL
    Keyword: BASIS
    atoms 1 entry C          line   414 file /home/fs71337/gallo4/psi4/psi4/build/stage/share/psi4/basis/aug-cc-pv_5pd_z.gbs 
    atoms 2 entry N          line   491 file /home/fs71337/gallo4/psi4/psi4/build/stage/share/psi4/basis/aug-cc-pv_5pd_z.gbs 


         ---------------------------------------------------------
                                   SCF
               by Justin Turney, Rob Parrish, Andy Simmonett
                          and Daniel G. A. Smith
                              UHF Reference
                       48 Threads, 238418 MiB Core
         ---------------------------------------------------------

  ==> Geometry <==

    Molecular point group: c2v
    Full point group: C_inf_v

    Geometry (in Angstrom), charge = 0, multiplicity = 2:

       Center              X                  Y                   Z               Mass       
    ------------   -----------------  -----------------  -----------------  -----------------
         C            0.000000000000     0.000000000000     0.642423149518    12.000000000000
         N            0.000000000000     0.000000000000    -0.550527533582    14.003074004430

  Running in c2v symmetry.

  Rotational constants: A = ************  B =      1.83304  C =      1.83304 [cm^-1]
  Rotational constants: A = ************  B =  54953.11064  C =  54953.11064 [MHz]
  Nuclear repulsion =   18.630646818010110

  Charge       = 0
  Multiplicity = 2
  Electrons    = 13
  Nalpha       = 7
  Nbeta        = 6

  ==> Algorithm <==

  SCF Algorithm Type is OUT_OF_CORE.
  DIIS enabled.
  MOM disabled.
  Fractional occupation disabled.
  Guess Type is SAD.
  Energy threshold   = 1.00e-08
  Density threshold  = 1.00e-08
  Integral threshold = 1.00e-12

  ==> Primary Basis <==

  Basis Set: AUG-CC-PV(5+D)Z
    Blend: AUG-CC-PV(5+D)Z
    Number of shells: 54
    Number of basis function: 254
    Number of Cartesian functions: 364
    Spherical Harmonics?: true
    Max angular momentum: 5

  ==> Integral Setup <==

  ==> DiskJK: Disk-Based J/K Matrices <==

    J tasked:                  Yes
    K tasked:                  Yes
    wK tasked:                  No
    Memory [MiB]:           178813
    Schwarz Cutoff:          1E-12

  Minimum eigenvalue in the overlap matrix is 8.9888817503E-06.
  Reciprocal condition number of the overlap matrix is 1.3664041460E-06.
    Using symmetric orthogonalization.

  ==> Pre-Iterations <==

  SCF Guess: Superposition of Atomic Densities via on-the-fly atomic UHF (no occupation information).


 WARNING: Atomic UHF is not converging! Try casting from a smaller basis or call Rob at CCMST.

 WARNING: Atomic UHF is not converging! Try casting from a smaller basis or call Rob at CCMST.
   -------------------------
    Irrep   Nso     Nmo    
   -------------------------
     A1        92      92 
     A2        38      38 
     B1        62      62 
     B2        62      62 
   -------------------------
    Total     254     254
   -------------------------

  ==> Iterations <==

                        Total Energy        Delta E     RMS |[F,P]|

   @UHF iter SAD:   -38.46728313393088   -3.84673e+01   0.00000e+00 
   @UHF iter   1:   -86.33474397997919   -4.78675e+01   3.55068e-02 DIIS
   @UHF iter   2:   -86.05113513357564    2.83609e-01   1.87525e-02 DIIS
   @UHF iter   3:   -89.98384892806423   -3.93271e+00   1.63658e-02 DIIS
   @UHF iter   4:   -91.93048696367609   -1.94664e+00   5.67811e-03 DIIS
   @UHF iter   5:   -92.19984394110891   -2.69357e-01   1.69051e-03 DIIS
   @UHF iter   6:   -92.23060301498055   -3.07591e-02   2.66666e-04 DIIS
   @UHF iter   7:   -92.23218641125435   -1.58340e-03   2.11145e-04 DIIS
   @UHF iter   8:   -92.23388606606689   -1.69965e-03   1.53012e-04 DIIS
   @UHF iter   9:   -92.23560346419087   -1.71740e-03   1.38693e-04 DIIS
   @UHF iter  10:   -92.23976437008544   -4.16091e-03   6.82624e-05 DIIS
   @UHF iter  11:   -92.24012328396569   -3.58914e-04   2.40843e-05 DIIS
   @UHF iter  12:   -92.24016164565197   -3.83617e-05   8.42726e-06 DIIS
   @UHF iter  13:   -92.24016653991333   -4.89426e-06   3.01661e-06 DIIS
   @UHF iter  14:   -92.24016618895625    3.50957e-07   3.00268e-06 DIIS
   @UHF iter  15:   -92.24016726894351   -1.07999e-06   4.28390e-07 DIIS
   @UHF iter  16:   -92.24016728469508   -1.57516e-08   1.19602e-07 DIIS
   @UHF iter  17:   -92.24016728596868   -1.27361e-09   2.70025e-08 DIIS
   @UHF iter  18:   -92.24016728604803   -7.93534e-11   2.86663e-09 DIIS
  Energy and wave function converged.


  ==> Post-Iterations <==

   @Spin Contamination Metric:   4.973391367E-01
   @S^2 Expected:                7.500000000E-01
   @S^2 Observed:                1.247339137E+00
   @S   Expected:                5.000000000E-01
   @S   Observed:                5.000000000E-01

    Orbital Energies [Eh]
    ---------------------

    Alpha Occupied:                                                       

       1A1   -15.606747     2A1   -11.360582     3A1    -1.230175  
       4A1    -0.745852     5A1    -0.564886     1B1    -0.515685  
       1B2    -0.515685  

    Alpha Virtual:                                                        

       6A1     0.046762     7A1     0.054235     2B2     0.057163  
       2B1     0.057163     3B2     0.099851     3B1     0.099851  
       8A1     0.106603     4B2     0.159256     4B1     0.159256  
       9A1     0.185983    10A1     0.201847     1A2     0.201847  
      11A1     0.233231     5B1     0.257531     5B2     0.257531  
      12A1     0.268103     6B2     0.276368     6B1     0.276368  
      13A1     0.346432     2A2     0.353384    14A1     0.353384  
       7B2     0.403154     7B1     0.403154    15A1     0.478008  
       8B2     0.550831     8B1     0.550831    16A1     0.565779  
       9B2     0.604501     9B1     0.604501    17A1     0.610018  
       3A2     0.611374    18A1     0.611374    10B2     0.617224  
      10B1     0.617224     4A2     0.662533    19A1     0.662533  
      20A1     0.668425    11B1     0.805736    11B2     0.805736  
      21A1     0.858857    12B1     0.890341    12B2     0.890341  
       5A2     0.930807    22A1     0.930807    13B1     0.952772  
      13B2     0.952772    23A1     1.022088    24A1     1.046086  
      14B1     1.118287    14B2     1.118288     6A2     1.214381  
      25A1     1.214381    26A1     1.217489    15B2     1.334720  
      15B1     1.334720    27A1     1.334906    28A1     1.553435  
       7A2     1.553435    16B1     1.605974    16B2     1.605974  
       8A2     1.621139    29A1     1.621139    30A1     1.637306  
      17B2     1.637380    17B1     1.637380    18B2     1.647256  
      18B1     1.647256     9A2     1.675555    31A1     1.675555  
      19B1     1.725301    19B2     1.725301    32A1     1.905733  
      33A1     1.960995    20B2     1.983385    20B1     1.983385  
      34A1     2.000382    10A2     2.056573    35A1     2.056573  
      36A1     2.298922    11A2     2.298922    37A1     2.381075  
      21B1     2.394256    21B2     2.394256    22B2     2.418139  
      22B1     2.418139    38A1     2.477795    12A2     2.477795  
      23B1     2.511190    23B2     2.511190    39A1     2.604123  
      13A2     2.709527    40A1     2.709527    24B1     2.726774  
      24B2     2.726774    25B2     2.776804    25B1     2.776804  
      41A1     2.851449    26B1     3.165965    26B2     3.165965  
      14A2     3.336782    42A1     3.336782    43A1     3.350880  
      27B2     3.467941    27B1     3.467941    28B2     3.677040  
      28B1     3.677040    44A1     3.691587    45A1     3.695013  
      15A2     3.695013    46A1     3.951866    16A2     3.951866  
      47A1     3.972262    29B1     3.996269    29B2     3.996269  
      30B2     4.019553    30B1     4.019553    31B2     4.040849  
      31B1     4.040849    17A2     4.042521    48A1     4.042521  
      49A1     4.102695    32B2     4.140470    32B1     4.140470  
      50A1     4.239276    18A2     4.239276    33B2     4.446485  
      33B1     4.446485    51A1     4.457745    19A2     4.457745  
      52A1     4.462110    34B2     4.509502    34B1     4.509502  
      53A1     4.786128    35B2     4.841255    35B1     4.841255  
      54A1     5.116723    36B1     5.238071    36B2     5.238071  
      20A2     5.282942    55A1     5.282942    21A2     5.389510  
      56A1     5.389510    37B2     5.593746    37B1     5.593746  
      38B2     5.732937    38B1     5.732937    57A1     5.757375  
      22A2     5.757375    58A1     5.789446    23A2     5.789446  
      59A1     5.828714    39B1     5.939538    39B2     5.939538  
      40B2     6.057207    40B1     6.057207    60A1     6.158258  
      61A1     6.374216    24A2     6.374216    41B1     6.502585  
      41B2     6.502585    42B2     6.653508    42B1     6.653508  
      62A1     6.674800    63A1     6.812723    25A2     6.812723  
      64A1     7.216855    43B2     7.914084    43B1     7.914084  
      65A1     7.924771    26A2     8.130876    66A1     8.130876  
      44B2     8.327002    44B1     8.327002    67A1     8.621579  
      45B2     8.916322    45B1     8.916322    68A1     9.001296  
      27A2     9.001296    46B1     9.220047    46B2     9.220047  
      69A1     9.406636    47B2     9.455843    47B1     9.455843  
      70A1     9.538780    28A2     9.538780    48B2     9.643669  
      48B1     9.643669    49B1    10.179369    49B2    10.179369  
      29A2    10.347938    71A1    10.347938    50B2    10.391145  
      50B1    10.391145    72A1    10.495197    30A2    10.495197  
      73A1    10.704325    74A1    10.841047    51B1    10.905599  
      51B2    10.905599    75A1    11.405729    31A2    11.432680  
      76A1    11.432680    52B2    11.838466    52B1    11.838466  
      77A1    11.948810    78A1    12.375481    32A2    12.375481  
      53B1    12.442901    53B2    12.442901    79A1    12.697587  
      33A2    12.697587    54B2    12.989022    54B1    12.989022  
      55B2    13.283950    55B1    13.283950    56B2    13.586424  
      56B1    13.586424    80A1    13.703418    34A2    13.703418  
      81A1    13.815512    82A1    14.242622    57B1    14.297839  
      57B2    14.297839    83A1    14.705983    35A2    14.705983  
      58B2    14.721133    58B1    14.721133    84A1    14.955803  
      59B2    14.976116    59B1    14.976116    85A1    15.186181  
      36A2    15.186181    86A1    15.795590    37A2    15.795590  
      60B2    15.796271    60B1    15.796271    87A1    15.981363  
      61B2    18.093550    61B1    18.093550    38A2    18.344942  
      88A1    18.344942    89A1    19.175817    62B2    19.200534  
      62B1    19.200534    90A1    20.309536    91A1    38.875850  
      92A1    51.704835  

    Beta Occupied:                                                        

       1A1   -15.635365     2A1   -11.302959     3A1    -1.248074  
       4A1    -0.623576     1B1    -0.538964     1B2    -0.538964  

    Beta Virtual:                                                         

       5A1    -0.036562     6A1     0.054153     2B1     0.054767  
       2B2     0.054767     7A1     0.067819     3B2     0.108057  
       3B1     0.108057     8A1     0.112736     4B2     0.173392  
       4B1     0.173392     9A1     0.189633    10A1     0.205698  
       1A2     0.205698    11A1     0.241856     5B1     0.259524  
       5B2     0.259524    12A1     0.301960     6B2     0.301993  
       6B1     0.301993    13A1     0.347134    14A1     0.350929  
       2A2     0.350929     7B2     0.418235     7B1     0.418235  
      15A1     0.497236     8B2     0.554595     8B1     0.554595  
       9B1     0.587001     9B2     0.587001    16A1     0.594003  
      17A1     0.620026    10B2     0.626114    10B1     0.626114  
       3A2     0.631162    18A1     0.631162     4A2     0.675151  
      19A1     0.675151    20A1     0.702776    11B2     0.820325  
      11B1     0.820325    21A1     0.859819    12B1     0.887467  
      12B2     0.887467     5A2     0.923732    22A1     0.923732  
      13B2     0.969903    13B1     0.969903    23A1     1.028875  
      24A1     1.082932    14B2     1.148737    14B1     1.148737  
       6A2     1.192213    25A1     1.192213    26A1     1.240318  
      15B1     1.326903    15B2     1.326903    27A1     1.382231  
       7A2     1.561174    28A1     1.561174    16B2     1.631284  
      16B1     1.631284    17B1     1.635742    17B2     1.635742  
      29A1     1.663528    18B2     1.670786    18B1     1.670786  
      30A1     1.672725     8A2     1.672725    31A1     1.711069  
       9A2     1.711069    19B2     1.730305    19B1     1.730305  
      32A1     1.904885    33A1     1.971396    20B1     1.990939  
      20B2     1.990939    34A1     2.027425    10A2     2.057399  
      35A1     2.057399    36A1     2.293157    11A2     2.293157  
      21B1     2.378973    21B2     2.378973    37A1     2.410142  
      22B1     2.421066    22B2     2.421066    12A2     2.447843  
      38A1     2.447843    23B2     2.530946    23B1     2.530946  
      39A1     2.611626    13A2     2.687865    40A1     2.687865  
      24B2     2.748466    24B1     2.748466    25B2     2.768541  
      25B1     2.768541    41A1     2.870834    26B2     3.185409  
      26B1     3.185409    14A2     3.351881    42A1     3.351881  
      43A1     3.363665    27B2     3.479538    27B1     3.479538  
      28B2     3.703401    28B1     3.703401    44A1     3.704948  
      15A2     3.704948    45A1     3.711950    46A1     3.986689  
      16A2     3.986689    47A1     3.999074    29B2     4.019721  
      29B1     4.019721    30B1     4.051692    30B2     4.051692  
      31B1     4.065739    31B2     4.065739    17A2     4.067886  
      48A1     4.067886    49A1     4.125135    32B1     4.134464  
      32B2     4.134464    18A2     4.261368    50A1     4.261368  
      33B2     4.456401    33B1     4.456401    51A1     4.474998  
      52A1     4.486524    19A2     4.486524    34B1     4.503228  
      34B2     4.503228    53A1     4.819652    35B2     4.831821  
      35B1     4.831821    54A1     5.144028    36B2     5.268664  
      36B1     5.268664    20A2     5.289319    55A1     5.289319  
      21A2     5.385233    56A1     5.385233    37B1     5.591757  
      37B2     5.591757    38B2     5.716235    38B1     5.716235  
      22A2     5.735386    57A1     5.735386    58A1     5.783620  
      23A2     5.783620    59A1     5.829788    39B1     5.938878  
      39B2     5.938878    40B2     6.025751    40B1     6.025751  
      60A1     6.158079    61A1     6.366047    24A2     6.366047  
      41B1     6.521909    41B2     6.521909    42B2     6.649316  
      42B1     6.649316    62A1     6.690028    63A1     6.792205  
      25A2     6.792205    64A1     7.218861    43B1     7.907831  
      43B2     7.907831    65A1     7.943572    26A2     8.116189  
      66A1     8.116189    44B2     8.340566    44B1     8.340566  
      67A1     8.638652    45B1     8.941649    45B2     8.941649  
      68A1     9.024772    27A2     9.024772    46B2     9.256439  
      46B1     9.256440    69A1     9.441033    47B2     9.478260  
      47B1     9.478260    70A1     9.572083    28A2     9.572083  
      48B2     9.663846    48B1     9.663846    49B1    10.222833  
      49B2    10.222833    29A2    10.384280    71A1    10.384280  
      50B2    10.424024    50B1    10.424024    72A1    10.519098  
      30A2    10.519098    73A1    10.714841    74A1    10.865234  
      51B2    10.924446    51B1    10.924446    75A1    11.423660  
      31A2    11.465143    76A1    11.465143    52B2    11.865719  
      52B1    11.865719    77A1    11.969884    78A1    12.406838  
      32A2    12.406838    53B1    12.420603    53B2    12.420603  
      79A1    12.681333    33A2    12.681333    54B1    12.964987  
      54B2    12.964987    55B1    13.274222    55B2    13.274222  
      56B2    13.600327    56B1    13.600327    80A1    13.697830  
      34A2    13.697830    81A1    13.813551    82A1    14.255258  
      57B1    14.301457    57B2    14.301457    83A1    14.673627  
      35A2    14.673627    58B2    14.682381    58B1    14.682381  
      84A1    14.947907    59B1    14.953145    59B2    14.953145  
      85A1    15.170497    36A2    15.170497    86A1    15.776859  
      37A2    15.776859    60B1    15.787271    60B2    15.787271  
      87A1    15.978209    61B1    18.090381    61B2    18.090381  
      38A2    18.311030    88A1    18.311030    89A1    19.180505  
      62B1    19.184933    62B2    19.184933    90A1    20.306905  
      91A1    38.901373    92A1    51.694691  

    Final Occupation by Irrep:
             A1    A2    B1    B2 
    DOCC [     4,    0,    1,    1 ]
    SOCC [     1,    0,    0,    0 ]

  @UHF Final Energy:   -92.24016728604803

   => Energetics <=

    Nuclear Repulsion Energy =             18.6306468180101099
    One-Electron Energy =                -161.3141154551466343
    Two-Electron Energy =                  50.4433013510884791
    Total Energy =                        -92.2401672860480346

  UHF NO Occupations:
  HONO-2 :    1 B2 1.8684017
  HONO-1 :    1 B1 1.8684009
  HONO-0 :    5 A1 1.0000000
  LUNO+0 :    2 B1 0.1315991
  LUNO+1 :    2 B2 0.1315983
  LUNO+2 :    6 A1 0.0021065
  LUNO+3 :    7 A1 0.0006845


Computation Completed


Properties will be evaluated at   0.000000,   0.000000,   0.000000 [a0]

Properties computed using the SCF density matrix

  Nuclear Dipole Moment: [e a0]
     X:     0.0000      Y:     0.0000      Z:     0.0016

  Electronic Dipole Moment: [e a0]
     X:     0.0000      Y:     0.0000      Z:     0.8399

  Dipole Moment: [e a0]
     X:     0.0000      Y:     0.0000      Z:     0.8415     Total:     0.8415

  Dipole Moment: [D]
     X:     0.0000      Y:     0.0000      Z:     2.1389     Total:     2.1389


*** tstop() called on n412-045.vsc4.prov at Thu Jan 21 10:45:13 2021
Module time:
	user time   =     249.79 seconds =       4.16 minutes
	system time =      17.15 seconds =       0.29 minutes
	total time  =        200 seconds =       3.33 minutes
Total time:
	user time   =     249.79 seconds =       4.16 minutes
	system time =      17.15 seconds =       0.29 minutes
	total time  =        200 seconds =       3.33 minutes

*** tstart() called on n412-045.vsc4.prov
*** at Thu Jan 21 10:45:13 2021


	Wfn Parameters:
	--------------------
	Wavefunction         = CCSD_T
	Number of irreps     = 4
	Number of MOs        = 254
	Number of active MOs = 252
	AO-Basis             = NONE
	Semicanonical        = false
	Reference            = UHF
	Print Level          = 1

	IRREP	# MOs	# FZDC	# DOCC	# SOCC	# VIRT	# FZVR
	-----	-----	------	------	------	------	------
	 A1	   92	    2	    2	    1	    87	    0
	 A2	   38	    0	    0	    0	    38	    0
	 B1	   62	    0	    1	    0	    61	    0
	 B2	   62	    0	    1	    0	    61	    0
	Transforming integrals...
	IWL integrals will be deleted.
	(OO|OO)...
	Presorting SO-basis two-electron integrals.
	Sorting File: SO Ints (nn|nn) nbuckets = 1
	Constructing frozen core operators
	Starting AA/AB first half-transformation.
	Sorting AA/AB half-transformed integrals.
	Starting BB first half-transformation.
	Sorting BB half-transformed integrals.
	First half integral transformation complete.
	Starting AA second half-transformation.
	Starting AB second half-transformation.
	Starting BB second half-transformation.
	Two-electron integral transformation complete.
	(OO|OV)...
	Starting AA second half-transformation.
	Starting AB second half-transformation.
	Starting BB second half-transformation.
	Two-electron integral transformation complete.
	(OO|VV)...
	Starting AA second half-transformation.
	Starting AB second half-transformation.
	Starting BB second half-transformation.
	Two-electron integral transformation complete.
	(OV|OO)...
	Starting AA/AB first half-transformation.
	Sorting AA/AB half-transformed integrals.
	Starting BB first half-transformation.
	Sorting BB half-transformed integrals.
	First half integral transformation complete.
	Starting AA second half-transformation.
	Starting AB second half-transformation.
	Starting BB second half-transformation.
	Two-electron integral transformation complete.
	(OV|OV)...
	Starting AA second half-transformation.
	Starting AB second half-transformation.
	Starting BB second half-transformation.
	Two-electron integral transformation complete.
	(OV|VV)...
	Starting AA second half-transformation.
	Starting AB second half-transformation.
	Starting BB second half-transformation.
	Two-electron integral transformation complete.
	(VV|OO)...
	Starting AA/AB first half-transformation.
	Sorting AA/AB half-transformed integrals.
	Starting BB first half-transformation.
	Sorting BB half-transformed integrals.
	First half integral transformation complete.
	Starting AA second half-transformation.
	Starting AB second half-transformation.
	Starting BB second half-transformation.
	Two-electron integral transformation complete.
	(VV|OV)...
	Starting AA second half-transformation.
	Starting AB second half-transformation.
	Starting BB second half-transformation.
	Two-electron integral transformation complete.
	(VV|VV)...
	Starting AA second half-transformation.
	Starting AB second half-transformation.
	Starting BB second half-transformation.
	Two-electron integral transformation complete.
	Frozen core energy     =    -86.85194079209300

	Size of irrep 0 of <AB|CD> integrals:     65.675 (MW) /    525.399 (MB)
	Size of irrep 1 of <AB|CD> integrals:     49.379 (MW) /    395.030 (MB)
	Size of irrep 2 of <AB|CD> integrals:     58.141 (MW) /    465.125 (MB)
	Size of irrep 3 of <AB|CD> integrals:     58.141 (MW) /    465.125 (MB)
	Total:                                   231.335 (MW) /   1850.678 (MB)

	Size of irrep 0 of <ab|cd> integrals:     67.092 (MW) /    536.740 (MB)
	Size of irrep 1 of <ab|cd> integrals:     49.914 (MW) /    399.314 (MB)
	Size of irrep 2 of <ab|cd> integrals:     59.075 (MW) /    472.597 (MB)
	Size of irrep 3 of <ab|cd> integrals:     59.075 (MW) /    472.597 (MB)
	Total:                                   235.156 (MW) /   1881.247 (MB)

	Size of irrep 0 of <Ab|Cd> integrals:    273.638 (MW) /   2189.102 (MB)
	Size of irrep 1 of <Ab|Cd> integrals:    198.584 (MW) /   1588.676 (MB)
	Size of irrep 2 of <Ab|Cd> integrals:    234.427 (MW) /   1875.414 (MB)
	Size of irrep 3 of <Ab|Cd> integrals:    234.427 (MW) /   1875.414 (MB)
	Total:                                   941.076 (MW) /   7528.605 (MB)

	Size of irrep 0 of <IA|BC> integrals:      6.302 (MW) /     50.418 (MB)
	Size of irrep 1 of <IA|BC> integrals:      3.317 (MW) /     26.534 (MB)
	Size of irrep 2 of <IA|BC> integrals:      4.697 (MW) /     37.576 (MB)
	Size of irrep 3 of <IA|BC> integrals:      4.697 (MW) /     37.576 (MB)
	Total:                                    19.013 (MW) /    152.104 (MB)

	Size of irrep 0 of <ia|bc> integrals:      4.956 (MW) /     39.646 (MB)
	Size of irrep 1 of <ia|bc> integrals:      2.798 (MW) /     22.382 (MB)
	Size of irrep 2 of <ia|bc> integrals:      3.812 (MW) /     30.498 (MB)
	Size of irrep 3 of <ia|bc> integrals:      3.812 (MW) /     30.498 (MB)
	Total:                                    15.378 (MW) /    123.024 (MB)

	Size of irrep 0 of <Ia|Bc> integrals:      6.385 (MW) /     51.082 (MB)
	Size of irrep 1 of <Ia|Bc> integrals:      3.326 (MW) /     26.606 (MB)
	Size of irrep 2 of <Ia|Bc> integrals:      4.731 (MW) /     37.849 (MB)
	Size of irrep 3 of <Ia|Bc> integrals:      4.731 (MW) /     37.849 (MB)
	Total:                                    19.173 (MW) /    153.385 (MB)

	Size of irrep 0 of <iA|bC> integrals:      4.896 (MW) /     39.171 (MB)
	Size of irrep 1 of <iA|bC> integrals:      2.790 (MW) /     22.322 (MB)
	Size of irrep 2 of <iA|bC> integrals:      3.782 (MW) /     30.255 (MB)
	Size of irrep 3 of <iA|bC> integrals:      3.782 (MW) /     30.255 (MB)
	Total:                                    15.250 (MW) /    122.002 (MB)

	Size of irrep 0 of tIjAb amplitudes:       0.132 (MW) /      1.059 (MB)
	Size of irrep 1 of tIjAb amplitudes:       0.028 (MW) /      0.225 (MB)
	Size of irrep 2 of tIjAb amplitudes:       0.077 (MW) /      0.612 (MB)
	Size of irrep 3 of tIjAb amplitudes:       0.077 (MW) /      0.612 (MB)
	Total:                                     0.314 (MW) /      2.509 (MB)

	Nuclear Rep. energy          =     18.63064681801011
	SCF energy                   =    -92.24016728604803
	One-electron energy          =    -41.51588602318989
	Two-electron (AA) energy     =      4.25305999144275
	Two-electron (BB) energy     =      3.04440721389107
	Two-electron (AB) energy     =     10.19954550589065
	Two-electron energy          =     17.49701271122446
	Reference energy             =    -92.24016728604832

*** tstop() called on n412-045.vsc4.prov at Thu Jan 21 10:50:28 2021
Module time:
	user time   =     108.06 seconds =       1.80 minutes
	system time =      66.93 seconds =       1.12 minutes
	total time  =        315 seconds =       5.25 minutes
Total time:
	user time   =     357.85 seconds =       5.96 minutes
	system time =      84.08 seconds =       1.40 minutes
	total time  =        515 seconds =       8.58 minutes
            **************************
            *                        *
            *        CCENERGY        *
            *                        *
            **************************

    Nuclear Rep. energy (wfn)     =   18.630646818010110
    SCF energy          (wfn)     =  -92.240167286048035
    Reference energy    (file100) =  -92.240167286048319

    Input parameters:
    -----------------
    Wave function   =     CCSD_T
    Reference wfn   =     UHF
    Brueckner       =     No
    Memory (Mbytes) =     250000.0
    Maxiter         =     50
    R_Convergence   =     1.0e-07
    E_Convergence   =     1.0e-06
    Restart         =     Yes
    DIIS            =     Yes
    AO Basis        =     NONE
    ABCD            =     NEW
    Cache Level     =     2
    Cache Type      =     LRU
    Print Level     =     1
    Num. of threads =     48
    # Amps to Print =     10
    Print MP2 Amps? =     No
    Analyze T2 Amps =     No
    Print Pair Ener =     No
    Local CC        =     No
    SCS-MP2         =     False
    SCSN-MP2        =     False
    SCS-CCSD        =     False

MP2 correlation energy -0.2974487283712664
                Solving CC Amplitude Equations
                ------------------------------
  Iter             Energy              RMS        T1Diag      D1Diag    New D1Diag    D2Diag
  ----     ---------------------    ---------   ----------  ----------  ----------   --------
     0        -0.297448728371266    0.000e+00    0.000000    0.000000    0.000000    0.000000
     1        -0.294058609631754    1.241e-01    0.038236    0.000000    0.000000    0.000000
     2        -0.313589743507036    6.350e-02    0.056807    0.000000    0.000000    0.000000
     3        -0.330354341035834    5.536e-02    0.104155    0.000000    0.000000    0.000000
     4        -0.333789332333285    2.272e-02    0.125710    0.000000    0.000000    0.000000
     5        -0.334495836959112    1.274e-02    0.131055    0.000000    0.000000    0.000000
     6        -0.335417434098758    8.019e-03    0.134340    0.000000    0.000000    0.000000
     7        -0.335502185387573    4.464e-03    0.135897    0.000000    0.000000    0.000000
     8        -0.335626146420097    2.019e-03    0.136716    0.000000    0.000000    0.000000
     9        -0.335720354621306    9.436e-04    0.137121    0.000000    0.000000    0.000000
    10        -0.335713105955767    4.968e-04    0.137293    0.000000    0.000000    0.000000
    11        -0.335705875207438    2.059e-04    0.137260    0.000000    0.000000    0.000000
    12        -0.335697624217177    7.710e-05    0.137259    0.000000    0.000000    0.000000
    13        -0.335702396162530    3.411e-05    0.137278    0.000000    0.000000    0.000000
    14        -0.335704116092430    1.457e-05    0.137281    0.000000    0.000000    0.000000
    15        -0.335704848874053    3.963e-06    0.137284    0.000000    0.000000    0.000000
    16        -0.335705039250305    1.283e-06    0.137285    0.000000    0.000000    0.000000
    17        -0.335705061420220    5.536e-07    0.137285    0.000000    0.000000    0.000000
    18        -0.335705067189750    1.618e-07    0.137285    0.000000    0.000000    0.000000
    19        -0.335705066376551    6.987e-08    0.137285    0.000000    0.000000    0.000000

    Iterations converged.


    Largest TIA Amplitudes:
              3 127        -0.1407275744
              4 188        -0.1407273150
              3 129        -0.0657106705
              4 190        -0.0657105165
              3 126        -0.0656972808
              4 187        -0.0656971883
              3 130        -0.0455189104
              4 191        -0.0455188050
              3 132         0.0373140164
              4 193         0.0373139738

    Largest Tia Amplitudes:
              1   0        -0.2025690590
              2 128         0.1132328428
              3 189         0.1132328028
              1   2         0.0790250930
              2 130         0.0722440886
              3 191         0.0722440668
              2 131         0.0605000237
              3 192         0.0604999765
              1   7         0.0473791973
              1   3        -0.0360150662

    Largest TIJAB Amplitudes:
      4   3 188 127        -0.0259285613
      4   3 188 129        -0.0128997987
      4   3 190 127        -0.0128997971
      4   3 187 127        -0.0125149465
      4   3 188 126        -0.0125149352
      4   3 188 130        -0.0116968093
      4   3 191 127        -0.0116968061
      3   2 127  18        -0.0104262357
      4   2 188  18        -0.0104262356
      4   2 188  15         0.0103241162

    Largest Tijab Amplitudes:
      3   2 189 128        -0.0207206859
      3   1 189   0         0.0195456153
      2   1 128   0         0.0195456039
      3   2 189 131        -0.0125195705
      3   2 192 128        -0.0125195637
      3   2 189 130        -0.0112517854
      3   2 191 128        -0.0112517841
      2   1 131   0         0.0110038591
      3   1 192   0         0.0110038591
      3   2 191 130        -0.0096460140

    Largest TIjAb Amplitudes:
      4   3 188 189        -0.0635193970
      3   2 127 128        -0.0635193898
      3   1 127   0         0.0562525604
      4   1 188   0         0.0562525140
      3   2 127 131        -0.0394612154
      4   3 188 192        -0.0394611985
      3   2 127 130        -0.0392895305
      4   3 188 191        -0.0392895280
      3   3 127 189        -0.0382944797
      4   2 188 128        -0.0382944574

    SCF energy       (wfn)                    =  -92.240167286048035
    Reference energy (file100)                =  -92.240167286048319

    Opposite-spin MP2 correlation energy      =   -0.217630910288356
    Same-spin MP2 correlation energy          =   -0.079817818082910
    Singles MP2 correlation energy            =   -0.000000000000000
    MP2 correlation energy                    =   -0.297448728371266
      * MP2 total energy                      =  -92.537616014419584

    Opposite-spin CCSD correlation energy     =   -0.271663828668982
    Same-spin CCSD correlation energy         =   -0.064041237707578
    Singles CCSD correlation energy           =    0.000000000000010
    CCSD correlation energy                   =   -0.335705066376551
      * CCSD total energy                     =  -92.575872352424867

            **************************
            *                        *
            *        CCTRIPLES       *
            *                        *
            **************************


    Wave function   =    CCSD_T
    Reference wfn   =      UHF

    Nuclear Rep. energy (wfn)                =   18.630646818010110
    SCF energy          (wfn)                =  -92.240167286048035
    Reference energy    (file100)            =  -92.240167286048319
    CCSD energy         (file100)            =   -0.335705066376551
    Total CCSD energy   (file100)            =  -92.575872352424867

    Number of ijk index combinations:
    Spin Case AAA:                                  10
    Spin Case BBB:                                   4
    Spin Case AAB:                                  40
    Spin Case ABB:                                  30
    AAA (T) energy                             =   -0.000355908278219
    BBB (T) energy                             =   -0.000207542637102
    AAB (T) energy                             =   -0.011433469234911
    ABB (T) energy                             =   -0.009358942926067
    (T) energy                                   =   -0.021355863076299
      * CCSD(T) total energy                     =  -92.597228215501161


    Psi4 stopped on: Thursday, 21 January 2021 10:58AM
    Psi4 wall time for execution: 0:16:43.42

*** Psi4 exiting successfully. Buy a developer a beer!
