
    -----------------------------------------------------------------------
          Psi4: An Open-Source Ab Initio Electronic Structure Package
                               Psi4 1.4a3.dev88 

                         Git: Rev {master} 262e345 


    D. G. A. Smith, L. A. Burns, A. C. Simmonett, R. M. Parrish,
    M. C. Schieber, R. Galvelis, P. Kraus, H. Kruse, R. Di Remigio,
    A. Alenaizan, A. M. James, S. Lehtola, J. P. Misiewicz, M. Scheurer,
    R. A. Shaw, J. B. Schriber, Y. Xie, Z. L. Glick, D. A. Sirianni,
    J. S. O'Brien, J. M. Waldrop, A. Kumar, E. G. Hohenstein,
    B. P. Pritchard, B. R. Brooks, H. F. Schaefer III, A. Yu. Sokolov,
    K. Patkowski, A. E. DePrince III, U. Bozkaya, R. A. King,
    F. A. Evangelista, J. M. Turney, T. D. Crawford, C. D. Sherrill,
    J. Chem. Phys. 152(18) 184108 (2020). https://doi.org/10.1063/5.0006002

                            Additional Code Authors
    E. T. Seidl, C. L. Janssen, E. F. Valeev, M. L. Leininger,
    J. F. Gonthier, R. M. Richard, H. R. McAlexander, M. Saitow, X. Wang,
    P. Verma, and M. H. Lechner

             Previous Authors, Complete List of Code Contributors,
                       and Citations for Specific Modules
    https://github.com/psi4/psi4/blob/master/codemeta.json
    https://github.com/psi4/psi4/graphs/contributors
    http://psicode.org/psi4manual/master/introduction.html#citing-psifour

    -----------------------------------------------------------------------


    Psi4 started on: Friday, 22 January 2021 02:32PM

    Process ID: 246541
    Host:       n412-015.vsc4.prov
    PSIDATADIR: /home/fs71337/gallo4/psi4/eri-6/psi4/build/stage/share/psi4
    Memory:     500.0 MiB
    Threads:    1
    
  ==> Input File <==

--------------------------------------------------------------------------
# Any line starting with the # character is a comment line
memory 250000 mb
molecule molecule{
0 2
C          0.0000000000        0.0000000000        0.6422282651
N          0.0000000000        0.0000000000       -0.5507224180
}

set {
  reference uhf
  basis aug-cc-pV(6+d)Z
  scf_type OUT_OF_CORE
  freeze_core true
  DOCC [     4,    0,    1,    1 ]
  SOCC [     1,    0,    0,    0 ]

}

energy('ccsd(t)')
--------------------------------------------------------------------------

  Memory set to 232.831 GiB by Python driver.

Scratch directory: /binfl/lv71337/airmler/temp/

*** tstart() called on n412-015.vsc4.prov
*** at Fri Jan 22 14:32:01 2021

   => Loading Basis Set <=

    Name: AUG-CC-PV(6+D)Z
    Role: ORBITAL
    Keyword: BASIS
    atoms 1 entry C          line   267 file /home/fs71337/gallo4/psi4/eri-6/psi4/build/stage/share/psi4/basis/aug-cc-pv_6pd_z.gbs 
    atoms 2 entry N          line   363 file /home/fs71337/gallo4/psi4/eri-6/psi4/build/stage/share/psi4/basis/aug-cc-pv_6pd_z.gbs 


         ---------------------------------------------------------
                                   SCF
               by Justin Turney, Rob Parrish, Andy Simmonett
                          and Daniel G. A. Smith
                              UHF Reference
                        1 Threads, 238418 MiB Core
         ---------------------------------------------------------

  ==> Geometry <==

    Molecular point group: c2v
    Full point group: C_inf_v

    Geometry (in Angstrom), charge = 0, multiplicity = 2:

       Center              X                  Y                   Z               Mass       
    ------------   -----------------  -----------------  -----------------  -----------------
         C            0.000000000000     0.000000000000     0.642423149518    12.000000000000
         N            0.000000000000     0.000000000000    -0.550527533582    14.003074004430

  Running in c2v symmetry.

  Rotational constants: A = ************  B =      1.83304  C =      1.83304 [cm^-1]
  Rotational constants: A = ************  B =  54953.11064  C =  54953.11064 [MHz]
  Nuclear repulsion =   18.630646818010110

  Charge       = 0
  Multiplicity = 2
  Electrons    = 13
  Nalpha       = 7
  Nbeta        = 6

  ==> Algorithm <==

  SCF Algorithm Type is OUT_OF_CORE.
  DIIS enabled.
  MOM disabled.
  Fractional occupation disabled.
  Guess Type is SAD.
  Energy threshold   = 1.00e-08
  Density threshold  = 1.00e-08
  Integral threshold = 1.00e-12

  ==> Primary Basis <==

  Basis Set: AUG-CC-PV(6+D)Z
    Blend: AUG-CC-PV(6+D)Z
    Number of shells: 70
    Number of basis function: 378
    Number of Cartesian functions: 588
    Spherical Harmonics?: true
    Max angular momentum: 6

  ==> Integral Setup <==

  ==> DiskJK: Disk-Based J/K Matrices <==

    J tasked:                  Yes
    K tasked:                  Yes
    wK tasked:                  No
    Memory [MiB]:           178813
    Schwarz Cutoff:          1E-12

  Minimum eigenvalue in the overlap matrix is 1.2914726385E-06.
  Reciprocal condition number of the overlap matrix is 1.7503500279E-07.
    Using symmetric orthogonalization.

  ==> Pre-Iterations <==

  SCF Guess: Superposition of Atomic Densities via on-the-fly atomic UHF (no occupation information).

   -------------------------
    Irrep   Nso     Nmo    
   -------------------------
     A1       132     132 
     A2        62      62 
     B1        92      92 
     B2        92      92 
   -------------------------
    Total     378     378
   -------------------------

  ==> Iterations <==

                        Total Energy        Delta E     RMS |[F,P]|

   @UHF iter SAD:   -91.18062507355283   -9.11806e+01   0.00000e+00 
   @UHF iter   1:   -92.14011076430995   -9.59486e-01   2.11258e-03 DIIS
   @UHF iter   2:   -92.13001363627515    1.00971e-02   2.34582e-03 DIIS
   @UHF iter   3:   -92.22126812202235   -9.12545e-02   2.30718e-04 DIIS
   @UHF iter   4:   -92.22435801159426   -3.08989e-03   1.19156e-04 DIIS
   @UHF iter   5:   -92.22596709674326   -1.60909e-03   1.10778e-04 DIIS
   @UHF iter   6:   -92.22732936375007   -1.36227e-03   1.10290e-04 DIIS
   @UHF iter   7:   -92.22875957546646   -1.43021e-03   1.09573e-04 DIIS
   @UHF iter   8:   -92.23189486422041   -3.13529e-03   1.06020e-04 DIIS
   @UHF iter   9:   -92.23935364954619   -7.45879e-03   8.80060e-05 DIIS
   @UHF iter  10:   -92.24029493311482   -9.41284e-04   1.33612e-05 DIIS
   @UHF iter  11:   -92.24025461451808    4.03186e-05   1.32451e-05 DIIS
   @UHF iter  12:   -92.24029994744686   -4.53329e-05   2.15274e-06 DIIS
   @UHF iter  13:   -92.24029906029692    8.87150e-07   2.71388e-06 DIIS
   @UHF iter  14:   -92.24030063088330   -1.57059e-06   1.32115e-07 DIIS
   @UHF iter  15:   -92.24030063359797   -2.71467e-09   2.01296e-08 DIIS
   @UHF iter  16:   -92.24030063358489    1.30740e-11   1.62585e-08 DIIS
   @UHF iter  17:   -92.24030063362284   -3.79430e-11   2.65859e-09 DIIS
  Energy and wave function converged.


  ==> Post-Iterations <==

   @Spin Contamination Metric:   4.973873472E-01
   @S^2 Expected:                7.500000000E-01
   @S^2 Observed:                1.247387347E+00
   @S   Expected:                5.000000000E-01
   @S   Observed:                5.000000000E-01

    Orbital Energies [Eh]
    ---------------------

    Alpha Occupied:                                                       

       1A1   -15.606721     2A1   -11.360573     3A1    -1.230160  
       4A1    -0.745856     5A1    -0.564891     1B1    -0.515685  
       1B2    -0.515685  

    Alpha Virtual:                                                        

       6A1     0.037423     7A1     0.046330     2B2     0.048136  
       2B1     0.048136     3B2     0.087682     3B1     0.087682  
       8A1     0.091637     4B2     0.149666     4B1     0.149666  
       9A1     0.155693     1A2     0.178912    10A1     0.178912  
      11A1     0.195927     5B2     0.198469     5B1     0.198469  
      12A1     0.211947     6B2     0.242680     6B1     0.242680  
      13A1     0.298426     2A2     0.309744    14A1     0.309744  
       7B2     0.348077     7B1     0.348077    15A1     0.377150  
       8B1     0.464570     8B2     0.464570    16A1     0.472097  
       9B2     0.475396     9B1     0.475396    17A1     0.512593  
      10B2     0.516385    10B1     0.516385     3A2     0.517838  
      18A1     0.517838    19A1     0.561553     4A2     0.588323  
      20A1     0.588323    11B2     0.653874    11B1     0.653874  
      21A1     0.693934    12B2     0.699078    12B1     0.699078  
       5A2     0.723980    22A1     0.723980    23A1     0.758504  
      13B2     0.768889    13B1     0.768889    24A1     0.825290  
      14B2     0.850494    14B1     0.850494    25A1     1.021500  
       6A2     1.046865    26A1     1.046865    27A1     1.065101  
      15B2     1.094535    15B1     1.094535    28A1     1.234916  
       7A2     1.234916    16B2     1.279854    16B1     1.279854  
      17B2     1.303422    17B1     1.303422    29A1     1.320174  
      18B2     1.340309    18B1     1.340309     8A2     1.342855  
      30A1     1.342855     9A2     1.353221    31A1     1.353221  
      32A1     1.361282    19B2     1.363169    19B1     1.363169  
      33A1     1.516008    20B2     1.536191    20B1     1.536191  
      34A1     1.573171    35A1     1.610549    10A2     1.610549  
      36A1     1.708963    21B2     1.721126    21B1     1.721126  
      37A1     1.762909    11A2     1.762909    22B2     1.811225  
      22B1     1.811225    38A1     1.916303    12A2     1.916303  
      23B2     1.923518    23B1     1.923518    39A1     1.950958  
      40A1     2.139394    13A2     2.139394    24B2     2.146326  
      24B1     2.146326    25B2     2.166220    25B1     2.166220  
      41A1     2.334088    42A1     2.386895    26B2     2.481184  
      26B1     2.481184    27B1     2.588534    27B2     2.588534  
      28B1     2.621366    28B2     2.621366    43A1     2.638767  
      44A1     2.691870    14A2     2.691870    15A2     2.810971  
      45A1     2.810971    46A1     2.824327    29B2     2.986326  
      29B1     2.986326    47A1     2.987466    16A2     2.987466  
      30B2     2.997258    30B1     2.997258    31B1     3.042903  
      31B2     3.042903    48A1     3.049623    32B2     3.064679  
      32B1     3.064679    17A2     3.174400    49A1     3.174400  
      18A2     3.248708    50A1     3.248708    51A1     3.251624  
      52A1     3.323151    19A2     3.323151    53A1     3.459640  
      33B2     3.513173    33B1     3.513173    34B2     3.532266  
      34B1     3.532266    35B1     3.576416    35B2     3.576416  
      54A1     3.796525    36B2     3.889271    36B1     3.889271  
      55A1     3.913075    20A2     3.913075    56A1     4.046657  
      21A2     4.046657    37B1     4.094202    37B2     4.094202  
      57A1     4.183303    38B2     4.186974    38B1     4.186974  
      58A1     4.285347    22A2     4.285347    59A1     4.319803  
      39B2     4.378028    39B1     4.378028    40B1     4.401914  
      40B2     4.401914    23A2     4.468408    60A1     4.468408  
      41B2     4.726930    41B1     4.726930    61A1     4.916629  
      24A2     4.916629    62A1     5.031731    63A1     5.180743  
      42B2     5.180756    42B1     5.180756    64A1     5.218104  
      65A1     5.249466    25A2     5.249466    26A2     5.294713  
      66A1     5.294713    67A1     5.458316    43B1     5.491004  
      43B2     5.491004    44B2     5.493042    44B1     5.493042  
      45B2     5.782597    45B1     5.782597    68A1     6.068912  
      27A2     6.068912    69A1     6.099736    28A2     6.099736  
      46B1     6.144243    46B2     6.144243    70A1     6.165458  
      47B2     6.235310    47B1     6.235310    48B2     6.257202  
      48B1     6.257202    71A1     6.269213    29A2     6.269213  
      30A2     6.345902    72A1     6.345902    49B1     6.599708  
      49B2     6.599708    50B2     6.601611    50B1     6.601611  
      73A1     6.644302    74A1     6.804008    31A2     6.804008  
      51B2     6.915193    51B1     6.915193    75A1     7.139534  
      52B2     7.169253    52B1     7.169253    32A2     7.279880  
      76A1     7.279880    33A2     7.304050    77A1     7.304050  
      53B2     7.356342    53B1     7.356342    78A1     7.407441  
      79A1     7.569761    34A2     7.569761    54B2     7.627451  
      54B1     7.627451    80A1     7.693382    35A2     7.693382  
      81A1     7.736374    55B1     7.780279    55B2     7.780279  
      56B2     7.828683    56B1     7.828683    82A1     8.195320  
      57B1     8.444865    57B2     8.444865    83A1     8.573817  
      36A2     8.573817    58B2     8.595123    58B1     8.595123  
      84A1     8.676888    85A1     8.717121    37A2     8.717121  
      59B2     8.719182    59B1     8.719182    38A2     9.033485  
      86A1     9.033485    60B2     9.189376    60B1     9.189376  
      61B2     9.340514    61B1     9.340514    87A1     9.371829  
      39A2     9.371829    88A1     9.382590    62B2     9.875981  
      62B1     9.875981    89A1     9.976314    40A2     9.976314  
      63B2    10.057365    63B1    10.057365    90A1    10.127615  
      91A1    10.378172    41A2    10.378172    64B2    10.518298  
      64B1    10.518298    42A2    10.907377    92A1    10.907377  
      93A1    11.004294    65B2    11.361336    65B1    11.361336  
      94A1    11.387637    95A1    11.568483    66B2    11.588365  
      66B1    11.588365    96A1    12.024144    43A2    12.024144  
      97A1    12.462602    44A2    12.462602    67B1    12.539185  
      67B2    12.539185    98A1    12.723578    45A2    12.723578  
      99A1    12.729014    68B2    12.769698    68B1    12.769698  
     100A1    12.958002    46A2    12.958002    69B2    13.530867  
      69B1    13.530867   101A1    13.621536    70B2    13.644767  
      70B1    13.644767    71B2    13.899975    71B1    13.899975  
     102A1    13.939352    47A2    13.939352    72B2    14.328645  
      72B1    14.328645    73B1    14.506506    73B2    14.506506  
      48A2    14.575710   103A1    14.575710    74B1    14.634353  
      74B2    14.634353   104A1    14.667019    49A2    14.667019  
     105A1    14.883752    75B1    14.964109    75B2    14.964109  
     106A1    15.144410    76B2    15.505119    76B1    15.505119  
     107A1    16.433964    50A2    16.433964   108A1    16.569730  
      51A2    16.816923   109A1    16.816923    77B2    17.240254  
      77B1    17.240254    52A2    17.345975   110A1    17.345975  
     111A1    17.418526    78B1    17.483543    78B2    17.483543  
      79B2    17.552972    79B1    17.552972    53A2    18.134515  
     112A1    18.134515   113A1    18.171762    54A2    18.171762  
      80B2    18.403625    80B1    18.403625   114A1    18.564457  
      81B2    18.636714    81B1    18.636714    82B2    19.227244  
      82B1    19.227244   115A1    19.505201    55A2    19.505201  
     116A1    19.580694    83B2    19.822011    83B1    19.822011  
     117A1    20.230359    84B2    20.275513    84B1    20.275513  
     118A1    20.438909    56A2    20.438909    57A2    20.488736  
     119A1    20.488736    85B2    20.725953    85B1    20.725953  
     120A1    21.055991   121A1    21.085337    58A2    21.085337  
      86B2    21.469425    86B1    21.469425    87B2    21.575734  
      87B1    21.575734   122A1    21.939947    88B2    22.139362  
      88B1    22.139362   123A1    22.942024    59A2    22.942024  
     124A1    23.145325   125A1    24.039070    60A2    24.039070  
      89B2    24.732713    89B1    24.732713    90B2    25.065549  
      90B1    25.065549   126A1    25.444500    61A2    25.444500  
     127A1    26.039078    91B2    26.297928    91B1    26.297928  
     128A1    26.958992   129A1    28.889352    62A2    28.889352  
      92B2    31.116465    92B1    31.116465   130A1    31.932447  
     131A1    60.321326   132A1    82.145055  

    Beta Occupied:                                                        

       1A1   -15.635324     2A1   -11.302936     3A1    -1.248061  
       4A1    -0.623579     1B1    -0.538967     1B2    -0.538967  

    Beta Virtual:                                                         

       5A1    -0.036738     6A1     0.046259     2B2     0.046557  
       2B1     0.046557     7A1     0.054668     3B2     0.092386  
       3B1     0.092386     8A1     0.095360     4B2     0.155742  
       4B1     0.155742     9A1     0.157760     1A2     0.181596  
      10A1     0.181596    11A1     0.211917     5B2     0.214712  
       5B1     0.214712    12A1     0.234177     6B2     0.261066  
       6B1     0.261066    13A1     0.300155     2A2     0.308356  
      14A1     0.308356     7B2     0.356948     7B1     0.356948  
      15A1     0.384552     8B2     0.466803     8B1     0.466803  
       9B2     0.466873     9B1     0.466873    16A1     0.492196  
      17A1     0.520141    10B2     0.521193    10B1     0.521193  
       3A2     0.530545    18A1     0.530545    19A1     0.599530  
       4A2     0.600726    20A1     0.600726    11B2     0.669492  
      11B1     0.669492    21A1     0.690961    12B2     0.697791  
      12B1     0.697791     5A2     0.720015    22A1     0.720015  
      23A1     0.779024    13B2     0.786795    13B1     0.786795  
      24A1     0.857292    14B2     0.867166    14B1     0.867166  
      25A1     1.026109     6A2     1.029013    26A1     1.029013  
      15B2     1.066733    15B1     1.066733    27A1     1.104518  
      28A1     1.239624     7A2     1.239624    16B2     1.285745  
      16B1     1.285745    17B2     1.320206    17B1     1.320206  
      29A1     1.334250    30A1     1.354036     8A2     1.354036  
      18B2     1.362230    18B1     1.362230    19B2     1.365927  
      19B1     1.365927    31A1     1.370208    32A1     1.412021  
       9A2     1.412021    33A1     1.525908    20B2     1.551903  
      20B1     1.551903    34A1     1.609608    10A2     1.609608  
      35A1     1.618554    36A1     1.731119    11A2     1.759889  
      37A1     1.759889    21B2     1.763682    21B1     1.763682  
      22B2     1.805608    22B1     1.805608    38A1     1.912676  
      12A2     1.912676    23B2     1.922677    23B1     1.922677  
      39A1     1.953437    13A2     2.103378    40A1     2.103378  
      24B2     2.156088    24B1     2.156088    25B2     2.157310  
      25B1     2.157310    41A1     2.331222    42A1     2.399508  
      26B2     2.460255    26B1     2.460255    27B1     2.595306  
      27B2     2.595306    28B1     2.630607    28B2     2.630607  
      43A1     2.651375    44A1     2.699835    14A2     2.699835  
      15A2     2.817241    45A1     2.817241    46A1     2.860347  
      29B2     3.008229    29B1     3.008229    47A1     3.011666  
      16A2     3.011666    30B2     3.012010    30B1     3.012010  
      48A1     3.067136    31B1     3.071782    31B2     3.071782  
      32B2     3.079563    32B1     3.079563    17A2     3.192880  
      49A1     3.192880    50A1     3.276832    18A2     3.278500  
      51A1     3.278500    52A1     3.356875    19A2     3.356875  
      53A1     3.492158    33B2     3.526423    33B1     3.526423  
      34B1     3.539039    34B2     3.539039    35B1     3.571593  
      35B2     3.571593    54A1     3.810637    55A1     3.901302  
      20A2     3.901302    36B2     3.914076    36B1     3.914076  
      56A1     4.043285    21A2     4.043285    37B1     4.090138  
      37B2     4.090138    57A1     4.186509    38B2     4.193685  
      38B1     4.193685    58A1     4.281132    22A2     4.281132  
      59A1     4.326126    39B2     4.372823    39B1     4.372823  
      40B2     4.399306    40B1     4.399306    23A2     4.454464  
      60A1     4.454464    41B2     4.739267    41B1     4.739267  
      61A1     4.897539    24A2     4.897539    62A1     5.060550  
      42B2     5.179047    42B1     5.179047    63A1     5.197280  
      64A1     5.220352    65A1     5.238612    25A2     5.238612  
      26A2     5.304722    66A1     5.304722    67A1     5.463141  
      43B1     5.487596    43B2     5.487596    44B1     5.501308  
      44B2     5.501308    45B2     5.775281    45B1     5.775281  
      68A1     6.085179    27A2     6.085179    69A1     6.114596  
      28A2     6.114596    46B1     6.162838    46B2     6.162838  
      70A1     6.184812    47B2     6.255361    47B1     6.255361  
      48B2     6.279240    48B1     6.279240    71A1     6.288472  
      29A2     6.288472    30A2     6.355088    72A1     6.355088  
      49B2     6.596141    49B1     6.596141    50B1     6.638350  
      50B2     6.638350    73A1     6.673180    74A1     6.812195  
      31A2     6.812195    51B2     6.924991    51B1     6.924991  
      75A1     7.152159    52B2     7.191086    52B1     7.191086  
      32A2     7.271494    76A1     7.271494    33A2     7.335672  
      77A1     7.335672    53B2     7.375914    53B1     7.375914  
      78A1     7.407746    79A1     7.603436    34A2     7.603436  
      54B2     7.632958    54B1     7.632958    80A1     7.709565  
      35A2     7.709565    81A1     7.751799    55B1     7.775505  
      55B2     7.775505    56B2     7.840642    56B1     7.840642  
      82A1     8.223511    57B1     8.428945    57B2     8.428945  
      83A1     8.567001    36A2     8.567001    58B2     8.599291  
      58B1     8.599291    84A1     8.677906    59B2     8.717087  
      59B1     8.717087    85A1     8.719188    37A2     8.719188  
      38A2     9.027138    86A1     9.027138    60B2     9.196511  
      60B1     9.196511    61B2     9.314546    61B1     9.314546  
      87A1     9.377151    39A2     9.377151    88A1     9.378344  
      62B2     9.895084    62B1     9.895084    89A1     9.975478  
      40A2     9.975478    63B2    10.062202    63B1    10.062202  
      90A1    10.144899    91A1    10.351566    41A2    10.351566  
      64B1    10.505684    64B2    10.505684    42A2    10.890048  
      92A1    10.890048    93A1    11.013476    65B2    11.354590  
      65B1    11.354590    94A1    11.390889    95A1    11.573101  
      66B2    11.576966    66B1    11.576966    96A1    12.025662  
      43A2    12.025662    97A1    12.481502    44A2    12.481502  
      67B1    12.557200    67B2    12.557200    98A1    12.706175  
      45A2    12.706175    99A1    12.750791    68B2    12.774620  
      68B1    12.774620   100A1    12.973507    46A2    12.973507  
      69B2    13.550080    69B1    13.550080   101A1    13.642319  
      70B2    13.659018    70B1    13.659018    71B2    13.910554  
      71B1    13.910554   102A1    13.950078    47A2    13.950078  
      72B2    14.347133    72B1    14.347133    73B1    14.532460  
      73B2    14.532460    48A2    14.601842   103A1    14.601842  
      74B1    14.665140    74B2    14.665140   104A1    14.692525  
      49A2    14.692525   105A1    14.912542    75B1    14.987459  
      75B2    14.987459   106A1    15.155073    76B2    15.521139  
      76B1    15.521139   107A1    16.456197    50A2    16.456197  
     108A1    16.584014    51A2    16.846287   109A1    16.846287  
      77B2    17.260672    77B1    17.260672    52A2    17.329248  
     110A1    17.329248   111A1    17.423310    78B1    17.509667  
      78B2    17.509667    79B2    17.539834    79B1    17.539834  
      53A2    18.125278   112A1    18.125278   113A1    18.195221  
      54A2    18.195221    80B2    18.402355    80B1    18.402355  
     114A1    18.575790    81B2    18.631395    81B1    18.631395  
      82B2    19.237864    82B1    19.237864   115A1    19.505511  
      55A2    19.505511   116A1    19.591402    83B2    19.811678  
      83B1    19.811678   117A1    20.233020    84B2    20.252193  
      84B1    20.252193   118A1    20.446274    56A2    20.446274  
      57A2    20.470911   119A1    20.470911    85B2    20.707582  
      85B1    20.707582   120A1    21.049282   121A1    21.085984  
      58A2    21.085984    86B2    21.466043    86B1    21.466043  
      87B2    21.551095    87B1    21.551095   122A1    21.933132  
      88B2    22.152874    88B1    22.152874   123A1    22.928413  
      59A2    22.928413   124A1    23.154833   125A1    24.011860  
      60A2    24.011860    89B2    24.713588    89B1    24.713588  
      90B2    25.058324    90B1    25.058324   126A1    25.431120  
      61A2    25.431120   127A1    26.035733    91B2    26.288686  
      91B1    26.288686   128A1    26.960632   129A1    28.865709  
      62A2    28.865709    92B2    31.107170    92B1    31.107170  
     130A1    31.927775   131A1    60.342452   132A1    82.138177  

    Final Occupation by Irrep:
             A1    A2    B1    B2 
    DOCC [     4,    0,    1,    1 ]
    SOCC [     1,    0,    0,    0 ]

  @UHF Final Energy:   -92.24030063362284

   => Energetics <=

    Nuclear Repulsion Energy =             18.6306468180101099
    One-Electron Energy =                -161.3144873235493151
    Two-Electron Energy =                  50.4435398719163501
    Total Energy =                        -92.2403006336228373

  UHF NO Occupations:
  HONO-2 :    1 B2 1.8683875
  HONO-1 :    1 B1 1.8683875
  HONO-0 :    5 A1 1.0000000
  LUNO+0 :    2 B1 0.1316125
  LUNO+1 :    2 B2 0.1316125
  LUNO+2 :    6 A1 0.0021068
  LUNO+3 :    7 A1 0.0006845


Computation Completed


Properties will be evaluated at   0.000000,   0.000000,   0.000000 [a0]

Properties computed using the SCF density matrix

  Nuclear Dipole Moment: [e a0]
     X:     0.0000      Y:     0.0000      Z:     0.0016

  Electronic Dipole Moment: [e a0]
     X:     0.0000      Y:     0.0000      Z:     0.8399

  Dipole Moment: [e a0]
     X:     0.0000      Y:     0.0000      Z:     0.8415     Total:     0.8415

  Dipole Moment: [D]
     X:     0.0000      Y:     0.0000      Z:     2.1389     Total:     2.1389


*** tstop() called on n412-015.vsc4.prov at Fri Jan 22 14:47:57 2021
Module time:
	user time   =     674.70 seconds =      11.25 minutes
	system time =      72.22 seconds =       1.20 minutes
	total time  =        956 seconds =      15.93 minutes
Total time:
	user time   =     674.70 seconds =      11.25 minutes
	system time =      72.22 seconds =       1.20 minutes
	total time  =        956 seconds =      15.93 minutes

*** tstart() called on n412-015.vsc4.prov
*** at Fri Jan 22 14:47:57 2021


	Wfn Parameters:
	--------------------
	Wavefunction         = CCSD_T
	Number of irreps     = 4
	Number of MOs        = 378
	Number of active MOs = 376
	AO-Basis             = NONE
	Semicanonical        = false
	Reference            = UHF
	Print Level          = 1

	IRREP	# MOs	# FZDC	# DOCC	# SOCC	# VIRT	# FZVR
	-----	-----	------	------	------	------	------
	 A1	   132	    2	    2	    1	    127	    0
	 A2	   62	    0	    0	    0	    62	    0
	 B1	   92	    0	    1	    0	    91	    0
	 B2	   92	    0	    1	    0	    91	    0
	Transforming integrals...
	IWL integrals will be deleted.
	(OO|OO)...
	Presorting SO-basis two-electron integrals.
	Sorting File: SO Ints (nn|nn) nbuckets = 1
	Constructing frozen core operators
	Starting AA/AB first half-transformation.
	Sorting AA/AB half-transformed integrals.
	Starting BB first half-transformation.
	Sorting BB half-transformed integrals.
	First half integral transformation complete.
	Starting AA second half-transformation.
	Starting AB second half-transformation.
	Starting BB second half-transformation.
	Two-electron integral transformation complete.
	(OO|OV)...
	Starting AA second half-transformation.
	Starting AB second half-transformation.
	Starting BB second half-transformation.
	Two-electron integral transformation complete.
	(OO|VV)...
	Starting AA second half-transformation.
	Starting AB second half-transformation.
	Starting BB second half-transformation.
	Two-electron integral transformation complete.
	(OV|OO)...
	Starting AA/AB first half-transformation.
	Sorting AA/AB half-transformed integrals.
	Starting BB first half-transformation.
	Sorting BB half-transformed integrals.
	First half integral transformation complete.
	Starting AA second half-transformation.
	Starting AB second half-transformation.
	Starting BB second half-transformation.
	Two-electron integral transformation complete.
	(OV|OV)...
	Starting AA second half-transformation.
	Starting AB second half-transformation.
	Starting BB second half-transformation.
	Two-electron integral transformation complete.
	(OV|VV)...
	Starting AA second half-transformation.
	Starting AB second half-transformation.
	Starting BB second half-transformation.
	Two-electron integral transformation complete.
	(VV|OO)...
	Starting AA/AB first half-transformation.
	Sorting AA/AB half-transformed integrals.
	Starting BB first half-transformation.
	Sorting BB half-transformed integrals.
	First half integral transformation complete.
	Starting AA second half-transformation.
	Starting AB second half-transformation.
	Starting BB second half-transformation.
	Two-electron integral transformation complete.
	(VV|OV)...
	Starting AA second half-transformation.
	Starting AB second half-transformation.
	Starting BB second half-transformation.
	Two-electron integral transformation complete.
	(VV|VV)...
	Starting AA second half-transformation.
	Starting AB second half-transformation.
	Starting BB second half-transformation.
	Two-electron integral transformation complete.
	Frozen core energy     =    -86.85197536934788

	Size of irrep 0 of <AB|CD> integrals:    326.959 (MW) /   2615.670 (MB)
	Size of irrep 1 of <AB|CD> integrals:    260.984 (MW) /   2087.872 (MB)
	Size of irrep 2 of <AB|CD> integrals:    295.806 (MW) /   2366.445 (MB)
	Size of irrep 3 of <AB|CD> integrals:    295.806 (MW) /   2366.445 (MB)
	Total:                                  1179.554 (MW) /   9436.432 (MB)

	Size of irrep 0 of <ab|cd> integrals:    331.568 (MW) /   2652.541 (MB)
	Size of irrep 1 of <ab|cd> integrals:    262.991 (MW) /   2103.929 (MB)
	Size of irrep 2 of <ab|cd> integrals:    298.944 (MW) /   2391.553 (MB)
	Size of irrep 3 of <ab|cd> integrals:    298.944 (MW) /   2391.553 (MB)
	Total:                                  1192.447 (MW) /   9539.576 (MB)

	Size of irrep 0 of <Ab|Cd> integrals:   1344.102 (MW) /  10752.818 (MB)
	Size of irrep 1 of <Ab|Cd> integrals:   1047.946 (MW) /   8383.571 (MB)
	Size of irrep 2 of <Ab|Cd> integrals:   1189.491 (MW) /   9515.929 (MB)
	Size of irrep 3 of <Ab|Cd> integrals:   1189.491 (MW) /   9515.929 (MB)
	Total:                                  4771.031 (MW) /  38168.247 (MB)

	Size of irrep 0 of <IA|BC> integrals:     20.569 (MW) /    164.554 (MB)
	Size of irrep 1 of <IA|BC> integrals:     11.890 (MW) /     95.121 (MB)
	Size of irrep 2 of <IA|BC> integrals:     15.892 (MW) /    127.135 (MB)
	Size of irrep 3 of <IA|BC> integrals:     15.892 (MW) /    127.135 (MB)
	Total:                                    64.243 (MW) /    513.944 (MB)

	Size of irrep 0 of <ia|bc> integrals:     16.114 (MW) /    128.912 (MB)
	Size of irrep 1 of <ia|bc> integrals:      9.925 (MW) /     79.398 (MB)
	Size of irrep 2 of <ia|bc> integrals:     12.864 (MW) /    102.910 (MB)
	Size of irrep 3 of <ia|bc> integrals:     12.864 (MW) /    102.910 (MB)
	Total:                                    51.766 (MW) /    414.131 (MB)

	Size of irrep 0 of <Ia|Bc> integrals:     20.751 (MW) /    166.006 (MB)
	Size of irrep 1 of <Ia|Bc> integrals:     11.913 (MW) /     95.303 (MB)
	Size of irrep 2 of <Ia|Bc> integrals:     15.968 (MW) /    127.747 (MB)
	Size of irrep 3 of <Ia|Bc> integrals:     15.968 (MW) /    127.747 (MB)
	Total:                                    64.600 (MW) /    516.803 (MB)

	Size of irrep 0 of <iA|bC> integrals:     15.985 (MW) /    127.877 (MB)
	Size of irrep 1 of <iA|bC> integrals:      9.906 (MW) /     79.247 (MB)
	Size of irrep 2 of <iA|bC> integrals:     12.795 (MW) /    102.363 (MB)
	Size of irrep 3 of <iA|bC> integrals:     12.795 (MW) /    102.363 (MB)
	Total:                                    51.481 (MW) /    411.850 (MB)

	Size of irrep 0 of tIjAb amplitudes:       0.293 (MW) /      2.346 (MB)
	Size of irrep 1 of tIjAb amplitudes:       0.065 (MW) /      0.518 (MB)
	Size of irrep 2 of tIjAb amplitudes:       0.172 (MW) /      1.380 (MB)
	Size of irrep 3 of tIjAb amplitudes:       0.172 (MW) /      1.380 (MB)
	Total:                                     0.703 (MW) /      5.623 (MB)

	Nuclear Rep. energy          =     18.63064681801011
	SCF energy                   =    -92.24030063362284
	One-electron energy          =    -41.51609164574268
	Two-electron (AA) energy     =      4.25307695245223
	Two-electron (BB) energy     =      3.04444331830859
	Two-electron (AB) energy     =     10.19959929269690
	Two-electron energy          =     17.49711956345772
	Reference energy             =    -92.24030063362274

*** tstop() called on n412-015.vsc4.prov at Fri Jan 22 15:12:07 2021
Module time:
	user time   =     599.21 seconds =       9.99 minutes
	system time =     313.17 seconds =       5.22 minutes
	total time  =       1450 seconds =      24.17 minutes
Total time:
	user time   =    1273.91 seconds =      21.23 minutes
	system time =     385.39 seconds =       6.42 minutes
	total time  =       2406 seconds =      40.10 minutes
            **************************
            *                        *
            *        CCENERGY        *
            *                        *
            **************************

    Nuclear Rep. energy (wfn)     =   18.630646818010110
    SCF energy          (wfn)     =  -92.240300633622837
    Reference energy    (file100) =  -92.240300633622738

    Input parameters:
    -----------------
    Wave function   =     CCSD_T
    Reference wfn   =     UHF
    Brueckner       =     No
    Memory (Mbytes) =     250000.0
    Maxiter         =     50
    R_Convergence   =     1.0e-07
    E_Convergence   =     1.0e-06
    Restart         =     Yes
    DIIS            =     Yes
    AO Basis        =     NONE
    ABCD            =     NEW
    Cache Level     =     2
    Cache Type      =     LRU
    Print Level     =     1
    Num. of threads =     1
    # Amps to Print =     10
    Print MP2 Amps? =     No
    Analyze T2 Amps =     No
    Print Pair Ener =     No
    Local CC        =     No
    SCS-MP2         =     False
    SCSN-MP2        =     False
    SCS-CCSD        =     False

MP2 correlation energy -0.3004321992887632
                Solving CC Amplitude Equations
                ------------------------------
  Iter             Energy              RMS        T1Diag      D1Diag    New D1Diag    D2Diag
  ----     ---------------------    ---------   ----------  ----------  ----------   --------
     0        -0.300432199288763    0.000e+00    0.000000    0.000000    0.000000    0.000000
     1        -0.295753415088661    1.246e-01    0.038393    0.000000    0.000000    0.000000
     2        -0.315500883881849    6.348e-02    0.056786    0.000000    0.000000    0.000000
     3        -0.332314678887912    5.548e-02    0.104233    0.000000    0.000000    0.000000
     4        -0.335647449090928    2.270e-02    0.125671    0.000000    0.000000    0.000000
     5        -0.336367380112331    1.278e-02    0.131060    0.000000    0.000000    0.000000
     6        -0.337307856645336    8.029e-03    0.134333    0.000000    0.000000    0.000000
     7        -0.337382167682277    4.486e-03    0.135879    0.000000    0.000000    0.000000
     8        -0.337509117258297    2.029e-03    0.136708    0.000000    0.000000    0.000000
     9        -0.337605913353312    9.469e-04    0.137115    0.000000    0.000000    0.000000
    10        -0.337596714817642    4.991e-04    0.137284    0.000000    0.000000    0.000000
    11        -0.337590938904601    2.078e-04    0.137254    0.000000    0.000000    0.000000
    12        -0.337582801013684    7.832e-05    0.137253    0.000000    0.000000    0.000000
    13        -0.337587051905711    3.473e-05    0.137271    0.000000    0.000000    0.000000
    14        -0.337588956540900    1.533e-05    0.137274    0.000000    0.000000    0.000000
    15        -0.337589742011015    4.392e-06    0.137277    0.000000    0.000000    0.000000
    16        -0.337589977896985    1.483e-06    0.137278    0.000000    0.000000    0.000000
    17        -0.337590023674483    6.345e-07    0.137279    0.000000    0.000000    0.000000
    18        -0.337590037760305    1.729e-07    0.137279    0.000000    0.000000    0.000000
    19        -0.337590037636506    6.352e-08    0.137279    0.000000    0.000000    0.000000

    Iterations converged.


    Largest TIA Amplitudes:
              3 191        -0.1416140373
              4 282        -0.1416140373
              4 284        -0.0665427176
              3 193        -0.0665427176
              3 194        -0.0554713080
              4 285        -0.0554713080
              3 190        -0.0505401053
              4 281        -0.0505401053
              4 287         0.0370955952
              3 196         0.0370955951

    Largest Tia Amplitudes:
              1   0         0.2012902743
              2 192         0.0971833988
              3 283         0.0971833988
              2 194         0.0802730714
              3 285         0.0802730714
              1   2        -0.0772459629
              3 286         0.0658749075
              2 195         0.0658749075
              1   7         0.0551085094
              3 284         0.0332289920

    Largest TIJAB Amplitudes:
      4   3 282 191        -0.0256345936
      4   3 284 191        -0.0131433685
      4   3 282 193        -0.0131433685
      4   3 282 194        -0.0128238341
      4   3 285 191        -0.0128238341
      3   2 191  18        -0.0097198786
      4   2 282  18        -0.0097198786
      4   3 282 190        -0.0093884593
      4   3 281 191        -0.0093884593
      3   2 191  21        -0.0089752668

    Largest Tijab Amplitudes:
      2   1 192   0        -0.0175482620
      3   1 283   0        -0.0175482620
      3   2 283 192        -0.0165178063
      2   1 195   0        -0.0128668635
      3   1 286   0        -0.0128668635
      3   2 283 195        -0.0126094568
      3   2 286 192        -0.0126094568
      2   1 194   0        -0.0117342732
      3   1 285   0        -0.0117342732
      3   2 283 194        -0.0114490170

    Largest TIjAb Amplitudes:
      3   1 191   0        -0.0557655962
      4   1 282   0        -0.0557655962
      3   2 191 192        -0.0546745327
      4   3 282 283        -0.0546745327
      3   2 191 194        -0.0442263793
      4   3 282 285        -0.0442263793
      4   3 282 286        -0.0427535721
      3   2 191 195        -0.0427535721
      1   2 191   0         0.0375702361
      1   3 282   0         0.0375702361

    SCF energy       (wfn)                    =  -92.240300633622837
    Reference energy (file100)                =  -92.240300633622738

    Opposite-spin MP2 correlation energy      =   -0.220391482642835
    Same-spin MP2 correlation energy          =   -0.080040716645928
    Singles MP2 correlation energy            =   -0.000000000000000
    MP2 correlation energy                    =   -0.300432199288763
      * MP2 total energy                      =  -92.540732832911502

    Opposite-spin CCSD correlation energy     =   -0.273384158388524
    Same-spin CCSD correlation energy         =   -0.064205879249377
    Singles CCSD correlation energy           =    0.000000000001394
    CCSD correlation energy                   =   -0.337590037636506
      * CCSD total energy                     =  -92.577890671259240

            **************************
            *                        *
            *        CCTRIPLES       *
            *                        *
            **************************


    Wave function   =    CCSD_T
    Reference wfn   =      UHF

    Nuclear Rep. energy (wfn)                =   18.630646818010110
    SCF energy          (wfn)                =  -92.240300633622837
    Reference energy    (file100)            =  -92.240300633622738
    CCSD energy         (file100)            =   -0.337590037636506
    Total CCSD energy   (file100)            =  -92.577890671259240

    Number of ijk index combinations:
    Spin Case AAA:                                  10
    Spin Case BBB:                                   4
    Spin Case AAB:                                  40
    Spin Case ABB:                                  30
    AAA (T) energy                             =   -0.000358259850139
    BBB (T) energy                             =   -0.000209840699677
    AAB (T) energy                             =   -0.011509215022599
    ABB (T) energy                             =   -0.009455551321487
    (T) energy                                   =   -0.021532866893902
      * CCSD(T) total energy                     =  -92.599423538153147


    Psi4 stopped on: Friday, 22 January 2021 03:50PM
    Psi4 wall time for execution: 1:17:59.67

*** Psi4 exiting successfully. Buy a developer a beer!
