
    -----------------------------------------------------------------------
          Psi4: An Open-Source Ab Initio Electronic Structure Package
                               Psi4 1.2a1.dev938 

                         Git: Rev {HEAD} fc51d9a dirty


    R. M. Parrish, L. A. Burns, D. G. A. Smith, A. C. Simmonett,
    A. E. DePrince III, E. G. Hohenstein, U. Bozkaya, A. Yu. Sokolov,
    R. Di Remigio, R. M. Richard, J. F. Gonthier, A. M. James,
    H. R. McAlexander, A. Kumar, M. Saitow, X. Wang, B. P. Pritchard,
    P. Verma, H. F. Schaefer III, K. Patkowski, R. A. King, E. F. Valeev,
    F. A. Evangelista, J. M. Turney, T. D. Crawford, and C. D. Sherrill,
    J. Chem. Theory Comput. 13(7) pp 3185--3197 (2017).
    (doi: 10.1021/acs.jctc.7b00174)

    -----------------------------------------------------------------------


    Psi4 started on: Thursday, 20 August 2020 07:55PM

    Process ID: 422818
    PSIDATADIR: /home/irmler/Programs/psi4/beforeGrueneis3/stage/usr/local/psi4/share/psi4
    Memory:     500.0 MiB
    Threads:    4
    
  ==> Input File <==

--------------------------------------------------------------------------
# Any line starting with the # character is a comment line
memory 250000 mb
molecule molecule{
0 3
S          0.0000000000        0.0000000000        0.9552576298
S          0.0000000000        0.0000000000       -0.9552576298
}

set {
  reference uhf
  basis aug-cc-pv(d+d)z
  scf_type OUT_OF_CORE
  freeze_core true
}

energy('ccsd')
--------------------------------------------------------------------------

  Memory set to 232.831 GiB by Python driver.

*** tstart() called on cqc05
*** at Thu Aug 20 19:55:30 2020

   => Loading Basis Set <=

    Name: AUG-CC-PV(D+D)Z
    Role: ORBITAL
    Keyword: BASIS
    atoms 1-2 entry S          line   724 file /home/irmler/Programs/psi4/beforeGrueneis3/stage/usr/local/psi4/share/psi4/basis/aug-cc-pv_dpd_z.gbs 


         ---------------------------------------------------------
                                   SCF
            by Justin Turney, Rob Parrish, Andy Simmonett
                             and Daniel Smith
                              UHF Reference
                        4 Threads, 238418 MiB Core
         ---------------------------------------------------------

  ==> Geometry <==

    Molecular point group: d2h
    Full point group: D_inf_h

    Geometry (in Angstrom), charge = 0, multiplicity = 3:

       Center              X                  Y                   Z               Mass       
    ------------   -----------------  -----------------  -----------------  -----------------
           S          0.000000000000     0.000000000000     0.955257629800    31.972070999000
           S          0.000000000000     0.000000000000    -0.955257629800    31.972070999000

  Running in d2h symmetry.

  Rotational constants: A = ************  B =      0.28890  C =      0.28890 [cm^-1]
  Rotational constants: A = ************  B =   8661.14683  C =   8661.14683 [MHz]
  Nuclear repulsion =   70.907240713378528

  Charge       = 0
  Multiplicity = 3
  Electrons    = 32
  Nalpha       = 17
  Nbeta        = 15

  ==> Algorithm <==

  SCF Algorithm Type is OUT_OF_CORE.
  DIIS enabled.
  MOM disabled.
  Fractional occupation disabled.
  Guess Type is GWH.
  Energy threshold   = 1.00e-08
  Density threshold  = 1.00e-08
  Integral threshold = 0.00e+00

  ==> Primary Basis <==

  Basis Set: AUG-CC-PV(D+D)Z
    Blend: AUG-CC-PV(D+D)Z
    Number of shells: 24
    Number of basis function: 64
    Number of Cartesian functions: 70
    Spherical Harmonics?: true
    Max angular momentum: 2

  ==> Pre-Iterations <==

   -------------------------------------------------------
    Irrep   Nso     Nmo     Nalpha   Nbeta   Ndocc  Nsocc
   -------------------------------------------------------
     Ag        15      15       0       0       0       0
     B1g        3       3       0       0       0       0
     B2g        7       7       0       0       0       0
     B3g        7       7       0       0       0       0
     Au         3       3       0       0       0       0
     B1u       15      15       0       0       0       0
     B2u        7       7       0       0       0       0
     B3u        7       7       0       0       0       0
   -------------------------------------------------------
    Total      64      64      17      15      15       2
   -------------------------------------------------------

  ==> Integral Setup <==

  ==> DiskJK: Disk-Based J/K Matrices <==

    J tasked:                  Yes
    K tasked:                  Yes
    wK tasked:                  No
    Memory (MB):            178813
    Schwarz Cutoff:          1E-12

  Minimum eigenvalue in the overlap matrix is 1.2198360719E-03.
  Using Symmetric Orthogonalization.

  SCF Guess: Generalized Wolfsberg-Helmholtz.

  ==> Iterations <==

                        Total Energy        Delta E     RMS |[F,P]|

    Occupation by irrep:
             Ag   B1g   B2g   B3g    Au   B1u   B2u   B3u 
    DOCC [     5,    0,    1,    1,    0,    4,    2,    2 ]
    SOCC [     0,    0,    1,    1,    0,    0,    0,    0 ]

   @UHF iter   1:  -785.40760871021723   -7.85408e+02   2.60459e-01 
   @UHF iter   2:  -794.55672235226393   -9.14911e+00   4.94300e-02 DIIS
   @UHF iter   3:  -795.02460199625739   -4.67880e-01   1.31610e-02 DIIS
   @UHF iter   4:  -795.06778580224898   -4.31838e-02   3.42263e-03 DIIS
   @UHF iter   5:  -795.07288102862935   -5.09523e-03   1.36449e-03 DIIS
   @UHF iter   6:  -795.07401116670394   -1.13014e-03   4.87349e-04 DIIS
   @UHF iter   7:  -795.07416702795717   -1.55861e-04   1.11406e-04 DIIS
   @UHF iter   8:  -795.07417643308190   -9.40512e-06   2.60402e-05 DIIS
   @UHF iter   9:  -795.07417681184484   -3.78763e-07   5.86720e-06 DIIS
   @UHF iter  10:  -795.07417683108304   -1.92382e-08   1.12259e-06 DIIS
   @UHF iter  11:  -795.07417683184713   -7.64089e-10   1.79438e-07 DIIS
   @UHF iter  12:  -795.07417683186884   -2.17142e-11   2.86641e-08 DIIS
   @UHF iter  13:  -795.07417683186907   -2.27374e-13   5.59309e-09 DIIS

  ==> Post-Iterations <==

   @Spin Contamination Metric:   5.325106069E-02
   @S^2 Expected:                2.000000000E+00
   @S^2 Observed:                2.053251061E+00
   @S   Expected:                1.000000000E+00
   @S   Observed:                1.000000000E+00

    Orbital Energies (a.u.)
    -----------------------

    Alpha Occupied:                                                       

       1Ag   -92.024259     1B1u  -92.024257     2Ag    -9.024389  
       2B1u   -9.024122     1B2u   -6.710554     1B3u   -6.710554  
       1B3g   -6.710495     1B2g   -6.710495     3Ag    -6.701873  
       3B1u   -6.700970     4Ag    -1.114475     4B1u   -0.873432  
       5Ag    -0.538152     2B2u   -0.536062     2B3u   -0.536062  
       2B3g   -0.384100     2B2g   -0.384100  

    Alpha Virtual:                                                        

       5B1u    0.057779     6Ag     0.104575     3B2u    0.112286  
       3B3u    0.112286     7Ag     0.130396     3B3g    0.140417  
       3B2g    0.140417     6B1u    0.168962     7B1u    0.255193  
       1B1g    0.290329     8Ag     0.290329     4B3u    0.329167  
       4B2u    0.329167     9Ag     0.417463     1Au     0.423730  
       8B1u    0.423730     4B3g    0.584210     4B2g    0.584210  
       9B1u    0.616985     5B2u    0.776665     5B3u    0.776665  
      10B1u    0.847267    10Ag     0.858218     5B3g    0.877307  
       5B2g    0.877307     6B2u    0.964864     6B3u    0.964864  
      11Ag     0.969593     2B1g    1.000607    12Ag     1.000607  
       2Au     1.057978    11B1u    1.057978    13Ag     1.086036  
       6B3g    1.179108     6B2g    1.179108    12B1u    1.346430  
      13B1u    1.704963     7B2u    4.926103     7B3u    4.926103  
       3B1g    4.975912    14Ag     4.975912    15Ag     5.017227  
       3Au     5.021389    14B1u    5.021389     7B2g    5.129973  
       7B3g    5.129973    15B1u    5.198266  

    Beta Occupied:                                                        

       1Ag   -92.013153     1B1u  -92.013149     2Ag    -9.012300  
       2B1u   -9.011936     3Ag    -6.696754     3B1u   -6.695809  
       1B3u   -6.682879     1B2u   -6.682879     1B2g   -6.682783  
       1B3g   -6.682783     4Ag    -1.047026     4B1u   -0.731642  
       5Ag    -0.495530     2B3u   -0.409714     2B2u   -0.409714  

    Beta Virtual:                                                         

       2B3g    0.000043     2B2g    0.000043     5B1u    0.063974  
       6Ag     0.108088     3B3u    0.116695     3B2u    0.116695  
       7Ag     0.128147     3B2g    0.158055     3B3g    0.158055  
       6B1u    0.192769     7B1u    0.264687     1B1g    0.319963  
       8Ag     0.319963     4B3u    0.370999     4B2u    0.370999  
       9Ag     0.436515     1Au     0.482328     8B1u    0.482328  
       4B2g    0.615343     4B3g    0.615343     9B1u    0.638200  
       5B3u    0.823983     5B2u    0.823983    10B1u    0.856572  
      10Ag     0.879545     5B2g    0.923663     5B3g    0.923663  
      11Ag     0.978968     6B3u    0.988745     6B2u    0.988745  
       2B1g    1.058370    12Ag     1.058370    13Ag     1.104345  
       2Au     1.119296    11B1u    1.119296     6B2g    1.212825  
       6B3g    1.212825    12B1u    1.370815    13B1u    1.725115  
       7B3u    4.930963     7B2u    4.930963    14Ag     4.986722  
       3B1g    4.986722    15Ag     5.021721    14B1u    5.033217  
       3Au     5.033217     7B2g    5.137064     7B3g    5.137064  
      15B1u    5.203899  

    Final Occupation by Irrep:
             Ag   B1g   B2g   B3g    Au   B1u   B2u   B3u 
    DOCC [     5,    0,    1,    1,    0,    4,    2,    2 ]
    SOCC [     0,    0,    1,    1,    0,    0,    0,    0 ]

  Energy converged.

  @UHF Final Energy:  -795.07417683186907

   => Energetics <=

    Nuclear Repulsion Energy =             70.9072407133785276
    One-Electron Energy =               -1239.9864351786686711
    Two-Electron Energy =                 374.0050176334210050
    PCM Polarization Energy =               0.0000000000000000
    Total Energy =                       -795.0741768318691811

    Alert: EFP and PCM quantities not currently incorporated into SCF psivars.
  UHF NO Occupations:
  HONO-2 :    2B3u 1.9895307
  HONO-1 :    2B3g 1.0000000
  HONO-0 :    2B2g 1.0000000
  LUNO+0 :    3B3u 0.0104693
  LUNO+1 :    3B2u 0.0104693
  LUNO+2 :    5B1u 0.0033384
  LUNO+3 :    6 Ag 0.0022846



Properties will be evaluated at   0.000000,   0.000000,   0.000000 Bohr

Properties computed using the SCF density matrix

  Nuclear Dipole Moment: (a.u.)
     X:     0.0000      Y:     0.0000      Z:     0.0000

  Electronic Dipole Moment: (a.u.)
     X:     0.0000      Y:     0.0000      Z:     0.0000

  Dipole Moment: (a.u.)
     X:     0.0000      Y:     0.0000      Z:     0.0000     Total:     0.0000

  Dipole Moment: (Debye)
     X:     0.0000      Y:     0.0000      Z:     0.0000     Total:     0.0000


*** tstop() called on cqc05 at Thu Aug 20 19:55:31 2020
Module time:
	user time   =       1.25 seconds =       0.02 minutes
	system time =       0.01 seconds =       0.00 minutes
	total time  =          1 seconds =       0.02 minutes
Total time:
	user time   =       1.25 seconds =       0.02 minutes
	system time =       0.01 seconds =       0.00 minutes
	total time  =          1 seconds =       0.02 minutes

*** tstart() called on cqc05
*** at Thu Aug 20 19:55:31 2020


	Wfn Parameters:
	--------------------
	Wavefunction         = CCSD
	Number of irreps     = 8
	Number of MOs        = 64
	Number of active MOs = 54
	AO-Basis             = NONE
	Semicanonical        = false
	Reference            = UHF
	Print Level          = 1

	IRREP	# MOs	# FZDC	# DOCC	# SOCC	# VIRT	# FZVR
	-----	-----	------	------	------	------	------
	 Ag	   15	    3	    2	    0	    10	    0
	 B1g	   3	    0	    0	    0	    3	    0
	 B2g	   7	    1	    0	    1	    5	    0
	 B3g	   7	    1	    0	    1	    5	    0
	 Au	   3	    0	    0	    0	    3	    0
	 B1u	   15	    3	    1	    0	    11	    0
	 B2u	   7	    1	    1	    0	    5	    0
	 B3u	   7	    1	    1	    0	    5	    0
	Transforming integrals...
	IWL integrals will be deleted.
	(OO|OO)...
	Presorting SO-basis two-electron integrals.
	Sorting File: SO Ints (nn|nn) nbuckets = 1
	Transforming the one-electron integrals and constructing Fock matrices
	Starting AA/AB first half-transformation.
	Sorting AA/AB half-transformed integrals.
	Starting BB first half-transformation.
	Sorting BB half-transformed integrals.
	First half integral transformation complete.
	Starting AA second half-transformation.
	Starting AB second half-transformation.
	Starting BB second half-transformation.
	Two-electron integral transformation complete.
	(OO|OV)...
	Starting AA second half-transformation.
	Starting AB second half-transformation.
	Starting BB second half-transformation.
	Two-electron integral transformation complete.
	(OO|VV)...
	Starting AA second half-transformation.
	Starting AB second half-transformation.
	Starting BB second half-transformation.
	Two-electron integral transformation complete.
	(OV|OO)...
	Starting AA/AB first half-transformation.
	Sorting AA/AB half-transformed integrals.
	Starting BB first half-transformation.
	Sorting BB half-transformed integrals.
	First half integral transformation complete.
	Starting AA second half-transformation.
	Starting AB second half-transformation.
	Starting BB second half-transformation.
	Two-electron integral transformation complete.
	(OV|OV)...
	Starting AA second half-transformation.
	Starting AB second half-transformation.
	Starting BB second half-transformation.
	Two-electron integral transformation complete.
	(OV|VV)...
	Starting AA second half-transformation.
	Starting AB second half-transformation.
	Starting BB second half-transformation.
	Two-electron integral transformation complete.
	(VV|OO)...
	Starting AA/AB first half-transformation.
	Sorting AA/AB half-transformed integrals.
	Starting BB first half-transformation.
	Sorting BB half-transformed integrals.
	First half integral transformation complete.
	Starting AA second half-transformation.
	Starting AB second half-transformation.
	Starting BB second half-transformation.
	Two-electron integral transformation complete.
	(VV|OV)...
	Starting AA second half-transformation.
	Starting AB second half-transformation.
	Starting BB second half-transformation.
	Two-electron integral transformation complete.
	(VV|VV)...
	Starting AA second half-transformation.
	Starting AB second half-transformation.
	Starting BB second half-transformation.
	Two-electron integral transformation complete.
	Frozen core energy     =   -836.02902101286418

	Size of irrep 0 of <AB|CD> integrals:      0.021 (MW) /      0.171 (MB)
	Size of irrep 1 of <AB|CD> integrals:      0.013 (MW) /      0.102 (MB)
	Size of irrep 2 of <AB|CD> integrals:      0.018 (MW) /      0.146 (MB)
	Size of irrep 3 of <AB|CD> integrals:      0.018 (MW) /      0.146 (MB)
	Size of irrep 4 of <AB|CD> integrals:      0.013 (MW) /      0.102 (MB)
	Size of irrep 5 of <AB|CD> integrals:      0.029 (MW) /      0.228 (MB)
	Size of irrep 6 of <AB|CD> integrals:      0.018 (MW) /      0.146 (MB)
	Size of irrep 7 of <AB|CD> integrals:      0.018 (MW) /      0.146 (MB)
	Total:                                     0.148 (MW) /      1.187 (MB)

	Size of irrep 0 of <ab|cd> integrals:      0.024 (MW) /      0.195 (MB)
	Size of irrep 1 of <ab|cd> integrals:      0.015 (MW) /      0.123 (MB)
	Size of irrep 2 of <ab|cd> integrals:      0.022 (MW) /      0.175 (MB)
	Size of irrep 3 of <ab|cd> integrals:      0.022 (MW) /      0.175 (MB)
	Size of irrep 4 of <ab|cd> integrals:      0.015 (MW) /      0.121 (MB)
	Size of irrep 5 of <ab|cd> integrals:      0.032 (MW) /      0.256 (MB)
	Size of irrep 6 of <ab|cd> integrals:      0.022 (MW) /      0.178 (MB)
	Size of irrep 7 of <ab|cd> integrals:      0.022 (MW) /      0.178 (MB)
	Total:                                     0.175 (MW) /      1.401 (MB)

	Size of irrep 0 of <Ab|Cd> integrals:      0.122 (MW) /      0.974 (MB)
	Size of irrep 1 of <Ab|Cd> integrals:      0.056 (MW) /      0.446 (MB)
	Size of irrep 2 of <Ab|Cd> integrals:      0.080 (MW) /      0.641 (MB)
	Size of irrep 3 of <Ab|Cd> integrals:      0.080 (MW) /      0.641 (MB)
	Size of irrep 4 of <Ab|Cd> integrals:      0.056 (MW) /      0.446 (MB)
	Size of irrep 5 of <Ab|Cd> integrals:      0.121 (MW) /      0.969 (MB)
	Size of irrep 6 of <Ab|Cd> integrals:      0.081 (MW) /      0.645 (MB)
	Size of irrep 7 of <Ab|Cd> integrals:      0.081 (MW) /      0.645 (MB)
	Total:                                     0.676 (MW) /      5.406 (MB)

	Size of irrep 0 of <IA|BC> integrals:      0.017 (MW) /      0.138 (MB)
	Size of irrep 1 of <IA|BC> integrals:      0.007 (MW) /      0.052 (MB)
	Size of irrep 2 of <IA|BC> integrals:      0.011 (MW) /      0.091 (MB)
	Size of irrep 3 of <IA|BC> integrals:      0.011 (MW) /      0.091 (MB)
	Size of irrep 4 of <IA|BC> integrals:      0.007 (MW) /      0.052 (MB)
	Size of irrep 5 of <IA|BC> integrals:      0.018 (MW) /      0.141 (MB)
	Size of irrep 6 of <IA|BC> integrals:      0.011 (MW) /      0.091 (MB)
	Size of irrep 7 of <IA|BC> integrals:      0.011 (MW) /      0.091 (MB)
	Total:                                     0.093 (MW) /      0.747 (MB)

	Size of irrep 0 of <ia|bc> integrals:      0.015 (MW) /      0.118 (MB)
	Size of irrep 1 of <ia|bc> integrals:      0.005 (MW) /      0.038 (MB)
	Size of irrep 2 of <ia|bc> integrals:      0.009 (MW) /      0.073 (MB)
	Size of irrep 3 of <ia|bc> integrals:      0.009 (MW) /      0.073 (MB)
	Size of irrep 4 of <ia|bc> integrals:      0.005 (MW) /      0.041 (MB)
	Size of irrep 5 of <ia|bc> integrals:      0.016 (MW) /      0.126 (MB)
	Size of irrep 6 of <ia|bc> integrals:      0.009 (MW) /      0.069 (MB)
	Size of irrep 7 of <ia|bc> integrals:      0.009 (MW) /      0.069 (MB)
	Total:                                     0.076 (MW) /      0.609 (MB)

	Size of irrep 0 of <Ia|Bc> integrals:      0.018 (MW) /      0.148 (MB)
	Size of irrep 1 of <Ia|Bc> integrals:      0.007 (MW) /      0.059 (MB)
	Size of irrep 2 of <Ia|Bc> integrals:      0.012 (MW) /      0.100 (MB)
	Size of irrep 3 of <Ia|Bc> integrals:      0.012 (MW) /      0.100 (MB)
	Size of irrep 4 of <Ia|Bc> integrals:      0.007 (MW) /      0.059 (MB)
	Size of irrep 5 of <Ia|Bc> integrals:      0.019 (MW) /      0.150 (MB)
	Size of irrep 6 of <Ia|Bc> integrals:      0.012 (MW) /      0.098 (MB)
	Size of irrep 7 of <Ia|Bc> integrals:      0.012 (MW) /      0.098 (MB)
	Total:                                     0.101 (MW) /      0.810 (MB)

	Size of irrep 0 of <iA|bC> integrals:      0.014 (MW) /      0.114 (MB)
	Size of irrep 1 of <iA|bC> integrals:      0.004 (MW) /      0.036 (MB)
	Size of irrep 2 of <iA|bC> integrals:      0.008 (MW) /      0.066 (MB)
	Size of irrep 3 of <iA|bC> integrals:      0.008 (MW) /      0.066 (MB)
	Size of irrep 4 of <iA|bC> integrals:      0.004 (MW) /      0.036 (MB)
	Size of irrep 5 of <iA|bC> integrals:      0.015 (MW) /      0.117 (MB)
	Size of irrep 6 of <iA|bC> integrals:      0.008 (MW) /      0.064 (MB)
	Size of irrep 7 of <iA|bC> integrals:      0.008 (MW) /      0.064 (MB)
	Total:                                     0.070 (MW) /      0.562 (MB)

	Size of irrep 0 of tIjAb amplitudes:       0.002 (MW) /      0.020 (MB)
	Size of irrep 1 of tIjAb amplitudes:       0.000 (MW) /      0.004 (MB)
	Size of irrep 2 of tIjAb amplitudes:       0.001 (MW) /      0.009 (MB)
	Size of irrep 3 of tIjAb amplitudes:       0.001 (MW) /      0.009 (MB)
	Size of irrep 4 of tIjAb amplitudes:       0.000 (MW) /      0.004 (MB)
	Size of irrep 5 of tIjAb amplitudes:       0.002 (MW) /      0.017 (MB)
	Size of irrep 6 of tIjAb amplitudes:       0.001 (MW) /      0.011 (MB)
	Size of irrep 7 of tIjAb amplitudes:       0.001 (MW) /      0.011 (MB)
	Total:                                     0.011 (MW) /      0.085 (MB)

	Nuclear Rep. energy          =     70.90724071337853
	SCF energy                   =   -795.07417683186907
	One-electron energy          =    -52.44478788682245
	Two-electron (AA) energy     =      6.50583072544778
	Two-electron (BB) energy     =      3.13103931167060
	Two-electron (AB) energy     =     12.85552131732067
	Two-electron energy          =     22.49239135443905
	Reference energy             =   -795.07417683186907

*** tstop() called on cqc05 at Thu Aug 20 19:55:32 2020
Module time:
	user time   =       0.20 seconds =       0.00 minutes
	system time =       0.13 seconds =       0.00 minutes
	total time  =          1 seconds =       0.02 minutes
Total time:
	user time   =       1.45 seconds =       0.02 minutes
	system time =       0.14 seconds =       0.00 minutes
	total time  =          2 seconds =       0.03 minutes

*** tstart() called on cqc05
*** at Thu Aug 20 19:55:32 2020

            **************************
            *                        *
            *        CCENERGY        *
            *                        *
            **************************

    Nuclear Rep. energy (wfn)     =   70.907240713378528
    SCF energy          (wfn)     = -795.074176831869067
    Reference energy    (file100) = -795.074176831869067

    Input parameters:
    -----------------
    Wave function   =     CCSD
    Reference wfn   =     UHF
    Brueckner       =     No
    Memory (Mbytes) =     250000.0
    Maxiter         =     50
    R_Convergence   =     1.0e-07
    E_Convergence   =     1.0e-06
    Restart         =     Yes
    DIIS            =     Yes
    AO Basis        =     NONE
    ABCD            =     NEW
    Cache Level     =     2
    Cache Type      =     LRU
    Print Level     =     1
    Num. of threads =     4
    # Amps to Print =     10
    Print MP2 Amps? =     No
    Analyze T2 Amps =     No
    Print Pair Ener =     No
    Local CC        =     No
    SCS-MP2         =     False
    SCSN-MP2        =     False
    SCS-CCSD        =     False

MP2 correlation energy -0.2554808142136101
                Solving CC Amplitude Equations
                ------------------------------
  Iter             Energy              RMS        T1Diag      D1Diag    New D1Diag    D2Diag
  ----     ---------------------    ---------   ----------  ----------  ----------   --------
     0        -0.255480814213610    0.000e+00    0.000000    0.000000    0.000000    0.000000
     1        -0.269994933134823    7.784e-02    0.016543    0.000000    0.000000    0.000000
     2        -0.279274111039026    2.510e-02    0.020835    0.000000    0.000000    0.000000
     3        -0.280912284234815    1.039e-02    0.024285    0.000000    0.000000    0.000000
     4        -0.280855765740787    2.471e-03    0.025142    0.000000    0.000000    0.000000
     5        -0.280832983533719    5.361e-04    0.025261    0.000000    0.000000    0.000000
     6        -0.280829713593419    1.472e-04    0.025283    0.000000    0.000000    0.000000
     7        -0.280830896605006    3.438e-05    0.025283    0.000000    0.000000    0.000000
     8        -0.280831153410722    1.043e-05    0.025283    0.000000    0.000000    0.000000
     9        -0.280831130472667    3.410e-06    0.025283    0.000000    0.000000    0.000000
    10        -0.280831135720399    1.167e-06    0.025283    0.000000    0.000000    0.000000
    11        -0.280831138557813    3.200e-07    0.025283    0.000000    0.000000    0.000000
    12        -0.280831148423481    1.014e-07    0.025283    0.000000    0.000000    0.000000
    13        -0.280831148318406    2.780e-08    0.025283    0.000000    0.000000    0.000000
    13        -0.280831148318406    2.780e-08    0.025283    0.000000    0.000000    0.000000

    Iterations converged.


    CCSD corr. energy   =   -0.280831148318406
    PPL corr. energy    =    0.069771433636381
    OS PPL corr. energy =    0.053144425703074
    SS PPL corr. energy =    0.016627007933306
    Largest TIA Amplitudes:
              5  38         0.0278509632
              6  43         0.0278509396
              1   3         0.0219265283
              1   7        -0.0132571699
              1   1        -0.0117040937
              2  13         0.0116558379
              3  18         0.0116558140
              6  42         0.0083428165
              5  37         0.0083427958
              1   5         0.0082859258

    Largest Tia Amplitudes:
              3  40         0.0325803528
              4  45         0.0325803328
              2  29        -0.0290867023
              4  46        -0.0197879000
              3  41        -0.0197878869
              2  28         0.0124660873
              2  30         0.0100340676
              3  42        -0.0095640253
              4  47        -0.0095640175
              0   7        -0.0094694845

    Largest TIJAB Amplitudes:
      3   1  38  27        -0.0317064531
      2   1  43  27        -0.0317064524
      6   5  10   2         0.0274498772
      3   2  29  23         0.0247180412
      3   2  43  38         0.0230584498
      6   3  23   2         0.0202421523
      6   3  29  10        -0.0202421521
      5   2  29  10         0.0202421518
      5   2  23   2        -0.0202421517
      3   2  10   2        -0.0196510137

    Largest Tijab Amplitudes:
      4   3  19  13         0.1079070748
      3   1  29  19        -0.0512926321
      4   1  29  13        -0.0512926310
      4   3  19  14         0.0360410647
      4   3  20  13         0.0360410637
      4   3  10   2         0.0276120157
      3   1  30  19         0.0232740675
      4   1  30  13         0.0232740667
      3   1  28  19         0.0187697209
      4   1  28  13         0.0187697206

    Largest TIjAb Amplitudes:
      1   1  27  29        -0.0607898788
      1   3  27  19         0.0556651686
      1   4  27  13         0.0556651666
      3   3  38  19         0.0534212064
      2   4  43  13         0.0534212017
      2   3  43  19         0.0385175256
      3   4  38  13         0.0385175235
      1   2  38  19         0.0337673577
      1   2  43  13         0.0337673577
      5   3  38  40         0.0318461673

    SCF energy       (wfn)                    = -795.074176831869067
    Reference energy (file100)                = -795.074176831869067

    Opposite-spin MP2 correlation energy      =   -0.182567294862954
    Same-spin MP2 correlation energy          =   -0.072913519350654
    MP2 correlation energy                    =   -0.255480814213610
      * MP2 total energy                      = -795.329657646082637

    Opposite-spin CCSD correlation energy     =   -0.211180049554520
    Same-spin CCSD correlation energy         =   -0.069651099021367
    CCSD correlation energy                   =   -0.280831148318406
      * CCSD total energy                     = -795.355007980187452


*** tstop() called on cqc05 at Thu Aug 20 19:55:33 2020
Module time:
	user time   =       0.35 seconds =       0.01 minutes
	system time =       0.32 seconds =       0.01 minutes
	total time  =          1 seconds =       0.02 minutes
Total time:
	user time   =       1.80 seconds =       0.03 minutes
	system time =       0.46 seconds =       0.01 minutes
	total time  =          3 seconds =       0.05 minutes

*** Psi4 exiting successfully. Buy a developer a beer!
