
    -----------------------------------------------------------------------
          Psi4: An Open-Source Ab Initio Electronic Structure Package
                               Psi4 1.4a3.dev88 

                         Git: Rev {master} 262e345 


    D. G. A. Smith, L. A. Burns, A. C. Simmonett, R. M. Parrish,
    M. C. Schieber, R. Galvelis, P. Kraus, H. Kruse, R. Di Remigio,
    A. Alenaizan, A. M. James, S. Lehtola, J. P. Misiewicz, M. Scheurer,
    R. A. Shaw, J. B. Schriber, Y. Xie, Z. L. Glick, D. A. Sirianni,
    J. S. O'Brien, J. M. Waldrop, A. Kumar, E. G. Hohenstein,
    B. P. Pritchard, B. R. Brooks, H. F. Schaefer III, A. Yu. Sokolov,
    K. Patkowski, A. E. DePrince III, U. Bozkaya, R. A. King,
    F. A. Evangelista, J. M. Turney, T. D. Crawford, C. D. Sherrill,
    J. Chem. Phys. 152(18) 184108 (2020). https://doi.org/10.1063/5.0006002

                            Additional Code Authors
    E. T. Seidl, C. L. Janssen, E. F. Valeev, M. L. Leininger,
    J. F. Gonthier, R. M. Richard, H. R. McAlexander, M. Saitow, X. Wang,
    P. Verma, and M. H. Lechner

             Previous Authors, Complete List of Code Contributors,
                       and Citations for Specific Modules
    https://github.com/psi4/psi4/blob/master/codemeta.json
    https://github.com/psi4/psi4/graphs/contributors
    http://psicode.org/psi4manual/master/introduction.html#citing-psifour

    -----------------------------------------------------------------------


    Psi4 started on: Wednesday, 20 January 2021 07:51PM

    Process ID: 184658
    Host:       n412-037.vsc4.prov
    PSIDATADIR: /home/fs71337/gallo4/psi4/psi4/build/stage/share/psi4
    Memory:     500.0 MiB
    Threads:    48
    
  ==> Input File <==

--------------------------------------------------------------------------
# Any line starting with the # character is a comment line
memory 250000 mb
molecule molecule{
1 2
F          0.0000000000        0.0000000000        0.0504971356
H          0.0000000000        0.0000000000       -0.9518075795
}

set {
  reference uhf
  basis aug-cc-pv(q+d)z
  scf_type OUT_OF_CORE
  freeze_core true
}

energy('ccsd(t)')
--------------------------------------------------------------------------

  Memory set to 232.831 GiB by Python driver.

Scratch directory: /binfl/lv71337/airmler/temp/

*** tstart() called on n412-037.vsc4.prov
*** at Wed Jan 20 19:51:58 2021

   => Loading Basis Set <=

    Name: AUG-CC-PV(Q+D)Z
    Role: ORBITAL
    Keyword: BASIS
    atoms 1 entry F          line   511 file /home/fs71337/gallo4/psi4/psi4/build/stage/share/psi4/basis/aug-cc-pv_qpd_z.gbs 
    atoms 2 entry H          line    68 file /home/fs71337/gallo4/psi4/psi4/build/stage/share/psi4/basis/aug-cc-pv_qpd_z.gbs 


         ---------------------------------------------------------
                                   SCF
               by Justin Turney, Rob Parrish, Andy Simmonett
                          and Daniel G. A. Smith
                              UHF Reference
                       48 Threads, 238418 MiB Core
         ---------------------------------------------------------

  ==> Geometry <==

    Molecular point group: c2v
    Full point group: C_inf_v

    Geometry (in Angstrom), charge = 1, multiplicity = 2:

       Center              X                  Y                   Z               Mass       
    ------------   -----------------  -----------------  -----------------  -----------------
         F            0.000000000000     0.000000000000     0.050491665493    18.998403162730
         H            0.000000000000     0.000000000000    -0.951813049607     1.007825032230

  Running in c2v symmetry.

  Rotational constants: A = ************  B =     17.53315  C =     17.53315 [cm^-1]
  Rotational constants: A = ************  B = 525630.58784  C = 525630.58784 [MHz]
  Nuclear repulsion =    4.751643711019395

  Charge       = 1
  Multiplicity = 2
  Electrons    = 9
  Nalpha       = 5
  Nbeta        = 4

  ==> Algorithm <==

  SCF Algorithm Type is OUT_OF_CORE.
  DIIS enabled.
  MOM disabled.
  Fractional occupation disabled.
  Guess Type is SAD.
  Energy threshold   = 1.00e-08
  Density threshold  = 1.00e-08
  Integral threshold = 1.00e-12

  ==> Primary Basis <==

  Basis Set: AUG-CC-PV(Q+D)Z
    Blend: AUG-CC-PV(Q+D)Z
    Number of shells: 34
    Number of basis function: 126
    Number of Cartesian functions: 160
    Spherical Harmonics?: true
    Max angular momentum: 4

  ==> Integral Setup <==

  ==> DiskJK: Disk-Based J/K Matrices <==

    J tasked:                  Yes
    K tasked:                  Yes
    wK tasked:                  No
    Memory [MiB]:           178813
    Schwarz Cutoff:          1E-12

  Minimum eigenvalue in the overlap matrix is 1.5233664363E-04.
  Reciprocal condition number of the overlap matrix is 2.7856948444E-05.
    Using symmetric orthogonalization.

  ==> Pre-Iterations <==

  SCF Guess: Superposition of Atomic Densities via on-the-fly atomic UHF (no occupation information).


 WARNING: Atomic UHF is not converging! Try casting from a smaller basis or call Rob at CCMST.

 WARNING: Atomic UHF is not converging! Try casting from a smaller basis or call Rob at CCMST.
   -------------------------
    Irrep   Nso     Nmo    
   -------------------------
     A1        50      50 
     A2        16      16 
     B1        30      30 
     B2        30      30 
   -------------------------
    Total     126     126
   -------------------------

  ==> Iterations <==

                        Total Energy        Delta E     RMS |[F,P]|

   @UHF iter SAD:   -42.29063781402064   -4.22906e+01   0.00000e+00 
   @UHF iter   1:   -99.28210954046391   -5.69915e+01   2.15377e-02 DIIS
   @UHF iter   2:   -99.50597928740966   -2.23870e-01   6.26324e-03 DIIS
   @UHF iter   3:   -99.54340148404494   -3.74222e-02   9.48779e-04 DIIS
   @UHF iter   4:   -99.54496308160148   -1.56160e-03   2.40852e-04 DIIS
   @UHF iter   5:   -99.54518630374609   -2.23222e-04   6.10215e-05 DIIS
   @UHF iter   6:   -99.54520289695726   -1.65932e-05   2.72939e-05 DIIS
   @UHF iter   7:   -99.54520782126706   -4.92431e-06   8.28368e-06 DIIS
   @UHF iter   8:   -99.54520830279782   -4.81531e-07   1.13354e-06 DIIS
   @UHF iter   9:   -99.54520830843468   -5.63686e-09   2.79599e-07 DIIS
   @UHF iter  10:   -99.54520830873396   -2.99281e-10   3.19792e-08 DIIS
   @UHF iter  11:   -99.54520830873712   -3.15481e-12   3.86492e-09 DIIS
  Energy and wave function converged.


  ==> Post-Iterations <==

   @Spin Contamination Metric:   5.130812778E-03
   @S^2 Expected:                7.500000000E-01
   @S^2 Observed:                7.551308128E-01
   @S   Expected:                5.000000000E-01
   @S   Observed:                5.000000000E-01

    Orbital Energies [Eh]
    ---------------------

    Alpha Occupied:                                                       

       1A1   -26.964202     2A1    -2.228674     1B2    -1.365824  
       3A1    -1.330306     1B1    -1.249093  

    Alpha Virtual:                                                        

       4A1    -0.226390     5A1    -0.096365     2B2    -0.075672  
       2B1    -0.067083     6A1    -0.053226     3B2     0.011810  
       3B1     0.015314     7A1     0.020230     8A1     0.088706  
       9A1     0.251140     1A2     0.262262    10A1     0.262967  
       4B2     0.328080     4B1     0.335910    11A1     0.406688  
      12A1     0.454742     5B2     0.457975     6B2     0.464145  
       5B1     0.474259     2A2     0.478581    13A1     0.480155  
       6B1     0.486414    14A1     0.625798     7B2     0.898147  
       7B1     0.908723    15A1     1.048438    16A1     1.128916  
       8B2     1.167909     8B1     1.167911     3A2     1.347981  
      17A1     1.348621    18A1     1.365427     9B2     1.475058  
       9B1     1.484682    10B2     1.608023    19A1     1.625553  
       4A2     1.627218    10B1     1.641275    20A1     1.682321  
      11B2     1.685569    11B1     1.685616     5A2     1.739203  
      21A1     1.742967    22A1     1.868269    12B2     2.081980  
      12B1     2.102168    23A1     2.340291    13B2     2.428033  
      13B1     2.476055    24A1     2.661452     6A2     2.663310  
      25A1     2.664459    14B2     2.675656    14B1     2.691640  
      26A1     3.397971    15B2     3.961769    15B1     4.011793  
      27A1     4.117131     7A2     4.241631    28A1     4.241631  
      16B2     4.379772    16B1     4.379827    29A1     4.717291  
       8A2     4.718934    30A1     4.757971    17B2     4.895573  
      17B1     4.942899    18B2     5.020254    18B1     5.020478  
      31A1     5.130817     9A2     5.133381    32A1     5.260645  
      19B2     5.303598    19B1     5.347100    33A1     5.452542  
      10A2     5.453478    34A1     5.759042    20B2     5.980520  
      20B1     6.030375    35A1     6.103210    21B2     6.232545  
      21B1     6.232548    36A1     7.340657    11A2     7.347847  
      37A1     7.359242    22B2     7.384688    22B1     7.394746  
      38A1     7.989655    12A2     8.077732    39A1     8.077832  
      23B2     8.294736    23B1     8.307155    40A1     9.798242  
      24B2     9.804857    24B1     9.832721    41A1    11.778912  
      42A1    13.053367    13A2    13.053370    25B2    13.156402  
      25B1    13.156526    26B2    13.208590    26B1    13.298664  
      43A1    13.387258    14A2    13.389385    27B2    13.747873  
      27B1    13.810867    44A1    13.954519    45A1    14.424628  
      28B2    15.229660    28B1    15.229709    15A2    15.422094  
      46A1    15.423553    29B2    15.917476    29B1    15.987111  
      16A2    16.178614    47A1    16.178970    48A1    16.468659  
      30B2    16.768767    30B1    16.842539    49A1    18.855273  
      50A1    55.377659  

    Beta Occupied:                                                        

       1A1   -26.912071     2A1    -2.033386     3A1    -1.277392  
       1B1    -1.194800  

    Beta Virtual:                                                         

       1B2    -0.414384     4A1    -0.217895     5A1    -0.094308  
       2B1    -0.065550     6A1    -0.050572     2B2    -0.047059  
       3B2     0.012899     3B1     0.014995     7A1     0.022133  
       8A1     0.092377     9A1     0.254020     1A2     0.268821  
      10A1     0.269012     4B1     0.335116     4B2     0.337533  
      11A1     0.411151    12A1     0.460181     5B2     0.471463  
       5B1     0.473924     2A2     0.482221    13A1     0.482698  
       6B1     0.494348     6B2     0.549076    14A1     0.634551  
       7B2     0.903809     7B1     0.907517    15A1     1.055659  
      16A1     1.140763     8B1     1.170506     8B2     1.170509  
      17A1     1.365539     3A2     1.368206    18A1     1.369231  
       9B2     1.485125     9B1     1.485567    10B1     1.644662  
       4A2     1.652811    19A1     1.652974    10B2     1.656115  
      11B1     1.692672    11B2     1.692696    20A1     1.696654  
       5A2     1.755041    21A1     1.755443    22A1     1.879476  
      12B2     2.096198    12B1     2.102194    23A1     2.350716  
      13B1     2.488878    13B2     2.528908    24A1     2.669651  
       6A2     2.673909    25A1     2.676295    14B2     2.686713  
      14B1     2.691258    26A1     3.413038    15B1     4.022950  
      15B2     4.029513    27A1     4.132406     7A2     4.255121  
      28A1     4.255121    16B1     4.391653    16B2     4.391663  
      29A1     4.745916     8A2     4.746395    30A1     4.784166  
      17B2     4.943456    17B1     4.949715    18B1     5.059769  
      18B2     5.059780    31A1     5.171175     9A2     5.171396  
      32A1     5.275158    19B2     5.345991    19B1     5.353897  
      10A2     5.524688    33A1     5.525014    34A1     5.778193  
      20B2     6.038056    20B1     6.039717    35A1     6.134966  
      21B2     6.233785    21B1     6.233785    36A1     7.347365  
      11A2     7.351530    37A1     7.362821    22B2     7.388486  
      22B1     7.393598    38A1     7.993069    12A2     8.077849  
      39A1     8.077942    23B2     8.297710    23B1     8.305746  
      40A1     9.801649    24B2     9.824115    24B1     9.835434  
      41A1    11.796460    42A1    13.094729    13A2    13.094729  
      25B2    13.189213    25B1    13.189231    26B1    13.321656  
      26B2    13.326269    43A1    13.413800    14A2    13.414661  
      27B2    13.783270    27B1    13.818763    44A1    13.973188  
      45A1    14.460746    28B2    15.299378    28B1    15.299379  
      15A2    15.472239    46A1    15.472487    29B2    15.975096  
      29B1    16.000496    16A2    16.264219    47A1    16.264293  
      48A1    16.489731    30B2    16.847195    30B1    16.860773  
      49A1    18.880397    50A1    55.407585  

    Final Occupation by Irrep:
             A1    A2    B1    B2 
    DOCC [     3,    0,    1,    0 ]
    SOCC [     0,    0,    0,    1 ]

  @UHF Final Energy:   -99.54520830873712

   => Energetics <=

    Nuclear Repulsion Energy =              4.7516437110193950
    One-Electron Energy =                -144.0379571283947655
    Two-Electron Energy =                  39.7411051086382443
    Total Energy =                        -99.5452083087371307

  UHF NO Occupations:
  HONO-2 :    2 A1 1.9993590
  HONO-1 :    3 A1 1.9983185
  HONO-0 :    1 B2 1.0000000
  LUNO+0 :    4 A1 0.0016815
  LUNO+1 :    5 A1 0.0006410
  LUNO+2 :    2 B1 0.0002434
  LUNO+3 :    6 A1 0.0000012


Computation Completed


Properties will be evaluated at   0.000000,   0.000000,   0.000000 [a0]

Properties computed using the SCF density matrix

  Nuclear Dipole Moment: [e a0]
     X:     0.0000      Y:     0.0000      Z:    -0.9399

  Electronic Dipole Moment: [e a0]
     X:     0.0000      Y:     0.0000      Z:    -0.1169

  Dipole Moment: [e a0]
     X:     0.0000      Y:     0.0000      Z:    -1.0568     Total:     1.0568

  Dipole Moment: [D]
     X:     0.0000      Y:     0.0000      Z:    -2.6862     Total:     2.6862


*** tstop() called on n412-037.vsc4.prov at Wed Jan 20 19:52:08 2021
Module time:
	user time   =      45.29 seconds =       0.75 minutes
	system time =       1.61 seconds =       0.03 minutes
	total time  =         10 seconds =       0.17 minutes
Total time:
	user time   =      45.29 seconds =       0.75 minutes
	system time =       1.61 seconds =       0.03 minutes
	total time  =         10 seconds =       0.17 minutes

*** tstart() called on n412-037.vsc4.prov
*** at Wed Jan 20 19:52:08 2021


	Wfn Parameters:
	--------------------
	Wavefunction         = CCSD_T
	Number of irreps     = 4
	Number of MOs        = 126
	Number of active MOs = 125
	AO-Basis             = NONE
	Semicanonical        = false
	Reference            = UHF
	Print Level          = 1

	IRREP	# MOs	# FZDC	# DOCC	# SOCC	# VIRT	# FZVR
	-----	-----	------	------	------	------	------
	 A1	   50	    1	    2	    0	    47	    0
	 A2	   16	    0	    0	    0	    16	    0
	 B1	   30	    0	    1	    0	    29	    0
	 B2	   30	    0	    0	    1	    29	    0
	Transforming integrals...
	IWL integrals will be deleted.
	(OO|OO)...
	Presorting SO-basis two-electron integrals.
	Sorting File: SO Ints (nn|nn) nbuckets = 1
	Constructing frozen core operators
	Starting AA/AB first half-transformation.
	Sorting AA/AB half-transformed integrals.
	Starting BB first half-transformation.
	Sorting BB half-transformed integrals.
	First half integral transformation complete.
	Starting AA second half-transformation.
	Starting AB second half-transformation.
	Starting BB second half-transformation.
	Two-electron integral transformation complete.
	(OO|OV)...
	Starting AA second half-transformation.
	Starting AB second half-transformation.
	Starting BB second half-transformation.
	Two-electron integral transformation complete.
	(OO|VV)...
	Starting AA second half-transformation.
	Starting AB second half-transformation.
	Starting BB second half-transformation.
	Two-electron integral transformation complete.
	(OV|OO)...
	Starting AA/AB first half-transformation.
	Sorting AA/AB half-transformed integrals.
	Starting BB first half-transformation.
	Sorting BB half-transformed integrals.
	First half integral transformation complete.
	Starting AA second half-transformation.
	Starting AB second half-transformation.
	Starting BB second half-transformation.
	Two-electron integral transformation complete.
	(OV|OV)...
	Starting AA second half-transformation.
	Starting AB second half-transformation.
	Starting BB second half-transformation.
	Two-electron integral transformation complete.
	(OV|VV)...
	Starting AA second half-transformation.
	Starting AB second half-transformation.
	Starting BB second half-transformation.
	Two-electron integral transformation complete.
	(VV|OO)...
	Starting AA/AB first half-transformation.
	Sorting AA/AB half-transformed integrals.
	Starting BB first half-transformation.
	Sorting BB half-transformed integrals.
	First half integral transformation complete.
	Starting AA second half-transformation.
	Starting AB second half-transformation.
	Starting BB second half-transformation.
	Two-electron integral transformation complete.
	(VV|OV)...
	Starting AA second half-transformation.
	Starting AB second half-transformation.
	Starting BB second half-transformation.
	Two-electron integral transformation complete.
	(VV|VV)...
	Starting AA second half-transformation.
	Starting AB second half-transformation.
	Starting BB second half-transformation.
	Two-electron integral transformation complete.
	Frozen core energy     =    -76.53548704048342

	Size of irrep 0 of <AB|CD> integrals:      4.052 (MW) /     32.417 (MB)
	Size of irrep 1 of <AB|CD> integrals:      2.538 (MW) /     20.301 (MB)
	Size of irrep 2 of <AB|CD> integrals:      3.338 (MW) /     26.703 (MB)
	Size of irrep 3 of <AB|CD> integrals:      3.338 (MW) /     26.703 (MB)
	Total:                                    13.266 (MW) /    106.125 (MB)

	Size of irrep 0 of <ab|cd> integrals:      4.170 (MW) /     33.358 (MB)
	Size of irrep 1 of <ab|cd> integrals:      2.631 (MW) /     21.047 (MB)
	Size of irrep 2 of <ab|cd> integrals:      3.397 (MW) /     27.173 (MB)
	Size of irrep 3 of <ab|cd> integrals:      3.512 (MW) /     28.095 (MB)
	Total:                                    13.709 (MW) /    109.673 (MB)

	Size of irrep 0 of <Ab|Cd> integrals:     17.439 (MW) /    139.512 (MB)
	Size of irrep 1 of <Ab|Cd> integrals:     10.336 (MW) /     82.690 (MB)
	Size of irrep 2 of <Ab|Cd> integrals:     13.469 (MW) /    107.751 (MB)
	Size of irrep 3 of <Ab|Cd> integrals:     13.697 (MW) /    109.579 (MB)
	Total:                                    54.942 (MW) /    439.532 (MB)

	Size of irrep 0 of <IA|BC> integrals:      0.630 (MW) /      5.043 (MB)
	Size of irrep 1 of <IA|BC> integrals:      0.287 (MW) /      2.294 (MB)
	Size of irrep 2 of <IA|BC> integrals:      0.442 (MW) /      3.537 (MB)
	Size of irrep 3 of <IA|BC> integrals:      0.442 (MW) /      3.537 (MB)
	Total:                                     1.801 (MW) /     14.411 (MB)

	Size of irrep 0 of <ia|bc> integrals:      0.517 (MW) /      4.139 (MB)
	Size of irrep 1 of <ia|bc> integrals:      0.201 (MW) /      1.609 (MB)
	Size of irrep 2 of <ia|bc> integrals:      0.387 (MW) /      3.096 (MB)
	Size of irrep 3 of <ia|bc> integrals:      0.285 (MW) /      2.279 (MB)
	Total:                                     1.390 (MW) /     11.123 (MB)

	Size of irrep 0 of <Ia|Bc> integrals:      0.639 (MW) /      5.111 (MB)
	Size of irrep 1 of <Ia|Bc> integrals:      0.293 (MW) /      2.341 (MB)
	Size of irrep 2 of <Ia|Bc> integrals:      0.444 (MW) /      3.553 (MB)
	Size of irrep 3 of <Ia|Bc> integrals:      0.455 (MW) /      3.642 (MB)
	Total:                                     1.831 (MW) /     14.646 (MB)

	Size of irrep 0 of <iA|bC> integrals:      0.514 (MW) /      4.109 (MB)
	Size of irrep 1 of <iA|bC> integrals:      0.196 (MW) /      1.569 (MB)
	Size of irrep 2 of <iA|bC> integrals:      0.385 (MW) /      3.083 (MB)
	Size of irrep 3 of <iA|bC> integrals:      0.274 (MW) /      2.191 (MB)
	Total:                                     1.369 (MW) /     10.952 (MB)

	Size of irrep 0 of tIjAb amplitudes:       0.021 (MW) /      0.167 (MB)
	Size of irrep 1 of tIjAb amplitudes:       0.003 (MW) /      0.026 (MB)
	Size of irrep 2 of tIjAb amplitudes:       0.015 (MW) /      0.117 (MB)
	Size of irrep 3 of tIjAb amplitudes:       0.007 (MW) /      0.059 (MB)
	Total:                                     0.046 (MW) /      0.369 (MB)

	Nuclear Rep. energy          =      4.75164371101939
	SCF energy                   =    -99.54520830873712
	One-electron energy          =    -44.84325525093841
	Two-electron (AA) energy     =      4.53511398973486
	Two-electron (BB) energy     =      2.12192960696528
	Two-electron (AB) energy     =     10.42484667496486
	Two-electron energy          =     17.08189027166500
	Reference energy             =    -99.54520830873744

*** tstop() called on n412-037.vsc4.prov at Wed Jan 20 19:52:35 2021
Module time:
	user time   =       7.62 seconds =       0.13 minutes
	system time =       3.40 seconds =       0.06 minutes
	total time  =         27 seconds =       0.45 minutes
Total time:
	user time   =      52.91 seconds =       0.88 minutes
	system time =       5.01 seconds =       0.08 minutes
	total time  =         37 seconds =       0.62 minutes
            **************************
            *                        *
            *        CCENERGY        *
            *                        *
            **************************

    Nuclear Rep. energy (wfn)     =    4.751643711019395
    SCF energy          (wfn)     =  -99.545208308737116
    Reference energy    (file100) =  -99.545208308737443

    Input parameters:
    -----------------
    Wave function   =     CCSD_T
    Reference wfn   =     UHF
    Brueckner       =     No
    Memory (Mbytes) =     250000.0
    Maxiter         =     50
    R_Convergence   =     1.0e-07
    E_Convergence   =     1.0e-06
    Restart         =     Yes
    DIIS            =     Yes
    AO Basis        =     NONE
    ABCD            =     NEW
    Cache Level     =     2
    Cache Type      =     LRU
    Print Level     =     1
    Num. of threads =     48
    # Amps to Print =     10
    Print MP2 Amps? =     No
    Analyze T2 Amps =     No
    Print Pair Ener =     No
    Local CC        =     No
    SCS-MP2         =     False
    SCSN-MP2        =     False
    SCS-CCSD        =     False

MP2 correlation energy -0.2252831761081044
                Solving CC Amplitude Equations
                ------------------------------
  Iter             Energy              RMS        T1Diag      D1Diag    New D1Diag    D2Diag
  ----     ---------------------    ---------   ----------  ----------  ----------   --------
     0        -0.225283176108104    0.000e+00    0.000000    0.000000    0.000000    0.000000
     1        -0.232618098425585    2.813e-02    0.007314    0.000000    0.000000    0.000000
     2        -0.236006820466577    9.023e-03    0.008385    0.000000    0.000000    0.000000
     3        -0.236617711659438    4.068e-03    0.009506    0.000000    0.000000    0.000000
     4        -0.236551348859180    1.513e-03    0.009664    0.000000    0.000000    0.000000
     5        -0.236578723593167    6.249e-04    0.009683    0.000000    0.000000    0.000000
     6        -0.236590694959975    1.965e-04    0.009667    0.000000    0.000000    0.000000
     7        -0.236589434118650    5.976e-05    0.009662    0.000000    0.000000    0.000000
     8        -0.236589385232732    2.108e-05    0.009663    0.000000    0.000000    0.000000
     9        -0.236589155104355    6.579e-06    0.009664    0.000000    0.000000    0.000000
    10        -0.236589218327526    2.187e-06    0.009664    0.000000    0.000000    0.000000
    11        -0.236589260922710    6.398e-07    0.009664    0.000000    0.000000    0.000000
    12        -0.236589276886943    1.918e-07    0.009664    0.000000    0.000000    0.000000
    13        -0.236589279504134    4.943e-08    0.009664    0.000000    0.000000    0.000000

    Iterations converged.


    Largest TIA Amplitudes:
              1   0         0.0095459219
              3  92        -0.0067742333
              2  63        -0.0064775172
              1   1        -0.0054192373
              3  95        -0.0053563042
              1   4        -0.0053360990
              2  67        -0.0049794802
              0   0        -0.0034903743
              3  94        -0.0034406219
              1   5        -0.0032036112

    Largest Tia Amplitudes:
              2  63        -0.0055287985
              1   0         0.0048204934
              2  67        -0.0032121204
              1   1        -0.0029659221
              1  20        -0.0029309137
              0  15         0.0028462223
              2  65        -0.0028089914
              1  23        -0.0027890052
              0   4        -0.0026193880
              1   4        -0.0025508706

    Largest TIJAB Amplitudes:
      3   2  95  67        -0.0105894775
      2   1  67   0         0.0079600101
      2   1  67  10         0.0078509172
      3   1  95   0         0.0078034918
      3   2 103  67        -0.0076538470
      3   1  95  10         0.0076370698
      3   2  95  74        -0.0071867442
      2   1  67   4        -0.0070623961
      3   2 103  74        -0.0069835573
      3   1  95   4        -0.0069639298

    Largest Tijab Amplitudes:
      2   1  67   0         0.0083031115
      1   0 101  92        -0.0082756956
      2   1  67  10         0.0081795772
      2   1  67   4        -0.0076376116
      2   0  92  50         0.0068325172
      2   1  67   1        -0.0063081982
      2   0  92  49         0.0062477987
      2   1  63   0         0.0059124174
      2   0  92  47        -0.0057701153
      2   1  71  11         0.0053507330

    Largest TIjAb Amplitudes:
      1   1   0   0        -0.0230688017
      2   2  67  67        -0.0194208488
      1   1   0   4         0.0167307040
      1   0 100  92        -0.0161515677
      1   1   4   0         0.0157738727
      1   1   4   4        -0.0139202737
      3   0  15  92        -0.0139117755
      3   0   0  92        -0.0137208850
      3   2  95  67        -0.0136396547
      1   1   0   1         0.0135743123

    SCF energy       (wfn)                    =  -99.545208308737116
    Reference energy (file100)                =  -99.545208308737443

    Opposite-spin MP2 correlation energy      =   -0.174163993859088
    Same-spin MP2 correlation energy          =   -0.051119182249017
    Singles MP2 correlation energy            =   -0.000000000000000
    MP2 correlation energy                    =   -0.225283176108104
      * MP2 total energy                      =  -99.770491484845550

    Opposite-spin CCSD correlation energy     =   -0.187650244257753
    Same-spin CCSD correlation energy         =   -0.048939035246381
    Singles CCSD correlation energy           =    0.000000000000001
    CCSD correlation energy                   =   -0.236589279504134
      * CCSD total energy                     =  -99.781797588241574

            **************************
            *                        *
            *        CCTRIPLES       *
            *                        *
            **************************


    Wave function   =    CCSD_T
    Reference wfn   =      UHF

    Nuclear Rep. energy (wfn)                =    4.751643711019395
    SCF energy          (wfn)                =  -99.545208308737116
    Reference energy    (file100)            =  -99.545208308737443
    CCSD energy         (file100)            =   -0.236589279504134
    Total CCSD energy   (file100)            =  -99.781797588241574

    Number of ijk index combinations:
    Spin Case AAA:                                   4
    Spin Case BBB:                                   1
    Spin Case AAB:                                  18
    Spin Case ABB:                                  12
    AAA (T) energy                             =   -0.000164733614737
    BBB (T) energy                             =   -0.000034211209894
    AAB (T) energy                             =   -0.002861539093709
    ABB (T) energy                             =   -0.001842112222660
    (T) energy                                   =   -0.004902596141000
      * CCSD(T) total energy                     =  -99.786700184382582


    Psi4 stopped on: Wednesday, 20 January 2021 07:53PM
    Psi4 wall time for execution: 0:01:04.31

*** Psi4 exiting successfully. Buy a developer a beer!
