
    -----------------------------------------------------------------------
          Psi4: An Open-Source Ab Initio Electronic Structure Package
                               Psi4 1.2a1.dev938 

                         Git: Rev {HEAD} fc51d9a dirty


    R. M. Parrish, L. A. Burns, D. G. A. Smith, A. C. Simmonett,
    A. E. DePrince III, E. G. Hohenstein, U. Bozkaya, A. Yu. Sokolov,
    R. Di Remigio, R. M. Richard, J. F. Gonthier, A. M. James,
    H. R. McAlexander, A. Kumar, M. Saitow, X. Wang, B. P. Pritchard,
    P. Verma, H. F. Schaefer III, K. Patkowski, R. A. King, E. F. Valeev,
    F. A. Evangelista, J. M. Turney, T. D. Crawford, and C. D. Sherrill,
    J. Chem. Theory Comput. 13(7) pp 3185--3197 (2017).
    (doi: 10.1021/acs.jctc.7b00174)

    -----------------------------------------------------------------------


    Psi4 started on: Thursday, 20 August 2020 08:02PM

    Process ID: 423529
    PSIDATADIR: /home/irmler/Programs/psi4/beforeGrueneis3/stage/usr/local/psi4/share/psi4
    Memory:     500.0 MiB
    Threads:    4
    
  ==> Input File <==

--------------------------------------------------------------------------
# Any line starting with the # character is a comment line
memory 250000 mb
molecule molecule{
0 2
N          0.0000000000        0.0000000000        0.0799387399
H          0.0000000000        0.8010586797       -0.5554288686
H          0.0000000000       -0.8010586797       -0.5554288686
}

set {
  reference uhf
  basis aug-cc-pv(t+d)z
  scf_type OUT_OF_CORE
  freeze_core true
}

energy('ccsd')
--------------------------------------------------------------------------

  Memory set to 232.831 GiB by Python driver.

*** tstart() called on cqc05
*** at Thu Aug 20 20:02:14 2020

   => Loading Basis Set <=

    Name: AUG-CC-PV(T+D)Z
    Role: ORBITAL
    Keyword: BASIS
    atoms 1   entry N          line   301 file /home/irmler/Programs/psi4/beforeGrueneis3/stage/usr/local/psi4/share/psi4/basis/aug-cc-pv_tpd_z.gbs 
    atoms 2-3 entry H          line    56 file /home/irmler/Programs/psi4/beforeGrueneis3/stage/usr/local/psi4/share/psi4/basis/aug-cc-pv_tpd_z.gbs 


         ---------------------------------------------------------
                                   SCF
            by Justin Turney, Rob Parrish, Andy Simmonett
                             and Daniel Smith
                              UHF Reference
                        4 Threads, 238418 MiB Core
         ---------------------------------------------------------

  ==> Geometry <==

    Molecular point group: c2v
    Full point group: C2v

    Geometry (in Angstrom), charge = 0, multiplicity = 2:

       Center              X                  Y                   Z               Mass       
    ------------   -----------------  -----------------  -----------------  -----------------
           N          0.000000000000     0.000000000000     0.079948862051    14.003074004780
           H         -0.000000000000     0.801058679700    -0.555418746449     1.007825032070
           H          0.000000000000    -0.801058679700    -0.555418746449     1.007825032070

  Running in c2v symmetry.

  Rotational constants: A =     23.69931  B =     13.03325  C =      8.40886 [cm^-1]
  Rotational constants: A = 710487.52198  B = 390726.97795  C = 252091.34311 [MHz]
  Nuclear repulsion =    7.576169988111009

  Charge       = 0
  Multiplicity = 2
  Electrons    = 9
  Nalpha       = 5
  Nbeta        = 4

  ==> Algorithm <==

  SCF Algorithm Type is OUT_OF_CORE.
  DIIS enabled.
  MOM disabled.
  Fractional occupation disabled.
  Guess Type is GWH.
  Energy threshold   = 1.00e-08
  Density threshold  = 1.00e-08
  Integral threshold = 0.00e+00

  ==> Primary Basis <==

  Basis Set: AUG-CC-PV(T+D)Z
    Blend: AUG-CC-PV(T+D)Z
    Number of shells: 32
    Number of basis function: 92
    Number of Cartesian functions: 105
    Spherical Harmonics?: true
    Max angular momentum: 3

  ==> Pre-Iterations <==

   -------------------------------------------------------
    Irrep   Nso     Nmo     Nalpha   Nbeta   Ndocc  Nsocc
   -------------------------------------------------------
     A1        35      35       0       0       0       0
     A2        12      12       0       0       0       0
     B1        18      18       0       0       0       0
     B2        27      27       0       0       0       0
   -------------------------------------------------------
    Total      92      92       5       4       4       1
   -------------------------------------------------------

  ==> Integral Setup <==

  ==> DiskJK: Disk-Based J/K Matrices <==

    J tasked:                  Yes
    K tasked:                  Yes
    wK tasked:                  No
    Memory (MB):            178813
    Schwarz Cutoff:          1E-12

  Minimum eigenvalue in the overlap matrix is 3.8377489732E-04.
  Using Symmetric Orthogonalization.

  SCF Guess: Generalized Wolfsberg-Helmholtz.

  ==> Iterations <==

                        Total Energy        Delta E     RMS |[F,P]|

   @UHF iter   1:   -50.31699795616868   -5.03170e+01   1.34840e-01 
   @UHF iter   2:   -55.45327866066678   -5.13628e+00   1.44405e-02 DIIS
   @UHF iter   3:   -55.57441461455169   -1.21136e-01   3.75390e-03 DIIS
   @UHF iter   4:   -55.58586084037863   -1.14462e-02   1.35460e-03 DIIS
   @UHF iter   5:   -55.58791892064282   -2.05808e-03   4.08020e-04 DIIS
   @UHF iter   6:   -55.58809926590775   -1.80345e-04   9.94974e-05 DIIS
   @UHF iter   7:   -55.58811419263514   -1.49267e-05   2.34926e-05 DIIS
   @UHF iter   8:   -55.58811499806311   -8.05428e-07   7.10267e-06 DIIS
   @UHF iter   9:   -55.58811510752208   -1.09459e-07   2.72667e-06 DIIS
   @UHF iter  10:   -55.58811512285538   -1.53333e-08   9.13269e-07 DIIS
   @UHF iter  11:   -55.58811512466723   -1.81185e-09   2.95713e-07 DIIS
   @UHF iter  12:   -55.58811512485367   -1.86446e-10   8.19435e-08 DIIS
   @UHF iter  13:   -55.58811512486521   -1.15392e-11   1.27930e-08 DIIS
   @UHF iter  14:   -55.58811512486547   -2.55795e-13   3.08738e-09 DIIS

  ==> Post-Iterations <==

   @Spin Contamination Metric:   9.606869278E-03
   @S^2 Expected:                7.500000000E-01
   @S^2 Observed:                7.596068693E-01
   @S   Expected:                5.000000000E-01
   @S   Observed:                5.000000000E-01

    Orbital Energies (a.u.)
    -----------------------

    Alpha Occupied:                                                       

       1A1   -15.596461     2A1    -1.166698     1B2    -0.647977  
       1B1    -0.515821     3A1    -0.508088  

    Alpha Virtual:                                                        

       4A1     0.028701     2B2     0.047278     2B1     0.121648  
       5A1     0.122216     6A1     0.155679     3B2     0.165335  
       4B2     0.217723     7A1     0.232307     1A2     0.253331  
       3B1     0.282918     8A1     0.283710     5B2     0.361999  
       9A1     0.418047     6B2     0.448715     7B2     0.487213  
      10A1     0.501716     4B1     0.536910     2A2     0.572883  
      11A1     0.579401    12A1     0.743307     5B1     0.767712  
       8B2     0.804961    13A1     0.806903     6B1     0.855472  
      14A1     0.895912     3A2     0.906736     9B2     0.907065  
       7B1     1.002636    10B2     1.005504    15A1     1.010810  
      11B2     1.068896    12B2     1.098318     4A2     1.133917  
      16A1     1.142536    17A1     1.296826     5A2     1.303389  
       8B1     1.378703    18A1     1.408591    19A1     1.660004  
       9B1     1.667564    13B2     1.719423     6A2     1.747581  
      14B2     1.762260    20A1     1.847653    10B1     1.901746  
      21A1     2.016675    15B2     2.017357    11B1     2.097480  
      16B2     2.125160    22A1     2.220050    17B2     2.333776  
       7A2     2.354525    23A1     2.456463    24A1     3.302364  
      18B2     3.328326    12B1     3.573602     8A2     3.927120  
      25A1     3.971932    13B1     4.007463    26A1     4.009692  
      19B2     4.079667     9A2     4.149909    14B1     4.178459  
      20B2     4.232684    27A1     4.311049    21B2     4.421873  
      28A1     4.541811    22B2     4.654893    10A2     4.690385  
      15B1     4.813275    29A1     4.883382    23B2     4.961230  
      30A1     5.046742    24B2     5.125073    16B1     5.221899  
      17B1     5.256234    11A2     5.374523    31A1     5.455558  
      18B1     5.897883    32A1     5.939016    25B2     5.997187  
      12A2     6.079506    33A1     6.105741    26B2     6.504258  
      34A1     6.539452    27B2     7.576043    35A1    14.791321  

    Beta Occupied:                                                        

       1A1   -15.565438     2A1    -1.045563     1B2    -0.623921  
       3A1    -0.463877  

    Beta Virtual:                                                         

       4A1     0.029968     2B2     0.047607     1B1     0.066656  
       5A1     0.124176     6A1     0.160924     3B2     0.166216  
       2B1     0.180109     4B2     0.219498     7A1     0.232844  
       1A2     0.256850     8A1     0.289795     3B1     0.318111  
       5B2     0.361679     9A1     0.429346     6B2     0.456175  
       7B2     0.485865    10A1     0.524328     4B1     0.559612  
      11A1     0.579069     2A2     0.590311    12A1     0.749334  
       8B2     0.809450    13A1     0.816438     5B1     0.833255  
       6B1     0.874338    14A1     0.903222     9B2     0.907565  
       3A2     0.908652    10B2     1.010487    15A1     1.023465  
       7B1     1.029137    11B2     1.070030    12B2     1.102224  
       4A2     1.135356    16A1     1.145023    17A1     1.307352  
       5A2     1.337770     8B1     1.424533    18A1     1.440595  
      19A1     1.684469     9B1     1.693605    13B2     1.731998  
      14B2     1.762750     6A2     1.764159    20A1     1.850829  
      10B1     1.915245    15B2     2.023500    21A1     2.056322  
      16B2     2.132701    11B1     2.146923    22A1     2.236695  
      17B2     2.340190     7A2     2.395806    23A1     2.472972  
      24A1     3.308310    18B2     3.332424    12B1     3.666221  
       8A2     3.934833    25A1     3.986140    26A1     4.016085  
      13B1     4.017066    19B2     4.081216     9A2     4.156654  
      14B1     4.190712    20B2     4.233582    27A1     4.309844  
      21B2     4.431695    28A1     4.559595    22B2     4.666076  
      10A2     4.698517    15B1     4.840935    29A1     4.920319  
      23B2     4.961102    30A1     5.095790    24B2     5.159511  
      16B1     5.281209    17B1     5.295415    11A2     5.436667  
      31A1     5.479176    18B1     5.933551    32A1     5.950919  
      25B2     6.008453    12A2     6.112298    33A1     6.132549  
      26B2     6.511818    34A1     6.547776    27B2     7.585612  
      35A1    14.815907  

    Final Occupation by Irrep:
             A1    A2    B1    B2 
    DOCC [     3,    0,    0,    1 ]
    SOCC [     0,    0,    1,    0 ]

  Energy converged.

  @UHF Final Energy:   -55.58811512486547

   => Energetics <=

    Nuclear Repulsion Energy =              7.5761699881110092
    One-Electron Energy =                 -90.1947258723919703
    Two-Electron Energy =                  27.0304407594154981
    Total Energy =                        -55.5881151248654675


  UHF NO Occupations:
  HONO-2 :    1 B2 1.9990285
  HONO-1 :    3 A1 1.9968805
  HONO-0 :    1 B1 1.0000000
  LUNO+0 :    4 A1 0.0031195
  LUNO+1 :    2 B2 0.0009715
  LUNO+2 :    5 A1 0.0007169
  LUNO+3 :    6 A1 0.0000011



Properties will be evaluated at   0.000000,   0.000000,   0.000000 Bohr

Properties computed using the SCF density matrix

  Nuclear Dipole Moment: (a.u.)
     X:     0.0000      Y:     0.0000      Z:    -1.0416

  Electronic Dipole Moment: (a.u.)
     X:     0.0000      Y:     0.0000      Z:     0.2985

  Dipole Moment: (a.u.)
     X:     0.0000      Y:     0.0000      Z:    -0.7431     Total:     0.7431

  Dipole Moment: (Debye)
     X:     0.0000      Y:     0.0000      Z:    -1.8889     Total:     1.8889


*** tstop() called on cqc05 at Thu Aug 20 20:02:15 2020
Module time:
	user time   =       1.86 seconds =       0.03 minutes
	system time =       0.11 seconds =       0.00 minutes
	total time  =          1 seconds =       0.02 minutes
Total time:
	user time   =       1.86 seconds =       0.03 minutes
	system time =       0.11 seconds =       0.00 minutes
	total time  =          1 seconds =       0.02 minutes

*** tstart() called on cqc05
*** at Thu Aug 20 20:02:15 2020


	Wfn Parameters:
	--------------------
	Wavefunction         = CCSD
	Number of irreps     = 4
	Number of MOs        = 92
	Number of active MOs = 91
	AO-Basis             = NONE
	Semicanonical        = false
	Reference            = UHF
	Print Level          = 1

	IRREP	# MOs	# FZDC	# DOCC	# SOCC	# VIRT	# FZVR
	-----	-----	------	------	------	------	------
	 A1	   35	    1	    2	    0	    32	    0
	 A2	   12	    0	    0	    0	    12	    0
	 B1	   18	    0	    0	    1	    17	    0
	 B2	   27	    0	    1	    0	    26	    0
	Transforming integrals...
	IWL integrals will be deleted.
	(OO|OO)...
	Presorting SO-basis two-electron integrals.
	Sorting File: SO Ints (nn|nn) nbuckets = 1
	Transforming the one-electron integrals and constructing Fock matrices
	Starting AA/AB first half-transformation.
	Sorting AA/AB half-transformed integrals.
	Starting BB first half-transformation.
	Sorting BB half-transformed integrals.
	First half integral transformation complete.
	Starting AA second half-transformation.
	Starting AB second half-transformation.
	Starting BB second half-transformation.
	Two-electron integral transformation complete.
	(OO|OV)...
	Starting AA second half-transformation.
	Starting AB second half-transformation.
	Starting BB second half-transformation.
	Two-electron integral transformation complete.
	(OO|VV)...
	Starting AA second half-transformation.
	Starting AB second half-transformation.
	Starting BB second half-transformation.
	Two-electron integral transformation complete.
	(OV|OO)...
	Starting AA/AB first half-transformation.
	Sorting AA/AB half-transformed integrals.
	Starting BB first half-transformation.
	Sorting BB half-transformed integrals.
	First half integral transformation complete.
	Starting AA second half-transformation.
	Starting AB second half-transformation.
	Starting BB second half-transformation.
	Two-electron integral transformation complete.
	(OV|OV)...
	Starting AA second half-transformation.
	Starting AB second half-transformation.
	Starting BB second half-transformation.
	Two-electron integral transformation complete.
	(OV|VV)...
	Starting AA second half-transformation.
	Starting AB second half-transformation.
	Starting BB second half-transformation.
	Two-electron integral transformation complete.
	(VV|OO)...
	Starting AA/AB first half-transformation.
	Sorting AA/AB half-transformed integrals.
	Starting BB first half-transformation.
	Sorting BB half-transformed integrals.
	First half integral transformation complete.
	Starting AA second half-transformation.
	Starting AB second half-transformation.
	Starting BB second half-transformation.
	Two-electron integral transformation complete.
	(VV|OV)...
	Starting AA second half-transformation.
	Starting AB second half-transformation.
	Starting BB second half-transformation.
	Two-electron integral transformation complete.
	(VV|VV)...
	Starting AA second half-transformation.
	Starting AB second half-transformation.
	Starting BB second half-transformation.
	Two-electron integral transformation complete.
	Frozen core energy     =    -46.80284999120860

	Size of irrep 0 of <AB|CD> integrals:      1.047 (MW) /      8.372 (MB)
	Size of irrep 1 of <AB|CD> integrals:      0.682 (MW) /      5.458 (MB)
	Size of irrep 2 of <AB|CD> integrals:      0.733 (MW) /      5.862 (MB)
	Size of irrep 3 of <AB|CD> integrals:      1.073 (MW) /      8.586 (MB)
	Total:                                     3.535 (MW) /     28.279 (MB)

	Size of irrep 0 of <ab|cd> integrals:      1.082 (MW) /      8.653 (MB)
	Size of irrep 1 of <ab|cd> integrals:      0.726 (MW) /      5.807 (MB)
	Size of irrep 2 of <ab|cd> integrals:      0.789 (MW) /      6.308 (MB)
	Size of irrep 3 of <ab|cd> integrals:      1.098 (MW) /      8.786 (MB)
	Total:                                     3.694 (MW) /     29.555 (MB)

	Size of irrep 0 of <Ab|Cd> integrals:      4.622 (MW) /     36.980 (MB)
	Size of irrep 1 of <Ab|Cd> integrals:      2.816 (MW) /     22.525 (MB)
	Size of irrep 2 of <Ab|Cd> integrals:      3.042 (MW) /     24.332 (MB)
	Size of irrep 3 of <Ab|Cd> integrals:      4.343 (MW) /     34.744 (MB)
	Total:                                    14.823 (MW) /    118.582 (MB)

	Size of irrep 0 of <IA|BC> integrals:      0.228 (MW) /      1.826 (MB)
	Size of irrep 1 of <IA|BC> integrals:      0.111 (MW) /      0.885 (MB)
	Size of irrep 2 of <IA|BC> integrals:      0.134 (MW) /      1.068 (MB)
	Size of irrep 3 of <IA|BC> integrals:      0.199 (MW) /      1.591 (MB)
	Total:                                     0.671 (MW) /      5.371 (MB)

	Size of irrep 0 of <ia|bc> integrals:      0.195 (MW) /      1.561 (MB)
	Size of irrep 1 of <ia|bc> integrals:      0.072 (MW) /      0.573 (MB)
	Size of irrep 2 of <ia|bc> integrals:      0.085 (MW) /      0.682 (MB)
	Size of irrep 3 of <ia|bc> integrals:      0.176 (MW) /      1.409 (MB)
	Total:                                     0.528 (MW) /      4.224 (MB)

	Size of irrep 0 of <Ia|Bc> integrals:      0.232 (MW) /      1.858 (MB)
	Size of irrep 1 of <Ia|Bc> integrals:      0.114 (MW) /      0.913 (MB)
	Size of irrep 2 of <Ia|Bc> integrals:      0.140 (MW) /      1.116 (MB)
	Size of irrep 3 of <Ia|Bc> integrals:      0.200 (MW) /      1.601 (MB)
	Total:                                     0.686 (MW) /      5.487 (MB)

	Size of irrep 0 of <iA|bC> integrals:      0.194 (MW) /      1.548 (MB)
	Size of irrep 1 of <iA|bC> integrals:      0.069 (MW) /      0.550 (MB)
	Size of irrep 2 of <iA|bC> integrals:      0.080 (MW) /      0.642 (MB)
	Size of irrep 3 of <iA|bC> integrals:      0.175 (MW) /      1.400 (MB)
	Total:                                     0.518 (MW) /      4.141 (MB)

	Size of irrep 0 of tIjAb amplitudes:       0.011 (MW) /      0.086 (MB)
	Size of irrep 1 of tIjAb amplitudes:       0.002 (MW) /      0.013 (MB)
	Size of irrep 2 of tIjAb amplitudes:       0.003 (MW) /      0.028 (MB)
	Size of irrep 3 of tIjAb amplitudes:       0.008 (MW) /      0.067 (MB)
	Total:                                     0.024 (MW) /      0.194 (MB)

	Nuclear Rep. energy          =      7.57616998811101
	SCF energy                   =    -55.58811512486547
	One-electron energy          =    -27.75092573876632
	Two-electron (AA) energy     =      3.01690150510253
	Two-electron (BB) energy     =      1.38639508220589
	Two-electron (AB) energy     =      6.98619402968995
	Two-electron energy          =     11.38949061699837
	Reference energy             =    -55.58811512486554

*** tstop() called on cqc05 at Thu Aug 20 20:02:18 2020
Module time:
	user time   =       1.29 seconds =       0.02 minutes
	system time =       0.77 seconds =       0.01 minutes
	total time  =          3 seconds =       0.05 minutes
Total time:
	user time   =       3.15 seconds =       0.05 minutes
	system time =       0.88 seconds =       0.01 minutes
	total time  =          4 seconds =       0.07 minutes

*** tstart() called on cqc05
*** at Thu Aug 20 20:02:18 2020

            **************************
            *                        *
            *        CCENERGY        *
            *                        *
            **************************

    Nuclear Rep. energy (wfn)     =    7.576169988111009
    SCF energy          (wfn)     =  -55.588115124865467
    Reference energy    (file100) =  -55.588115124865539

    Input parameters:
    -----------------
    Wave function   =     CCSD
    Reference wfn   =     UHF
    Brueckner       =     No
    Memory (Mbytes) =     250000.0
    Maxiter         =     50
    R_Convergence   =     1.0e-07
    E_Convergence   =     1.0e-06
    Restart         =     Yes
    DIIS            =     Yes
    AO Basis        =     NONE
    ABCD            =     NEW
    Cache Level     =     2
    Cache Type      =     LRU
    Print Level     =     1
    Num. of threads =     4
    # Amps to Print =     10
    Print MP2 Amps? =     No
    Analyze T2 Amps =     No
    Print Pair Ener =     No
    Local CC        =     No
    SCS-MP2         =     False
    SCSN-MP2        =     False
    SCS-CCSD        =     False

MP2 correlation energy -0.1885210707586721
                Solving CC Amplitude Equations
                ------------------------------
  Iter             Energy              RMS        T1Diag      D1Diag    New D1Diag    D2Diag
  ----     ---------------------    ---------   ----------  ----------  ----------   --------
     0        -0.188521070758672    0.000e+00    0.000000    0.000000    0.000000    0.000000
     1        -0.199863108686472    3.987e-02    0.009393    0.000000    0.000000    0.000000
     2        -0.204775659565957    1.413e-02    0.012025    0.000000    0.000000    0.000000
     3        -0.205517901713582    5.730e-03    0.013831    0.000000    0.000000    0.000000
     4        -0.205483065338816    2.111e-03    0.014333    0.000000    0.000000    0.000000
     5        -0.205492789425001    8.329e-04    0.014447    0.000000    0.000000    0.000000
     6        -0.205501839520113    3.220e-04    0.014440    0.000000    0.000000    0.000000
     7        -0.205503511068329    1.084e-04    0.014421    0.000000    0.000000    0.000000
     8        -0.205504486622874    3.840e-05    0.014416    0.000000    0.000000    0.000000
     9        -0.205504209413442    1.451e-05    0.014414    0.000000    0.000000    0.000000
    10        -0.205504290331373    6.476e-06    0.014414    0.000000    0.000000    0.000000
    11        -0.205504331754956    2.685e-06    0.014414    0.000000    0.000000    0.000000
    12        -0.205504365639981    1.204e-06    0.014414    0.000000    0.000000    0.000000
    13        -0.205504380204518    4.198e-07    0.014414    0.000000    0.000000    0.000000
    14        -0.205504382200551    1.513e-07    0.014414    0.000000    0.000000    0.000000
    15        -0.205504382434809    6.972e-08    0.014414    0.000000    0.000000    0.000000
    15        -0.205504382434809    6.972e-08    0.014414    0.000000    0.000000    0.000000

    Iterations converged.


    CCSD corr. energy   =   -0.205504382434809
    PPL corr. energy    =    0.048522389318852
    OS PPL corr. energy =    0.041563214311510
    SS PPL corr. energy =    0.006959175007341
    Largest TIA Amplitudes:
              2  44        -0.0147589435
              2  45        -0.0138703993
              1   1         0.0082558156
              1   4        -0.0069526640
              2  47        -0.0064836217
              0   2         0.0040209510
              0   6         0.0039209996
              1   3         0.0035598319
              3  74         0.0034138125
              1   6        -0.0033282544

    Largest Tia Amplitudes:
              1   4        -0.0077277200
              0   4         0.0058928987
              1   7        -0.0058632352
              0   9        -0.0058339859
              2  66         0.0056681683
              1   1         0.0055441075
              2  75         0.0055034301
              0   5        -0.0054949482
              0   6        -0.0054287669
              2  70         0.0048789783

    Largest TIJAB Amplitudes:
      2   1  47   9         0.0157772293
      3   2  65  47        -0.0136862636
      2   1  50  14        -0.0124068379
      3   1  66   7        -0.0122288835
      2   1  47   4        -0.0119420853
      2   1  45   4        -0.0104637887
      3   1  65   9         0.0103794013
      2   1  45   9         0.0101193676
      3   2  36   6        -0.0096683454
      3   2  63  47        -0.0096297619

    Largest Tijab Amplitudes:
      2   1  67   7        -0.0126986291
      2   1  66   9         0.0100911707
      2   1  66   4        -0.0090291024
      2   1  67  13         0.0088895224
      2   1  66   1         0.0080582036
      2   1  67   3         0.0078822803
      2   1  66   8         0.0069718449
      2   1  64   4        -0.0069592811
      2   1  64   7        -0.0069547746
      1   0  51  45         0.0067736335

    Largest TIjAb Amplitudes:
      1   1   9   9        -0.0310706779
      3   2  65  66        -0.0251027492
      1   1   4   9         0.0213005593
      1   1   9   4         0.0207275403
      1   1  66  67        -0.0205203354
      2   1  47   9         0.0203141679
      3   2  65  64        -0.0200104929
      3   2  63  66        -0.0194585955
      3   2  67  68        -0.0193458189
      3   1  65   9         0.0189095589

    SCF energy       (wfn)                    =  -55.588115124865467
    Reference energy (file100)                =  -55.588115124865539

    Opposite-spin MP2 correlation energy      =   -0.147652748124596
    Same-spin MP2 correlation energy          =   -0.040868322634073
    MP2 correlation energy                    =   -0.188521070758672
      * MP2 total energy                      =  -55.776636195624214

    Opposite-spin CCSD correlation energy     =   -0.166385313569509
    Same-spin CCSD correlation energy         =   -0.039119068920271
    CCSD correlation energy                   =   -0.205504382434809
      * CCSD total energy                     =  -55.793619507300349


*** tstop() called on cqc05 at Thu Aug 20 20:02:22 2020
Module time:
	user time   =       1.42 seconds =       0.02 minutes
	system time =       1.11 seconds =       0.02 minutes
	total time  =          4 seconds =       0.07 minutes
Total time:
	user time   =       4.57 seconds =       0.08 minutes
	system time =       1.99 seconds =       0.03 minutes
	total time  =          8 seconds =       0.13 minutes

*** Psi4 exiting successfully. Buy a developer a beer!
