
    -----------------------------------------------------------------------
          Psi4: An Open-Source Ab Initio Electronic Structure Package
                               Psi4 1.2a1.dev938 

                         Git: Rev {HEAD} fc51d9a dirty


    R. M. Parrish, L. A. Burns, D. G. A. Smith, A. C. Simmonett,
    A. E. DePrince III, E. G. Hohenstein, U. Bozkaya, A. Yu. Sokolov,
    R. Di Remigio, R. M. Richard, J. F. Gonthier, A. M. James,
    H. R. McAlexander, A. Kumar, M. Saitow, X. Wang, B. P. Pritchard,
    P. Verma, H. F. Schaefer III, K. Patkowski, R. A. King, E. F. Valeev,
    F. A. Evangelista, J. M. Turney, T. D. Crawford, and C. D. Sherrill,
    J. Chem. Theory Comput. 13(7) pp 3185--3197 (2017).
    (doi: 10.1021/acs.jctc.7b00174)

    -----------------------------------------------------------------------


    Psi4 started on: Friday, 21 August 2020 09:44AM

    Process ID: 429385
    PSIDATADIR: /home/irmler/Programs/psi4/beforeGrueneis3/stage/usr/local/psi4/share/psi4
    Memory:     500.0 MiB
    Threads:    4
    
  ==> Input File <==

--------------------------------------------------------------------------
# Any line starting with the # character is a comment line
memory 250000 mb
molecule molecule{
0 2
N          0.0000000000        0.0000000000        0.0799387399
H          0.0000000000        0.8010586797       -0.5554288686
H          0.0000000000       -0.8010586797       -0.5554288686
}

set {
  reference uhf
  basis aug-cc-pv(5+d)z
  scf_type OUT_OF_CORE
  freeze_core true
}

energy('ccsd')
--------------------------------------------------------------------------

  Memory set to 232.831 GiB by Python driver.

*** tstart() called on cqc05
*** at Fri Aug 21 09:44:32 2020

   => Loading Basis Set <=

    Name: AUG-CC-PV(5+D)Z
    Role: ORBITAL
    Keyword: BASIS
    atoms 1   entry N          line   300 file /home/irmler/Programs/psi4/beforeGrueneis3/stage/usr/local/psi4/share/psi4/basis/aug-cc-pv_5pd_z.gbs 
    atoms 2-3 entry H          line    56 file /home/irmler/Programs/psi4/beforeGrueneis3/stage/usr/local/psi4/share/psi4/basis/aug-cc-pv_5pd_z.gbs 


         ---------------------------------------------------------
                                   SCF
            by Justin Turney, Rob Parrish, Andy Simmonett
                             and Daniel Smith
                              UHF Reference
                        4 Threads, 238418 MiB Core
         ---------------------------------------------------------

  ==> Geometry <==

    Molecular point group: c2v
    Full point group: C2v

    Geometry (in Angstrom), charge = 0, multiplicity = 2:

       Center              X                  Y                   Z               Mass       
    ------------   -----------------  -----------------  -----------------  -----------------
           N          0.000000000000     0.000000000000     0.079948862051    14.003074004780
           H         -0.000000000000     0.801058679700    -0.555418746449     1.007825032070
           H          0.000000000000    -0.801058679700    -0.555418746449     1.007825032070

  Running in c2v symmetry.

  Rotational constants: A =     23.69931  B =     13.03325  C =      8.40886 [cm^-1]
  Rotational constants: A = 710487.52198  B = 390726.97795  C = 252091.34311 [MHz]
  Nuclear repulsion =    7.576169988111009

  Charge       = 0
  Multiplicity = 2
  Electrons    = 9
  Nalpha       = 5
  Nbeta        = 4

  ==> Algorithm <==

  SCF Algorithm Type is OUT_OF_CORE.
  DIIS enabled.
  MOM disabled.
  Fractional occupation disabled.
  Guess Type is GWH.
  Energy threshold   = 1.00e-08
  Density threshold  = 1.00e-08
  Integral threshold = 0.00e+00

  ==> Primary Basis <==

  Basis Set: AUG-CC-PV(5+D)Z
    Blend: AUG-CC-PV(5+D)Z
    Number of shells: 67
    Number of basis function: 287
    Number of Cartesian functions: 392
    Spherical Harmonics?: true
    Max angular momentum: 5

  ==> Pre-Iterations <==

   -------------------------------------------------------
    Irrep   Nso     Nmo     Nalpha   Nbeta   Ndocc  Nsocc
   -------------------------------------------------------
     A1        96      96       0       0       0       0
     A2        49      49       0       0       0       0
     B1        61      61       0       0       0       0
     B2        81      81       0       0       0       0
   -------------------------------------------------------
    Total     287     287       5       4       4       1
   -------------------------------------------------------

  ==> Integral Setup <==

  ==> DiskJK: Disk-Based J/K Matrices <==

    J tasked:                  Yes
    K tasked:                  Yes
    wK tasked:                  No
    Memory (MB):            178813
    Schwarz Cutoff:          1E-12

  Minimum eigenvalue in the overlap matrix is 1.3774011097E-05.
  Using Symmetric Orthogonalization.

  SCF Guess: Generalized Wolfsberg-Helmholtz.

  ==> Iterations <==

                        Total Energy        Delta E     RMS |[F,P]|

    Occupation by irrep:
             A1    A2    B1    B2 
    DOCC [     3,    0,    0,    1 ]
    SOCC [     0,    0,    1,    0 ]

   @UHF iter   1:   -13.32383007020997   -1.33238e+01   2.06089e-01 
   @UHF iter   2:   -55.31290904518508   -4.19891e+01   1.22288e-02 DIIS
   @UHF iter   3:   -55.54406981970084   -2.31161e-01   4.34135e-03 DIIS
   @UHF iter   4:   -55.58944761860274   -4.53778e-02   8.68266e-04 DIIS
   @UHF iter   5:   -55.59189095673602   -2.44334e-03   2.07884e-04 DIIS
   @UHF iter   6:   -55.59220431749682   -3.13361e-04   5.84174e-05 DIIS
   @UHF iter   7:   -55.59223702370028   -3.27062e-05   2.53018e-05 DIIS
   @UHF iter   8:   -55.59224389583028   -6.87213e-06   1.07424e-05 DIIS
   @UHF iter   9:   -55.59224535126854   -1.45544e-06   2.76293e-06 DIIS
   @UHF iter  10:   -55.59224544392444   -9.26559e-08   7.47665e-07 DIIS
   @UHF iter  11:   -55.59224545049559   -6.57115e-09   1.75155e-07 DIIS
   @UHF iter  12:   -55.59224545079187   -2.96282e-10   3.21499e-08 DIIS
   @UHF iter  13:   -55.59224545080016   -8.28493e-12   8.74160e-09 DIIS

  ==> Post-Iterations <==

   @Spin Contamination Metric:   9.660942151E-03
   @S^2 Expected:                7.500000000E-01
   @S^2 Observed:                7.596609422E-01
   @S   Expected:                5.000000000E-01
   @S   Observed:                5.000000000E-01

    Orbital Energies (a.u.)
    -----------------------

    Alpha Occupied:                                                       

       1A1   -15.594456     2A1    -1.166192     1B2    -0.647996  
       1B1    -0.516183     3A1    -0.508221  

    Alpha Virtual:                                                        

       4A1     0.022565     2B2     0.036550     5A1     0.081949  
       2B1     0.082411     3B2     0.115838     6A1     0.117513  
       4B2     0.158672     7A1     0.162516     1A2     0.173949  
       3B1     0.189485     8A1     0.193732     5B2     0.247187  
       9A1     0.301745     6B2     0.302168    10A1     0.321088  
       7B2     0.338185     4B1     0.340228    11A1     0.376520  
       2A2     0.380297    12A1     0.422629     8B2     0.440038  
       5B1     0.449135    13A1     0.501480     3A2     0.503266  
      14A1     0.505856     6B1     0.506521     7B1     0.549751  
       9B2     0.569196    10B2     0.598752    15A1     0.632460  
      11B2     0.643548     4A2     0.660838    16A1     0.668287  
      12B2     0.700001    17A1     0.808935     5A2     0.860281  
      18A1     0.863079     8B1     0.874036    19A1     0.885461  
      13B2     0.893026     9B1     0.914699     6A2     0.929492  
      20A1     0.949815    10B1     1.005695    14B2     1.027488  
      21A1     1.065556    15B2     1.086659    16B2     1.165053  
      11B1     1.170340    22A1     1.186592    23A1     1.216987  
       7A2     1.247343    12B1     1.255035    17B2     1.277559  
      13B1     1.324100    24A1     1.331961     8A2     1.345387  
      18B2     1.352350    25A1     1.353304    26A1     1.407561  
      14B1     1.410434    19B2     1.434589     9A2     1.441026  
      20B2     1.447370    10A2     1.512259    21B2     1.535762  
      27A1     1.542307    28A1     1.570595    15B1     1.671018  
      22B2     1.688674    29A1     1.796648    23B2     2.015727  
      30A1     2.073480    16B1     2.089092    11A2     2.103570  
      17B1     2.224199    24B2     2.240887    18B1     2.343112  
      31A1     2.365037    25B2     2.367579    26B2     2.380894  
      12A2     2.382724    32A1     2.393532    19B1     2.405062  
      13A2     2.438868    27B2     2.459795    33A1     2.462145  
      34A1     2.478897    14A2     2.485677    35A1     2.492736  
      20B1     2.516646    36A1     2.555573    28B2     2.718362  
      37A1     2.806905    38A1     2.812843    15A2     2.848136  
      21B1     2.918272    29B2     2.922914    22B1     2.953401  
      39A1     2.991928    30B2     3.036925    40A1     3.079718  
      23B1     3.087431    16A2     3.093390    31B2     3.189675  
      41A1     3.215747    17A2     3.226514    32B2     3.259687  
      24B1     3.347647    42A1     3.374181    18A2     3.379410  
      33B2     3.391858    25B1     3.416522    19A2     3.429470  
      43A1     3.478721    34B2     3.484054    44A1     3.536943  
      45A1     3.573224    35B2     3.623959    26B1     3.681002  
      20A2     3.701300    36B2     3.715789    27B1     3.784165  
      37B2     3.880429    46A1     3.913730    38B2     4.128448  
      21A2     4.206568    47A1     4.245324    39B2     4.324265  
      28B1     4.404346    29B1     4.460575    48A1     4.512061  
      49A1     4.678031    40B2     4.748725    22A2     4.939611  
      50A1     4.982040    30B1     5.119821    41B2     5.136294  
      42B2     5.180868    51A1     5.186408    23A2     5.250730  
      31B1     5.250736    24A2     5.277483    32B1     5.438068  
      52A1     5.454127    25A2     5.499317    43B2     5.649802  
      53A1     5.651833    54A1     5.660249    55A1     5.689277  
      44B2     5.712759    33B1     5.718333    26A2     5.741483  
      34B1     5.743653    56A1     5.754085    45B2     5.785723  
      35B1     5.811324    46B2     5.843022    27A2     5.901502  
      57A1     5.993781    58A1     6.010197    36B1     6.025916  
      28A2     6.050248    47B2     6.104055    59A1     6.191634  
      48B2     6.227850    37B1     6.282980    29A2     6.390865  
      49B2     6.592118    60A1     6.607162    38B1     6.654591  
      50B2     6.763982    61A1     6.866300    51B2     7.013671  
      62A1     7.058717    39B1     7.217075    63A1     7.292572  
      52B2     7.383369    30A2     7.516784    53B2     7.736556  
      40B1     7.805518    64A1     7.819790    65A1     7.895510  
      31A2     7.904033    41B1     8.043028    32A2     8.192169  
      54B2     8.359631    66A1     8.562775    42B1     8.833930  
      55B2     8.927723    67A1     9.136733    56B2     9.288182  
      33A2     9.352813    68A1     9.537722    57B2     9.716982  
      69A1    11.576844    34A2    12.082333    43B1    12.098112  
      58B2    12.159813    59B2    12.252289    35A2    12.314451  
      44B1    12.316555    70A1    12.320517    45B1    12.398151  
      71A1    12.455642    72A1    12.753918    60B2    12.857346  
      46B1    13.094489    73A1    13.202464    36A2    13.230270  
      61B2    13.253897    47B1    13.254602    62B2    13.415251  
      74A1    13.420665    37A2    13.424360    75A1    13.456510  
      63B2    13.573541    38A2    13.574594    48B1    13.590973  
      49B1    13.708802    76A1    13.711942    64B2    13.864672  
      39A2    13.933297    77A1    14.031328    65B2    14.134356  
      78A1    14.178494    66B2    14.203609    50B1    14.224920  
      79A1    14.225178    51B1    14.276713    40A2    14.363005  
      80A1    14.430353    67B2    14.432931    52B1    14.446120  
      41A2    14.466159    68B2    14.525697    81A1    14.568950  
      53B1    14.703814    42A2    14.722357    69B2    14.832985  
      82A1    14.885823    54B1    14.920216    70B2    15.266400  
      83A1    15.315842    55B1    15.373883    43A2    15.428840  
      84A1    15.533872    71B2    15.578537    85A1    15.662649  
      72B2    15.762907    44A2    15.977946    56B1    16.153815  
      86A1    16.261953    57B1    16.418514    87A1    16.486878  
      45A2    16.498938    73B2    16.625724    58B1    16.627749  
      74B2    16.853080    88A1    17.035823    46A2    17.078733  
      75B2    17.210935    76B2    17.301404    89A1    17.427814  
      47A2    17.656453    59B1    17.771815    90A1    18.113815  
      91A1    18.347120    60B1    18.532469    48A2    18.637182  
      77B2    18.709617    78B2    18.967271    92A1    19.051671  
      61B1    20.817349    49A2    20.897099    79B2    20.953413  
      93A1    21.141890    94A1    22.120923    80B2    22.820527  
      95A1    23.179752    81B2    23.829338    96A1    53.690532  

    Beta Occupied:                                                        

       1A1   -15.563309     2A1    -1.045045     1B2    -0.623996  
       3A1    -0.464061  

    Beta Virtual:                                                         

       4A1     0.023494     2B2     0.036733     1B1     0.055759  
       5A1     0.082795     3B2     0.116229     6A1     0.121186  
       2B1     0.130633     4B2     0.159786     7A1     0.162532  
       1A2     0.175198     8A1     0.196268     3B1     0.213104  
       5B2     0.247142     6B2     0.303261     9A1     0.309112  
      10A1     0.327952     7B2     0.340045     4B1     0.359617  
      11A1     0.378403     2A2     0.386304    12A1     0.425152  
       8B2     0.442299     5B1     0.478328     3A2     0.506190  
      13A1     0.507390    14A1     0.510663     6B1     0.535790  
       7B1     0.562949     9B2     0.570008    10B2     0.599062  
      15A1     0.632953    11B2     0.643427     4A2     0.661964  
      16A1     0.680650    12B2     0.707551    17A1     0.818822  
      18A1     0.868261     5A2     0.875852     8B1     0.880651  
      13B2     0.894293    19A1     0.895925     9B1     0.938550  
       6A2     0.941334    20A1     0.954304    10B1     1.021749  
      14B2     1.026938    21A1     1.088892    15B2     1.090328  
      16B2     1.165607    22A1     1.196196    11B1     1.205234  
      23A1     1.219496     7A2     1.251762    12B1     1.256695  
      17B2     1.278608    24A1     1.332080    13B1     1.343041  
       8A2     1.345663    18B2     1.352764    25A1     1.362154  
      26A1     1.408692    14B1     1.413794    19B2     1.441164  
       9A2     1.443458    20B2     1.448951    10A2     1.528899  
      21B2     1.539783    27A1     1.547072    28A1     1.576974  
      22B2     1.689526    15B1     1.725551    29A1     1.806624  
      23B2     2.022660    30A1     2.081635    16B1     2.104694  
      11A2     2.123292    24B2     2.239968    17B1     2.241928  
      18B1     2.354066    31A1     2.368086    25B2     2.370973  
      26B2     2.388337    12A2     2.390632    32A1     2.417645  
      19B1     2.434727    13A2     2.458517    27B2     2.465980  
      33A1     2.476810    14A2     2.497429    34A1     2.497816  
      35A1     2.524414    20B1     2.529704    36A1     2.560754  
      28B2     2.721293    37A1     2.809757    38A1     2.818900  
      15A2     2.851839    21B1     2.930097    29B2     2.930729  
      22B1     2.959451    39A1     2.994053    30B2     3.039884  
      40A1     3.084919    23B1     3.093289    16A2     3.104637  
      31B2     3.191373    41A1     3.227675    17A2     3.228174  
      32B2     3.262459    24B1     3.354833    42A1     3.376880  
      18A2     3.380865    33B2     3.391717    25B1     3.419298  
      19A2     3.432875    43A1     3.481425    34B2     3.487775  
      44A1     3.541124    45A1     3.584117    35B2     3.629334  
      20A2     3.702850    36B2     3.717078    26B1     3.723259  
      27B1     3.803387    37B2     3.886991    46A1     3.921870  
      38B2     4.130087    21A2     4.239519    47A1     4.252278  
      39B2     4.330171    28B1     4.426812    29B1     4.489702  
      48A1     4.524550    49A1     4.689693    40B2     4.750786  
      22A2     4.949740    50A1     4.998746    30B1     5.130516  
      41B2     5.146529    42B2     5.186707    51A1     5.190573  
      23A2     5.257516    31B1     5.270849    24A2     5.287146  
      32B1     5.463803    52A1     5.466885    25A2     5.510400  
      53A1     5.655201    43B2     5.658150    54A1     5.666722  
      55A1     5.701782    44B2     5.716121    33B1     5.726869  
      26A2     5.753477    34B1     5.756105    56A1     5.765583  
      45B2     5.795852    35B1     5.822898    46B2     5.846667  
      27A2     5.909935    57A1     6.001728    58A1     6.036500  
      36B1     6.036926    28A2     6.059352    47B2     6.111337  
      59A1     6.201690    48B2     6.241164    37B1     6.301683  
      29A2     6.395368    49B2     6.596221    60A1     6.614001  
      38B1     6.663034    50B2     6.771192    61A1     6.884087  
      51B2     7.017106    62A1     7.083684    39B1     7.241655  
      63A1     7.299865    52B2     7.392181    30A2     7.529535  
      53B2     7.745879    40B1     7.816693    64A1     7.838454  
      65A1     7.904879    31A2     7.920681    41B1     8.072598  
      32A2     8.218172    54B2     8.362701    66A1     8.573445  
      42B1     8.859462    55B2     8.933009    67A1     9.142812  
      56B2     9.293632    33A2     9.374567    68A1     9.543917  
      57B2     9.723130    69A1    11.598302    34A2    12.091143  
      43B1    12.108891    58B2    12.170199    59B2    12.261912  
      35A2    12.326080    44B1    12.332180    70A1    12.335979  
      45B1    12.409878    71A1    12.465801    72A1    12.757648  
      60B2    12.863404    46B1    13.144917    73A1    13.203438  
      36A2    13.231229    61B2    13.254407    47B1    13.258662  
      62B2    13.422572    37A2    13.423791    74A1    13.425863  
      75A1    13.457718    63B2    13.577057    38A2    13.580038  
      48B1    13.596011    76A1    13.721847    49B1    13.722886  
      64B2    13.869777    39A2    13.948043    77A1    14.039913  
      65B2    14.137717    78A1    14.181777    66B2    14.210507  
      50B1    14.224060    79A1    14.231722    51B1    14.282376  
      40A2    14.362792    80A1    14.438580    67B2    14.441709  
      52B1    14.451099    41A2    14.468672    68B2    14.538956  
      81A1    14.592058    53B1    14.723022    42A2    14.729051  
      69B2    14.835733    82A1    14.895401    54B1    14.935230  
      70B2    15.268723    83A1    15.344735    55B1    15.393266  
      43A2    15.442016    84A1    15.540152    71B2    15.592939  
      85A1    15.665403    72B2    15.765953    44A2    15.988720  
      56B1    16.166465    86A1    16.268217    57B1    16.436996  
      87A1    16.488488    45A2    16.517961    73B2    16.628840  
      58B1    16.637724    74B2    16.861831    88A1    17.047515  
      46A2    17.086404    75B2    17.216461    76B2    17.305946  
      89A1    17.431969    47A2    17.662806    59B1    17.781264  
      90A1    18.116399    91A1    18.373081    60B1    18.555509  
      48A2    18.658538    77B2    18.712135    78B2    18.968959  
      92A1    19.055453    61B1    20.830299    49A2    20.912363  
      79B2    20.955870    93A1    21.146361    94A1    22.128046  
      80B2    22.825839    95A1    23.182018    81B2    23.832179  
      96A1    53.702521  

    Final Occupation by Irrep:
             A1    A2    B1    B2 
    DOCC [     3,    0,    0,    1 ]
    SOCC [     0,    0,    1,    0 ]

  Energy converged.

  @UHF Final Energy:   -55.59224545080016

   => Energetics <=

    Nuclear Repulsion Energy =              7.5761699881110092
    One-Electron Energy =                 -90.2073710320641027
    Two-Electron Energy =                  27.0389555931529415
    Total Energy =                        -55.5922454508001564


  UHF NO Occupations:
  HONO-2 :    1 B2 1.9990253
  HONO-1 :    3 A1 1.9968584
  HONO-0 :    1 B1 1.0000000
  LUNO+0 :    4 A1 0.0031416
  LUNO+1 :    2 B2 0.0009747
  LUNO+2 :    5 A1 0.0007185
  LUNO+3 :    6 A1 0.0000014



Properties will be evaluated at   0.000000,   0.000000,   0.000000 Bohr

Properties computed using the SCF density matrix

  Nuclear Dipole Moment: (a.u.)
     X:     0.0000      Y:     0.0000      Z:    -1.0416

  Electronic Dipole Moment: (a.u.)
     X:     0.0000      Y:     0.0000      Z:     0.2991

  Dipole Moment: (a.u.)
     X:     0.0000      Y:     0.0000      Z:    -0.7425     Total:     0.7425

  Dipole Moment: (Debye)
     X:     0.0000      Y:     0.0000      Z:    -1.8872     Total:     1.8872


*** tstop() called on cqc05 at Fri Aug 21 09:46:36 2020
Module time:
	user time   =     115.00 seconds =       1.92 minutes
	system time =       9.14 seconds =       0.15 minutes
	total time  =        124 seconds =       2.07 minutes
Total time:
	user time   =     115.00 seconds =       1.92 minutes
	system time =       9.14 seconds =       0.15 minutes
	total time  =        124 seconds =       2.07 minutes

*** tstart() called on cqc05
*** at Fri Aug 21 09:46:36 2020


	Wfn Parameters:
	--------------------
	Wavefunction         = CCSD
	Number of irreps     = 4
	Number of MOs        = 287
	Number of active MOs = 286
	AO-Basis             = NONE
	Semicanonical        = false
	Reference            = UHF
	Print Level          = 1

	IRREP	# MOs	# FZDC	# DOCC	# SOCC	# VIRT	# FZVR
	-----	-----	------	------	------	------	------
	 A1	   96	    1	    2	    0	    93	    0
	 A2	   49	    0	    0	    0	    49	    0
	 B1	   61	    0	    0	    1	    60	    0
	 B2	   81	    0	    1	    0	    80	    0
	Transforming integrals...
	IWL integrals will be deleted.
	(OO|OO)...
	Presorting SO-basis two-electron integrals.
	Sorting File: SO Ints (nn|nn) nbuckets = 1
	Transforming the one-electron integrals and constructing Fock matrices
	Starting AA/AB first half-transformation.
	Sorting AA/AB half-transformed integrals.
	Starting BB first half-transformation.
	Sorting BB half-transformed integrals.
	First half integral transformation complete.
	Starting AA second half-transformation.
	Starting AB second half-transformation.
	Starting BB second half-transformation.
	Two-electron integral transformation complete.
	(OO|OV)...
	Starting AA second half-transformation.
	Starting AB second half-transformation.
	Starting BB second half-transformation.
	Two-electron integral transformation complete.
	(OO|VV)...
	Starting AA second half-transformation.
	Starting AB second half-transformation.
	Starting BB second half-transformation.
	Two-electron integral transformation complete.
	(OV|OO)...
	Starting AA/AB first half-transformation.
	Sorting AA/AB half-transformed integrals.
	Starting BB first half-transformation.
	Sorting BB half-transformed integrals.
	First half integral transformation complete.
	Starting AA second half-transformation.
	Starting AB second half-transformation.
	Starting BB second half-transformation.
	Two-electron integral transformation complete.
	(OV|OV)...
	Starting AA second half-transformation.
	Starting AB second half-transformation.
	Starting BB second half-transformation.
	Two-electron integral transformation complete.
	(OV|VV)...
	Starting AA second half-transformation.
	Starting AB second half-transformation.
	Starting BB second half-transformation.
	Two-electron integral transformation complete.
	(VV|OO)...
	Starting AA/AB first half-transformation.
	Sorting AA/AB half-transformed integrals.
	Starting BB first half-transformation.
	Sorting BB half-transformed integrals.
	First half integral transformation complete.
	Starting AA second half-transformation.
	Starting AB second half-transformation.
	Starting BB second half-transformation.
	Two-electron integral transformation complete.
	(VV|OV)...
	Starting AA second half-transformation.
	Starting AB second half-transformation.
	Starting BB second half-transformation.
	Two-electron integral transformation complete.
	(VV|VV)...
	Starting AA second half-transformation.
	Starting AB second half-transformation.
	Starting BB second half-transformation.
	Two-electron integral transformation complete.
	Frozen core energy     =    -46.80390972309043

	Size of irrep 0 of <AB|CD> integrals:    107.827 (MW) /    862.620 (MB)
	Size of irrep 1 of <AB|CD> integrals:     87.553 (MW) /    700.428 (MB)
	Size of irrep 2 of <AB|CD> integrals:     90.250 (MW) /    722.000 (MB)
	Size of irrep 3 of <AB|CD> integrals:    107.744 (MW) /    861.955 (MB)
	Total:                                   393.375 (MW) /   3147.002 (MB)

	Size of irrep 0 of <ab|cd> integrals:    109.077 (MW) /    872.617 (MB)
	Size of irrep 1 of <ab|cd> integrals:     89.057 (MW) /    712.456 (MB)
	Size of irrep 2 of <ab|cd> integrals:     92.026 (MW) /    736.205 (MB)
	Size of irrep 3 of <ab|cd> integrals:    108.764 (MW) /    870.112 (MB)
	Total:                                   398.924 (MW) /   3191.390 (MB)

	Size of irrep 0 of <Ab|Cd> integrals:    445.632 (MW) /   3565.057 (MB)
	Size of irrep 1 of <Ab|Cd> integrals:    353.214 (MW) /   2825.715 (MB)
	Size of irrep 2 of <Ab|Cd> integrals:    364.543 (MW) /   2916.341 (MB)
	Size of irrep 3 of <Ab|Cd> integrals:    433.014 (MW) /   3464.116 (MB)
	Total:                                  1596.404 (MW) /  12771.229 (MB)

	Size of irrep 0 of <IA|BC> integrals:      6.862 (MW) /     54.898 (MB)
	Size of irrep 1 of <IA|BC> integrals:      4.454 (MW) /     35.631 (MB)
	Size of irrep 2 of <IA|BC> integrals:      4.978 (MW) /     39.824 (MB)
	Size of irrep 3 of <IA|BC> integrals:      6.270 (MW) /     50.156 (MB)
	Total:                                    22.564 (MW) /    180.510 (MB)

	Size of irrep 0 of <ia|bc> integrals:      5.631 (MW) /     45.052 (MB)
	Size of irrep 1 of <ia|bc> integrals:      3.001 (MW) /     24.008 (MB)
	Size of irrep 2 of <ia|bc> integrals:      3.281 (MW) /     26.246 (MB)
	Size of irrep 3 of <ia|bc> integrals:      5.277 (MW) /     42.217 (MB)
	Total:                                    17.190 (MW) /    137.523 (MB)

	Size of irrep 0 of <Ia|Bc> integrals:      6.903 (MW) /     55.224 (MB)
	Size of irrep 1 of <Ia|Bc> integrals:      4.492 (MW) /     35.934 (MB)
	Size of irrep 2 of <Ia|Bc> integrals:      5.041 (MW) /     40.324 (MB)
	Size of irrep 3 of <Ia|Bc> integrals:      6.284 (MW) /     50.275 (MB)
	Total:                                    22.720 (MW) /    181.757 (MB)

	Size of irrep 0 of <iA|bC> integrals:      5.615 (MW) /     44.922 (MB)
	Size of irrep 1 of <iA|bC> integrals:      2.969 (MW) /     23.756 (MB)
	Size of irrep 2 of <iA|bC> integrals:      3.227 (MW) /     25.814 (MB)
	Size of irrep 3 of <iA|bC> integrals:      5.265 (MW) /     42.117 (MB)
	Total:                                    17.076 (MW) /    136.609 (MB)

	Size of irrep 0 of tIjAb amplitudes:       0.106 (MW) /      0.844 (MB)
	Size of irrep 1 of tIjAb amplitudes:       0.019 (MW) /      0.150 (MB)
	Size of irrep 2 of tIjAb amplitudes:       0.038 (MW) /      0.305 (MB)
	Size of irrep 3 of tIjAb amplitudes:       0.083 (MW) /      0.666 (MB)
	Total:                                     0.246 (MW) /      1.966 (MB)

	Nuclear Rep. energy          =      7.57616998811101
	SCF energy                   =    -55.59224545080016
	One-electron energy          =    -27.75731672085651
	Two-electron (AA) energy     =      3.01815017676288
	Two-electron (BB) energy     =      1.38663698539313
	Two-electron (AB) energy     =      6.98802384287918
	Two-electron energy          =     11.39281100503519
	Reference energy             =    -55.59224545080075

*** tstop() called on cqc05 at Fri Aug 21 09:55:41 2020
Module time:
	user time   =     177.18 seconds =       2.95 minutes
	system time =      92.83 seconds =       1.55 minutes
	total time  =        545 seconds =       9.08 minutes
Total time:
	user time   =     292.18 seconds =       4.87 minutes
	system time =     101.97 seconds =       1.70 minutes
	total time  =        669 seconds =      11.15 minutes

*** tstart() called on cqc05
*** at Fri Aug 21 09:55:41 2020

            **************************
            *                        *
            *        CCENERGY        *
            *                        *
            **************************

    Nuclear Rep. energy (wfn)     =    7.576169988111009
    SCF energy          (wfn)     =  -55.592245450800156
    Reference energy    (file100) =  -55.592245450800746

    Input parameters:
    -----------------
    Wave function   =     CCSD
    Reference wfn   =     UHF
    Brueckner       =     No
    Memory (Mbytes) =     250000.0
    Maxiter         =     50
    R_Convergence   =     1.0e-07
    E_Convergence   =     1.0e-06
    Restart         =     Yes
    DIIS            =     Yes
    AO Basis        =     NONE
    ABCD            =     NEW
    Cache Level     =     2
    Cache Type      =     LRU
    Print Level     =     1
    Num. of threads =     4
    # Amps to Print =     10
    Print MP2 Amps? =     No
    Analyze T2 Amps =     No
    Print Pair Ener =     No
    Local CC        =     No
    SCS-MP2         =     False
    SCSN-MP2        =     False
    SCS-CCSD        =     False

MP2 correlation energy -0.2047104228328216
                Solving CC Amplitude Equations
                ------------------------------
  Iter             Energy              RMS        T1Diag      D1Diag    New D1Diag    D2Diag
  ----     ---------------------    ---------   ----------  ----------  ----------   --------
     0        -0.204710422832830    0.000e+00    0.000000    0.000000    0.000000    0.000000
     1        -0.212197501833087    3.912e-02    0.009508    0.000000    0.000000    0.000000
     2        -0.217245919788446    1.398e-02    0.011850    0.000000    0.000000    0.000000
     3        -0.217984241308044    5.797e-03    0.013702    0.000000    0.000000    0.000000
     4        -0.217942885494563    2.074e-03    0.014187    0.000000    0.000000    0.000000
     5        -0.217956425244704    8.487e-04    0.014315    0.000000    0.000000    0.000000
     6        -0.217964510807719    3.294e-04    0.014313    0.000000    0.000000    0.000000
     7        -0.217965147284853    1.101e-04    0.014297    0.000000    0.000000    0.000000
     8        -0.217966630801015    4.325e-05    0.014289    0.000000    0.000000    0.000000
     9        -0.217966617228371    1.527e-05    0.014288    0.000000    0.000000    0.000000
    10        -0.217966564403674    6.583e-06    0.014287    0.000000    0.000000    0.000000
    11        -0.217966634340966    2.756e-06    0.014287    0.000000    0.000000    0.000000
    12        -0.217966652792805    1.236e-06    0.014288    0.000000    0.000000    0.000000
    13        -0.217966664289708    4.498e-07    0.014288    0.000000    0.000000    0.000000
    14        -0.217966667764217    1.708e-07    0.014288    0.000000    0.000000    0.000000
    15        -0.217966667992351    7.563e-08    0.014288    0.000000    0.000000    0.000000
    15        -0.217966667992351    7.563e-08    0.014288    0.000000    0.000000    0.000000

    Iterations converged.


    CCSD corr. energy   =   -0.217966667992351
    PPL corr. energy    =    0.054543391739171
    OS PPL corr. energy =    0.047147788292372
    SS PPL corr. energy =    0.007395603446800
    Largest TIA Amplitudes:
              2 143        -0.0113640047
              2 142        -0.0110893995
              2 145        -0.0103107830
              1   1        -0.0057548228
              1   4         0.0050106655
              1   8         0.0044864576
              2 146        -0.0043159486
              2 149        -0.0042601001
              3 219         0.0034434506
              1  25         0.0032186251

    Largest Tia Amplitudes:
              2 213         0.0077448578
              0  12        -0.0077355221
              2 220         0.0056813914
              0   5         0.0053710591
              2 208         0.0052635069
              0  10         0.0049683055
              1   4         0.0049023621
              0  21         0.0046274389
              1   7         0.0045636487
              2 209         0.0045037352

    Largest TIJAB Amplitudes:
      2   1 145   9        -0.0104612944
      3   1 207   8         0.0104066322
      3   2 212 145        -0.0096416161
      3   2 207 145        -0.0086076656
      3   1 207  14        -0.0081715252
      3   1 212   8         0.0081147989
      3   1 208   8         0.0080249351
      2   1 149   9        -0.0077885456
      2   1 145   4         0.0076880379
      3   1 212  14        -0.0074927494

    Largest Tijab Amplitudes:
      2   1 208   8         0.0106435264
      2   1 213   8         0.0084434179
      2   1 209   8         0.0084317115
      2   1 208  14        -0.0067905837
      2   1 213  14        -0.0066825686
      2   1 205   8         0.0065807613
      2   1 212  13         0.0064987527
      2   1 212   8         0.0064478105
      1   0 150 143         0.0063778185
      2   1 208  13         0.0060057629

    Largest TIjAb Amplitudes:
      3   2 212 213        -0.0221535928
      3   2 207 208        -0.0195966839
      3   2 207 213        -0.0194268998
      3   2 212 208        -0.0189332996
      3   2 208 213        -0.0170742163
      3   2 207 209        -0.0169971177
      3   2 212 209        -0.0168906324
      3   2 208 208        -0.0166038227
      1   1 207 208        -0.0162150883
      3   2  12  12        -0.0153291052

    SCF energy       (wfn)                    =  -55.592245450800156
    Reference energy (file100)                =  -55.592245450800746

    Opposite-spin MP2 correlation energy      =   -0.162132411360299
    Same-spin MP2 correlation energy          =   -0.042578011472296
    MP2 correlation energy                    =   -0.204710422832822
      * MP2 total energy                      =  -55.796955873633564

    Opposite-spin CCSD correlation energy     =   -0.177386358831853
    Same-spin CCSD correlation energy         =   -0.040580305952805
    CCSD correlation energy                   =   -0.217966667992351
      * CCSD total energy                     =  -55.810212118793096


*** tstop() called on cqc05 at Fri Aug 21 09:59:07 2020
Module time:
	user time   =      89.32 seconds =       1.49 minutes
	system time =     114.04 seconds =       1.90 minutes
	total time  =        206 seconds =       3.43 minutes
Total time:
	user time   =     381.50 seconds =       6.36 minutes
	system time =     216.01 seconds =       3.60 minutes
	total time  =        875 seconds =      14.58 minutes

*** Psi4 exiting successfully. Buy a developer a beer!
