
    -----------------------------------------------------------------------
          Psi4: An Open-Source Ab Initio Electronic Structure Package
                               Psi4 1.2a1.dev939 

                         Git: Rev {HEAD} fa1ec19 


    R. M. Parrish, L. A. Burns, D. G. A. Smith, A. C. Simmonett,
    A. E. DePrince III, E. G. Hohenstein, U. Bozkaya, A. Yu. Sokolov,
    R. Di Remigio, R. M. Richard, J. F. Gonthier, A. M. James,
    H. R. McAlexander, A. Kumar, M. Saitow, X. Wang, B. P. Pritchard,
    P. Verma, H. F. Schaefer III, K. Patkowski, R. A. King, E. F. Valeev,
    F. A. Evangelista, J. M. Turney, T. D. Crawford, and C. D. Sherrill,
    J. Chem. Theory Comput. 13(7) pp 3185--3197 (2017).
    (doi: 10.1021/acs.jctc.7b00174)

    -----------------------------------------------------------------------


    Psi4 started on: Tuesday, 30 April 2019 10:31AM

    Process ID:   4561
    PSIDATADIR: /home/grueneis/src/psi4/objdir/stage/usr/local/psi4/share/psi4
    Memory:     500.0 MiB
    Threads:    1
    
  ==> Input File <==

--------------------------------------------------------------------------
# Any line starting with the # character is a comment line

memory 32000 mb

molecule molecule {
0 1
C          0.0000000000        0.0000000000        0.0997864858
H          0.0000000000       -0.8589352290       -0.5945470372
H          0.0000000000        0.8589352290       -0.5945470372
}

set {
  reference rhf
  guess gwh
  basis aug-cc-pv(T+d)z
  scf_type OUT_OF_CORE
  freeze_core true
}

energy('ccsd')
--------------------------------------------------------------------------

  Memory set to  29.802 GiB by Python driver.

*** tstart() called on cqc01
*** at Tue Apr 30 10:31:42 2019

   => Loading Basis Set <=

    Name: AUG-CC-PV(T+D)Z
    Role: ORBITAL
    Keyword: BASIS
    atoms 1   entry C          line   255 file /home/grueneis/src/psi4/objdir/stage/usr/local/psi4/share/psi4/basis/aug-cc-pv_tpd_z.gbs 
    atoms 2-3 entry H          line    56 file /home/grueneis/src/psi4/objdir/stage/usr/local/psi4/share/psi4/basis/aug-cc-pv_tpd_z.gbs 


         ---------------------------------------------------------
                                   SCF
            by Justin Turney, Rob Parrish, Andy Simmonett
                             and Daniel Smith
                              RHF Reference
                        1 Threads,  30517 MiB Core
         ---------------------------------------------------------

  ==> Geometry <==

    Molecular point group: c2v
    Full point group: C2v

    Geometry (in Angstrom), charge = 0, multiplicity = 1:

       Center              X                  Y                   Z               Mass       
    ------------   -----------------  -----------------  -----------------  -----------------
           C          0.000000000000     0.000000000000     0.099855048019    12.000000000000
           H          0.000000000000    -0.858935229000    -0.594478474981     1.007825032070
           H         -0.000000000000     0.858935229000    -0.594478474981     1.007825032070

  Running in c2v symmetry.

  Rotational constants: A =     20.26176  B =     11.33602  C =      7.26911 [cm^-1]
  Rotational constants: A = 607432.17357  B = 339845.26876  C = 217922.37528 [MHz]
  Nuclear repulsion =    6.057486193568077

  Charge       = 0
  Multiplicity = 1
  Electrons    = 8
  Nalpha       = 4
  Nbeta        = 4

  ==> Algorithm <==

  SCF Algorithm Type is OUT_OF_CORE.
  DIIS enabled.
  MOM disabled.
  Fractional occupation disabled.
  Guess Type is GWH.
  Energy threshold   = 1.00e-08
  Density threshold  = 1.00e-08
  Integral threshold = 0.00e+00

  ==> Primary Basis <==

  Basis Set: AUG-CC-PV(T+D)Z
    Blend: AUG-CC-PV(T+D)Z
    Number of shells: 32
    Number of basis function: 92
    Number of Cartesian functions: 105
    Spherical Harmonics?: true
    Max angular momentum: 3

  ==> Pre-Iterations <==

   -------------------------------------------------------
    Irrep   Nso     Nmo     Nalpha   Nbeta   Ndocc  Nsocc
   -------------------------------------------------------
     A1        35      35       0       0       0       0
     A2        12      12       0       0       0       0
     B1        18      18       0       0       0       0
     B2        27      27       0       0       0       0
   -------------------------------------------------------
    Total      92      92       4       4       4       0
   -------------------------------------------------------

  ==> Integral Setup <==

  ==> DiskJK: Disk-Based J/K Matrices <==

    J tasked:                  Yes
    K tasked:                  Yes
    wK tasked:                  No
    Memory (MB):             22888
    Schwarz Cutoff:          1E-12

  Minimum eigenvalue in the overlap matrix is 1.4750290924E-04.
  Using Symmetric Orthogonalization.

  SCF Guess: Generalized Wolfsberg-Helmholtz.

  ==> Iterations <==

                        Total Energy        Delta E     RMS |[F,P]|

   @RHF iter   1:   -34.85598752350675   -3.48560e+01   6.24508e-02 
   @RHF iter   2:   -38.79198310821634   -3.93600e+00   7.38483e-03 DIIS
   @RHF iter   3:   -38.88628235407790   -9.42992e-02   1.65316e-03 DIIS
   @RHF iter   4:   -38.89262081629226   -6.33846e-03   4.89143e-04 DIIS
   @RHF iter   5:   -38.89334804258490   -7.27226e-04   1.42442e-04 DIIS
   @RHF iter   6:   -38.89342360192942   -7.55593e-05   3.34807e-05 DIIS
   @RHF iter   7:   -38.89342857178311   -4.96985e-06   5.38238e-06 DIIS
   @RHF iter   8:   -38.89342868298699   -1.11204e-07   8.31181e-07 DIIS
   @RHF iter   9:   -38.89342868688668   -3.89969e-09   1.75120e-07 DIIS
   @RHF iter  10:   -38.89342868707557   -1.88891e-10   2.44961e-08 DIIS
   @RHF iter  11:   -38.89342868707797   -2.40163e-12   3.84841e-09 DIIS

  ==> Post-Iterations <==

    Orbital Energies (a.u.)
    -----------------------

    Doubly Occupied:                                                      

       1A1   -11.293058     2A1    -0.894731     1B2    -0.566809  
       3A1    -0.396356  

    Virtual:                                                              

       1B1     0.024725     4A1     0.028565     2B2     0.047165  
       5A1     0.094515     2B1     0.121802     3B2     0.129881  
       6A1     0.142830     4B2     0.220102     7A1     0.240093  
       8A1     0.260734     1A2     0.266514     3B1     0.282043  
       5B2     0.338829     9A1     0.351848     4B1     0.371490  
       6B2     0.378291     2A2     0.396946    10A1     0.401087  
      11A1     0.417797     7B2     0.429875     8B2     0.631763  
      12A1     0.635131     5B1     0.637887    13A1     0.703552  
       6B1     0.819635    14A1     0.835107     9B2     0.845252  
       3A2     0.847562     7B1     0.936443    10B2     0.946455  
      15A1     0.960861    11B2     0.985653     4A2     1.027697  
      16A1     1.031921    12B2     1.063872    17A1     1.076615  
       8B1     1.110711    18A1     1.135717     5A2     1.166228  
       9B1     1.276083    19A1     1.284674    13B2     1.304922  
       6A2     1.333559    20A1     1.445763    10B1     1.458519  
      14B2     1.525342    21A1     1.536056    15B2     1.623191  
      11B1     1.700041    16B2     1.836733    17B2     1.966702  
       7A2     1.968922    22A1     2.056362    23A1     2.188255  
      12B1     2.833452    24A1     2.871704    18B2     2.917513  
      25A1     3.065263     8A2     3.218959    13B1     3.289152  
      26A1     3.350706    14B1     3.412707    19B2     3.482710  
      27A1     3.519593    20B2     3.566391    15B1     3.615516  
      28A1     3.631556     9A2     3.700472    21B2     3.757826  
      29A1     3.874344    10A2     3.974682    22B2     4.018893  
      23B2     4.198546    30A1     4.223512    16B1     4.354353  
      31A1     4.511384    17B1     4.575316    11A2     4.678382  
      24B2     4.852650    25B2     5.036057    18B1     5.041739  
      12A2     5.184833    32A1     5.266276    33A1     5.325553  
      26B2     5.601888    34A1     5.681851    27B2     6.504085  
      35A1    14.323729  

    Final Occupation by Irrep:
             A1    A2    B1    B2 
    DOCC [     3,    0,    0,    1 ]

  Energy converged.

  @RHF Final Energy:   -38.89342868707797

   => Energetics <=

    Nuclear Repulsion Energy =              6.0574861935680770
    One-Electron Energy =                 -63.5999196367329560
    Two-Electron Energy =                  18.6490047560869066
    Total Energy =                        -38.8934286870779715



Properties will be evaluated at   0.000000,   0.000000,   0.000000 Bohr

Properties computed using the SCF density matrix

  Nuclear Dipole Moment: (a.u.)
     X:     0.0000      Y:     0.0000      Z:    -1.1146

  Electronic Dipole Moment: (a.u.)
     X:     0.0000      Y:     0.0000      Z:     0.3679

  Dipole Moment: (a.u.)
     X:     0.0000      Y:     0.0000      Z:    -0.7467     Total:     0.7467

  Dipole Moment: (Debye)
     X:     0.0000      Y:     0.0000      Z:    -1.8980     Total:     1.8980


*** tstop() called on cqc01 at Tue Apr 30 10:31:43 2019
Module time:
	user time   =       1.15 seconds =       0.02 minutes
	system time =       1.13 seconds =       0.02 minutes
	total time  =          1 seconds =       0.02 minutes
Total time:
	user time   =       1.15 seconds =       0.02 minutes
	system time =       1.13 seconds =       0.02 minutes
	total time  =          1 seconds =       0.02 minutes

*** tstart() called on cqc01
*** at Tue Apr 30 10:31:43 2019


	Wfn Parameters:
	--------------------
	Wavefunction         = CCSD
	Number of irreps     = 4
	Number of MOs        = 92
	Number of active MOs = 91
	AO-Basis             = NONE
	Semicanonical        = false
	Reference            = RHF
	Print Level          = 1

	IRREP	# MOs	# FZDC	# DOCC	# SOCC	# VIRT	# FZVR
	-----	-----	------	------	------	------	------
	 A1	   35	    1	    2	    0	    32	    0
	 A2	   12	    0	    0	    0	    12	    0
	 B1	   18	    0	    0	    0	    18	    0
	 B2	   27	    0	    1	    0	    26	    0
	Transforming integrals...
	IWL integrals will be deleted.
	(OO|OO)...
	Presorting SO-basis two-electron integrals.
	Sorting File: SO Ints (nn|nn) nbuckets = 1
	Transforming the one-electron integrals and constructing Fock matrices
	Starting first half-transformation.
	Sorting half-transformed integrals.
	First half integral transformation complete.
	Starting second half-transformation.
	Two-electron integral transformation complete.
	(OO|OV)...
	Starting second half-transformation.
	Two-electron integral transformation complete.
	(OO|VV)...
	Starting second half-transformation.
	Two-electron integral transformation complete.
	(OV|OO)...
	Starting first half-transformation.
	Sorting half-transformed integrals.
	First half integral transformation complete.
	Starting second half-transformation.
	Two-electron integral transformation complete.
	(OV|OV)...
	Starting second half-transformation.
	Two-electron integral transformation complete.
	(OV|VV)...
	Starting second half-transformation.
	Two-electron integral transformation complete.
	(VV|OO)...
	Starting first half-transformation.
	Sorting half-transformed integrals.
	First half integral transformation complete.
	Starting second half-transformation.
	Two-electron integral transformation complete.
	(VV|OV)...
	Starting second half-transformation.
	Two-electron integral transformation complete.
	(VV|VV)...
	Starting second half-transformation.
	Two-electron integral transformation complete.
	Frozen core energy     =    -34.27584434565593

	Size of irrep 0 of <ab|cd> integrals:      4.700 (MW) /     37.602 (MB)
	Size of irrep 1 of <ab|cd> integrals:      2.904 (MW) /     23.229 (MB)
	Size of irrep 2 of <ab|cd> integrals:      3.154 (MW) /     25.233 (MB)
	Size of irrep 3 of <ab|cd> integrals:      4.393 (MW) /     35.146 (MB)
	Total:                                    15.151 (MW) /    121.210 (MB)

	Size of irrep 0 of <ia|bc> integrals:      0.195 (MW) /      1.561 (MB)
	Size of irrep 1 of <ia|bc> integrals:      0.072 (MW) /      0.573 (MB)
	Size of irrep 2 of <ia|bc> integrals:      0.085 (MW) /      0.682 (MB)
	Size of irrep 3 of <ia|bc> integrals:      0.176 (MW) /      1.409 (MB)
	Total:                                     0.528 (MW) /      4.224 (MB)

	Size of irrep 0 of tijab amplitudes:       0.011 (MW) /      0.087 (MB)
	Size of irrep 1 of tijab amplitudes:       0.000 (MW) /      0.000 (MB)
	Size of irrep 2 of tijab amplitudes:       0.000 (MW) /      0.000 (MB)
	Size of irrep 3 of tijab amplitudes:       0.008 (MW) /      0.067 (MB)
	Total:                                     0.019 (MW) /      0.154 (MB)

	Nuclear Rep. energy          =      6.05748619356808
	SCF energy                   =    -38.89342868707797
	One-electron energy          =    -17.63434794516239
	Two-electron energy          =      6.95927741017234
	Reference energy             =    -38.89342868707789

*** tstop() called on cqc01 at Tue Apr 30 10:31:44 2019
Module time:
	user time   =       0.74 seconds =       0.01 minutes
	system time =       0.59 seconds =       0.01 minutes
	total time  =          1 seconds =       0.02 minutes
Total time:
	user time   =       1.89 seconds =       0.03 minutes
	system time =       1.72 seconds =       0.03 minutes
	total time  =          2 seconds =       0.03 minutes

*** tstart() called on cqc01
*** at Tue Apr 30 10:31:44 2019

            **************************
            *                        *
            *        CCENERGY        *
            *                        *
            **************************

    Nuclear Rep. energy (wfn)     =    6.057486193568077
    SCF energy          (wfn)     =  -38.893428687077972
    Reference energy    (file100) =  -38.893428687077893

    Input parameters:
    -----------------
    Wave function   =     CCSD
    Reference wfn   =     RHF
    Brueckner       =     No
    Memory (Mbytes) =     32000.0
    Maxiter         =     50
    R_Convergence   =     1.0e-07
    E_Convergence   =     1.0e-06
    Restart         =     Yes
    DIIS            =     Yes
    AO Basis        =     NONE
    ABCD            =     NEW
    Cache Level     =     2
    Cache Type      =     LOW
    Print Level     =     1
    Num. of threads =     1
    # Amps to Print =     10
    Print MP2 Amps? =     No
    Analyze T2 Amps =     No
    Print Pair Ener =     No
    Local CC        =     No
    SCS-MP2         =     False
    SCSN-MP2        =     False
    SCS-CCSD        =     False

MP2 correlation energy -0.1409828282783556
                Solving CC Amplitude Equations
                ------------------------------
  Iter             Energy              RMS        T1Diag      D1Diag    New D1Diag    D2Diag
  ----     ---------------------    ---------   ----------  ----------  ----------   --------
     0        -0.140982828278346    0.000e+00    0.000000    0.000000    0.000000    0.129056
     1        -0.179409108735876    1.403e-01    0.010822    0.019509    0.019509    0.196983
     2        -0.166299829396499    2.496e-02    0.008674    0.017665    0.017665    0.191609
     3        -0.165436871611835    8.893e-03    0.008935    0.018541    0.018541    0.195083
     4        -0.165559023368249    6.116e-03    0.009119    0.019281    0.019281    0.201318
     5        -0.165835507694643    3.426e-03    0.009382    0.020095    0.020095    0.207900
     6        -0.166025706654424    1.005e-03    0.009411    0.020130    0.020130    0.209725
     7        -0.166059029029458    2.894e-04    0.009380    0.020041    0.020041    0.209985
     8        -0.166045765854423    1.074e-04    0.009360    0.019986    0.019986    0.209960
     9        -0.166042573055341    4.087e-05    0.009351    0.019960    0.019960    0.209950
    10        -0.166042220078925    1.240e-05    0.009348    0.019952    0.019952    0.209947
    11        -0.166041990325488    3.160e-06    0.009348    0.019950    0.019950    0.209945
    12        -0.166041918590198    1.077e-06    0.009348    0.019950    0.019950    0.209945
    13        -0.166041894936805    3.840e-07    0.009348    0.019950    0.019950    0.209945
    14        -0.166041892213808    1.337e-07    0.009348    0.019950    0.019950    0.209945
    15        -0.166041896002487    5.102e-08    0.009348    0.019950    0.019950    0.209946
    15        -0.166041896002487    5.102e-08    0.009348    0.019950    0.019950    0.209946

    Iterations converged.


    CCSD corr. energy   =   -0.166041896002487
    PPL corr. energy    =    0.049798749344531
    OS PPL corr. energy =    0.045811547109880
    SS PPL corr. energy =    0.003987202234650
    Largest TIA Amplitudes:
              1   4        -0.0094740937
              1   7        -0.0063135003
              0   9        -0.0057255550
              1   2         0.0051003087
              1  14        -0.0049190670
              0   4         0.0044050724
              1  10        -0.0043131315
              0   6        -0.0041893098
              1   9         0.0040572895
              1   8        -0.0039547048

    Largest TIjAb Amplitudes:
      1   1  44  44        -0.1365527277
      1   1  44  45        -0.0918604360
      1   1  45  44        -0.0918604360
      1   1  45  45        -0.0625001968
      1   1  44  46        -0.0435127499
      1   1  46  44        -0.0435127499
      0   0  44  44        -0.0406686478
      1   1  44  48        -0.0387090507
      1   1  48  44        -0.0387090507
      0   0  44  45        -0.0321268175

    SCF energy       (wfn)                    =  -38.893428687077972
    Reference energy (file100)                =  -38.893428687077893

    Opposite-spin MP2 correlation energy      =   -0.120132778870084
    Same-spin MP2 correlation energy          =   -0.020850049408262
    MP2 correlation energy                    =   -0.140982828278356
      * MP2 total energy                      =  -39.034411515356247

    Opposite-spin CCSD correlation energy     =   -0.145261570044165
    Same-spin CCSD correlation energy         =   -0.020780326179480
    CCSD correlation energy                   =   -0.166041896002487
      * CCSD total energy                     =  -39.059470583080383


*** tstop() called on cqc01 at Tue Apr 30 10:31:46 2019
Module time:
	user time   =       1.45 seconds =       0.02 minutes
	system time =       3.62 seconds =       0.06 minutes
	total time  =          2 seconds =       0.03 minutes
Total time:
	user time   =       3.34 seconds =       0.06 minutes
	system time =       5.34 seconds =       0.09 minutes
	total time  =          4 seconds =       0.07 minutes

*** Psi4 exiting successfully. Buy a developer a beer!
