
    -----------------------------------------------------------------------
          Psi4: An Open-Source Ab Initio Electronic Structure Package
                               Psi4 1.2a1.dev939 

                         Git: Rev {HEAD} fa1ec19 


    R. M. Parrish, L. A. Burns, D. G. A. Smith, A. C. Simmonett,
    A. E. DePrince III, E. G. Hohenstein, U. Bozkaya, A. Yu. Sokolov,
    R. Di Remigio, R. M. Richard, J. F. Gonthier, A. M. James,
    H. R. McAlexander, A. Kumar, M. Saitow, X. Wang, B. P. Pritchard,
    P. Verma, H. F. Schaefer III, K. Patkowski, R. A. King, E. F. Valeev,
    F. A. Evangelista, J. M. Turney, T. D. Crawford, and C. D. Sherrill,
    J. Chem. Theory Comput. 13(7) pp 3185--3197 (2017).
    (doi: 10.1021/acs.jctc.7b00174)

    -----------------------------------------------------------------------


    Psi4 started on: Friday, 26 April 2019 03:28PM

    Process ID:  12707
    PSIDATADIR: /home/grueneis/src/psi4/objdir/stage/usr/local/psi4/share/psi4
    Memory:     500.0 MiB
    Threads:    1
    
  ==> Input File <==

--------------------------------------------------------------------------
# Any line starting with the # character is a comment line

memory 32000 mb

molecule molecule {
0 1
C          0.0000000000        0.0000000000        0.0997864858
H          0.0000000000       -0.8589352290       -0.5945470372
H          0.0000000000        0.8589352290       -0.5945470372
}

set {
  reference rhf
  basis aug-cc-pv(D+d)z
  scf_type OUT_OF_CORE
  freeze_core true
}

energy('ccsd')
--------------------------------------------------------------------------

  Memory set to  29.802 GiB by Python driver.

*** tstart() called on cqc01
*** at Fri Apr 26 15:28:16 2019

   => Loading Basis Set <=

    Name: AUG-CC-PV(D+D)Z
    Role: ORBITAL
    Keyword: BASIS
    atoms 1   entry C          line   198 file /home/grueneis/src/psi4/objdir/stage/usr/local/psi4/share/psi4/basis/aug-cc-pv_dpd_z.gbs 
    atoms 2-3 entry H          line    56 file /home/grueneis/src/psi4/objdir/stage/usr/local/psi4/share/psi4/basis/aug-cc-pv_dpd_z.gbs 


         ---------------------------------------------------------
                                   SCF
            by Justin Turney, Rob Parrish, Andy Simmonett
                             and Daniel Smith
                              RHF Reference
                        1 Threads,  30517 MiB Core
         ---------------------------------------------------------

  ==> Geometry <==

    Molecular point group: c2v
    Full point group: C2v

    Geometry (in Angstrom), charge = 0, multiplicity = 1:

       Center              X                  Y                   Z               Mass       
    ------------   -----------------  -----------------  -----------------  -----------------
           C          0.000000000000     0.000000000000     0.099855048019    12.000000000000
           H          0.000000000000    -0.858935229000    -0.594478474981     1.007825032070
           H         -0.000000000000     0.858935229000    -0.594478474981     1.007825032070

  Running in c2v symmetry.

  Rotational constants: A =     20.26176  B =     11.33602  C =      7.26911 [cm^-1]
  Rotational constants: A = 607432.17357  B = 339845.26876  C = 217922.37528 [MHz]
  Nuclear repulsion =    6.057486193568077

  Charge       = 0
  Multiplicity = 1
  Electrons    = 8
  Nalpha       = 4
  Nbeta        = 4

  ==> Algorithm <==

  SCF Algorithm Type is OUT_OF_CORE.
  DIIS enabled.
  MOM disabled.
  Fractional occupation disabled.
  Guess Type is SAD.
  Energy threshold   = 1.00e-08
  Density threshold  = 1.00e-08
  Integral threshold = 0.00e+00

  ==> Primary Basis <==

  Basis Set: AUG-CC-PV(D+D)Z
    Blend: AUG-CC-PV(D+D)Z
    Number of shells: 19
    Number of basis function: 41
    Number of Cartesian functions: 43
    Spherical Harmonics?: true
    Max angular momentum: 2

  ==> Pre-Iterations <==

   -------------------------------------------------------
    Irrep   Nso     Nmo     Nalpha   Nbeta   Ndocc  Nsocc
   -------------------------------------------------------
     A1        18      18       0       0       0       0
     A2         4       4       0       0       0       0
     B1         7       7       0       0       0       0
     B2        12      12       0       0       0       0
   -------------------------------------------------------
    Total      41      41       4       4       4       0
   -------------------------------------------------------

  ==> Integral Setup <==

  ==> DiskJK: Disk-Based J/K Matrices <==

    J tasked:                  Yes
    K tasked:                  Yes
    wK tasked:                  No
    Memory (MB):             22888
    Schwarz Cutoff:          1E-12

  Minimum eigenvalue in the overlap matrix is 8.7258894578E-04.
  Using Symmetric Orthogonalization.

  SCF Guess: Superposition of Atomic Densities via on-the-fly atomic UHF.

  ==> Iterations <==

                        Total Energy        Delta E     RMS |[F,P]|

   @RHF iter   0:   -38.79793836909397   -3.87979e+01   4.58662e-02 
   @RHF iter   1:   -38.87191171677010   -7.39733e-02   5.22425e-03 
   @RHF iter   2:   -38.88350654677198   -1.15948e-02   1.09381e-03 DIIS
   @RHF iter   3:   -38.88425406219303   -7.47515e-04   3.36871e-04 DIIS
   @RHF iter   4:   -38.88436927005299   -1.15208e-04   9.41568e-05 DIIS
   @RHF iter   5:   -38.88437877663304   -9.50658e-06   2.40822e-05 DIIS
   @RHF iter   6:   -38.88437943687575   -6.60243e-07   3.63773e-06 DIIS
   @RHF iter   7:   -38.88437944936912   -1.24934e-08   4.90262e-07 DIIS
   @RHF iter   8:   -38.88437944959368   -2.24560e-10   7.05317e-08 DIIS
   @RHF iter   9:   -38.88437944959797   -4.28457e-12   7.74969e-09 DIIS

  ==> Post-Iterations <==

    Orbital Energies (a.u.)
    -----------------------

    Doubly Occupied:                                                      

       1A1   -11.301027     2A1    -0.895514     1B2    -0.565736  
       3A1    -0.395510  

    Virtual:                                                              

       1B1     0.025930     4A1     0.035460     2B2     0.059789  
       5A1     0.118667     2B1     0.151841     3B2     0.152015  
       6A1     0.178891     4B2     0.290760     7A1     0.300214  
       8A1     0.347315     1A2     0.364688     3B1     0.390895  
       5B2     0.452149     9A1     0.506608     6B2     0.547699  
       4B1     0.571173    10A1     0.573432     7B2     0.611851  
       2A2     0.614654    11A1     0.653367     5B1     0.920411  
       8B2     0.925097    12A1     0.950524    13A1     0.981580  
       9B2     1.333707     3A2     1.515041     6B1     1.583390  
      14A1     1.585166    15A1     1.685012    10B2     1.966712  
      16A1     2.075795     7B1     2.129977     4A2     2.179829  
      11B2     2.185109    17A1     2.396946    18A1     2.715381  
      12B2     2.803953  

    Final Occupation by Irrep:
             A1    A2    B1    B2 
    DOCC [     3,    0,    0,    1 ]

  Energy converged.

  @RHF Final Energy:   -38.88437944959797

   => Energetics <=

    Nuclear Repulsion Energy =              6.0574861935680770
    One-Electron Energy =                 -63.5681580591690789
    Two-Electron Energy =                  18.6262924160030430
    Total Energy =                        -38.8843794495979580



Properties will be evaluated at   0.000000,   0.000000,   0.000000 Bohr

Properties computed using the SCF density matrix

  Nuclear Dipole Moment: (a.u.)
     X:     0.0000      Y:     0.0000      Z:    -1.1146

  Electronic Dipole Moment: (a.u.)
     X:     0.0000      Y:     0.0000      Z:     0.3639

  Dipole Moment: (a.u.)
     X:     0.0000      Y:     0.0000      Z:    -0.7507     Total:     0.7507

  Dipole Moment: (Debye)
     X:     0.0000      Y:     0.0000      Z:    -1.9082     Total:     1.9082


*** tstop() called on cqc01 at Fri Apr 26 15:28:17 2019
Module time:
	user time   =       0.46 seconds =       0.01 minutes
	system time =       0.36 seconds =       0.01 minutes
	total time  =          1 seconds =       0.02 minutes
Total time:
	user time   =       0.46 seconds =       0.01 minutes
	system time =       0.36 seconds =       0.01 minutes
	total time  =          1 seconds =       0.02 minutes

*** tstart() called on cqc01
*** at Fri Apr 26 15:28:17 2019


	Wfn Parameters:
	--------------------
	Wavefunction         = CCSD
	Number of irreps     = 4
	Number of MOs        = 41
	Number of active MOs = 40
	AO-Basis             = NONE
	Semicanonical        = false
	Reference            = RHF
	Print Level          = 1

	IRREP	# MOs	# FZDC	# DOCC	# SOCC	# VIRT	# FZVR
	-----	-----	------	------	------	------	------
	 A1	   18	    1	    2	    0	    15	    0
	 A2	   4	    0	    0	    0	    4	    0
	 B1	   7	    0	    0	    0	    7	    0
	 B2	   12	    0	    1	    0	    11	    0
	Transforming integrals...
	IWL integrals will be deleted.
	(OO|OO)...
	Presorting SO-basis two-electron integrals.
	Sorting File: SO Ints (nn|nn) nbuckets = 1
	Transforming the one-electron integrals and constructing Fock matrices
	Starting first half-transformation.
	Sorting half-transformed integrals.
	First half integral transformation complete.
	Starting second half-transformation.
	Two-electron integral transformation complete.
	(OO|OV)...
	Starting second half-transformation.
	Two-electron integral transformation complete.
	(OO|VV)...
	Starting second half-transformation.
	Two-electron integral transformation complete.
	(OV|OO)...
	Starting first half-transformation.
	Sorting half-transformed integrals.
	First half integral transformation complete.
	Starting second half-transformation.
	Two-electron integral transformation complete.
	(OV|OV)...
	Starting second half-transformation.
	Two-electron integral transformation complete.
	(OV|VV)...
	Starting second half-transformation.
	Two-electron integral transformation complete.
	(VV|OO)...
	Starting first half-transformation.
	Sorting half-transformed integrals.
	First half integral transformation complete.
	Starting second half-transformation.
	Two-electron integral transformation complete.
	(VV|OV)...
	Starting second half-transformation.
	Two-electron integral transformation complete.
	(VV|VV)...
	Starting second half-transformation.
	Two-electron integral transformation complete.
	Frozen core energy     =    -34.27558703017770

	Size of irrep 0 of <ab|cd> integrals:      0.169 (MW) /      1.351 (MB)
	Size of irrep 1 of <ab|cd> integrals:      0.075 (MW) /      0.601 (MB)
	Size of irrep 2 of <ab|cd> integrals:      0.089 (MW) /      0.710 (MB)
	Size of irrep 3 of <ab|cd> integrals:      0.149 (MW) /      1.192 (MB)
	Total:                                     0.482 (MW) /      3.854 (MB)

	Size of irrep 0 of <ia|bc> integrals:      0.017 (MW) /      0.135 (MB)
	Size of irrep 1 of <ia|bc> integrals:      0.004 (MW) /      0.033 (MB)
	Size of irrep 2 of <ia|bc> integrals:      0.005 (MW) /      0.043 (MB)
	Size of irrep 3 of <ia|bc> integrals:      0.014 (MW) /      0.114 (MB)
	Total:                                     0.041 (MW) /      0.325 (MB)

	Size of irrep 0 of tijab amplitudes:       0.002 (MW) /      0.016 (MB)
	Size of irrep 1 of tijab amplitudes:       0.000 (MW) /      0.000 (MB)
	Size of irrep 2 of tijab amplitudes:       0.000 (MW) /      0.000 (MB)
	Size of irrep 3 of tijab amplitudes:       0.002 (MW) /      0.012 (MB)
	Total:                                     0.004 (MW) /      0.029 (MB)

	Nuclear Rep. energy          =      6.05748619356808
	SCF energy                   =    -38.88437944959797
	One-electron energy          =    -17.61903795788071
	Two-electron energy          =      6.95275934489228
	Reference energy             =    -38.88437944959805

*** tstop() called on cqc01 at Fri Apr 26 15:28:18 2019
Module time:
	user time   =       0.05 seconds =       0.00 minutes
	system time =       0.05 seconds =       0.00 minutes
	total time  =          1 seconds =       0.02 minutes
Total time:
	user time   =       0.51 seconds =       0.01 minutes
	system time =       0.41 seconds =       0.01 minutes
	total time  =          2 seconds =       0.03 minutes

*** tstart() called on cqc01
*** at Fri Apr 26 15:28:18 2019

            **************************
            *                        *
            *        CCENERGY        *
            *                        *
            **************************

    Nuclear Rep. energy (wfn)     =    6.057486193568077
    SCF energy          (wfn)     =  -38.884379449597965
    Reference energy    (file100) =  -38.884379449598050

    Input parameters:
    -----------------
    Wave function   =     CCSD
    Reference wfn   =     RHF
    Brueckner       =     No
    Memory (Mbytes) =     32000.0
    Maxiter         =     50
    R_Convergence   =     1.0e-07
    E_Convergence   =     1.0e-06
    Restart         =     Yes
    DIIS            =     Yes
    AO Basis        =     NONE
    ABCD            =     NEW
    Cache Level     =     2
    Cache Type      =     LOW
    Print Level     =     1
    Num. of threads =     1
    # Amps to Print =     10
    Print MP2 Amps? =     No
    Analyze T2 Amps =     No
    Print Pair Ener =     No
    Local CC        =     No
    SCS-MP2         =     False
    SCSN-MP2        =     False
    SCS-CCSD        =     False

MP2 correlation energy -0.1153248077215516
                Solving CC Amplitude Equations
                ------------------------------
  Iter             Energy              RMS        T1Diag      D1Diag    New D1Diag    D2Diag
  ----     ---------------------    ---------   ----------  ----------  ----------   --------
     0        -0.115324807721545    0.000e+00    0.000000    0.000000    0.000000    0.123954
     1        -0.157494685513902    1.218e-01    0.010480    0.021300    0.021300    0.198329
     2        -0.142521518693187    2.575e-02    0.009276    0.019881    0.019881    0.191876
     3        -0.142469437798534    8.927e-03    0.009399    0.020635    0.020635    0.196049
     4        -0.142653900408431    6.331e-03    0.009576    0.021327    0.021327    0.203438
     5        -0.142898878650659    3.332e-03    0.009860    0.022104    0.022104    0.210309
     6        -0.143146151167482    9.350e-04    0.009865    0.022095    0.022095    0.212009
     7        -0.143152292454024    2.851e-04    0.009828    0.021991    0.021991    0.212150
     8        -0.143129922124042    1.168e-04    0.009803    0.021929    0.021929    0.212095
     9        -0.143128739771123    4.145e-05    0.009792    0.021900    0.021900    0.212096
    10        -0.143128079284031    8.904e-06    0.009790    0.021895    0.021895    0.212093
    11        -0.143127929432877    2.553e-06    0.009789    0.021894    0.021894    0.212092
    12        -0.143127892345545    9.412e-07    0.009789    0.021894    0.021894    0.212092
    13        -0.143127887410846    3.052e-07    0.009789    0.021894    0.021894    0.212092
    14        -0.143127893317680    9.441e-08    0.009789    0.021894    0.021894    0.212092
    14        -0.143127893317680    9.441e-08    0.009789    0.021894    0.021894    0.212092

    Iterations converged.


    CCSD corr. energy   =   -0.143127893317680
    PPL corr. energy    =    0.040369100329401
    OS PPL corr. energy =    0.037196369732937
    SS PPL corr. energy =    0.003172730596464
    Largest TIA Amplitudes:
              1   4        -0.0125008845
              1   3        -0.0084791867
              1   5         0.0055330466
              1   1         0.0052912050
              2  35         0.0051361877
              1   0        -0.0050644193
              0   3         0.0050520304
              1   9         0.0047996885
              0  12        -0.0044624436
              0   8        -0.0043518567

    Largest TIjAb Amplitudes:
      1   1  19  19        -0.1498442841
      1   1  19  20        -0.0967306477
      1   1  20  19        -0.0967306477
      1   1  20  20        -0.0636757754
      1   1  19  21        -0.0472362496
      1   1  21  19        -0.0472362496
      2   2  28  28        -0.0449914264
      0   0  19  19        -0.0443510167
      2   2  32  32        -0.0366386741
      0   0  19  20        -0.0354837844

    SCF energy       (wfn)                    =  -38.884379449597965
    Reference energy (file100)                =  -38.884379449598050

    Opposite-spin MP2 correlation energy      =   -0.097780679514437
    Same-spin MP2 correlation energy          =   -0.017544128207108
    MP2 correlation energy                    =   -0.115324807721552
      * MP2 total energy                      =  -38.999704257319600

    Opposite-spin CCSD correlation energy     =   -0.125460880368436
    Same-spin CCSD correlation energy         =   -0.017667012492523
    CCSD correlation energy                   =   -0.143127893317680
      * CCSD total energy                     =  -39.027507342915733


*** tstop() called on cqc01 at Fri Apr 26 15:28:25 2019
Module time:
	user time   =       0.47 seconds =       0.01 minutes
	system time =       1.32 seconds =       0.02 minutes
	total time  =          7 seconds =       0.12 minutes
Total time:
	user time   =       0.98 seconds =       0.02 minutes
	system time =       1.73 seconds =       0.03 minutes
	total time  =          9 seconds =       0.15 minutes

*** Psi4 exiting successfully. Buy a developer a beer!
