
    -----------------------------------------------------------------------
          Psi4: An Open-Source Ab Initio Electronic Structure Package
                               Psi4 1.2a1.dev939 

                         Git: Rev {HEAD} fa1ec19 


    R. M. Parrish, L. A. Burns, D. G. A. Smith, A. C. Simmonett,
    A. E. DePrince III, E. G. Hohenstein, U. Bozkaya, A. Yu. Sokolov,
    R. Di Remigio, R. M. Richard, J. F. Gonthier, A. M. James,
    H. R. McAlexander, A. Kumar, M. Saitow, X. Wang, B. P. Pritchard,
    P. Verma, H. F. Schaefer III, K. Patkowski, R. A. King, E. F. Valeev,
    F. A. Evangelista, J. M. Turney, T. D. Crawford, and C. D. Sherrill,
    J. Chem. Theory Comput. 13(7) pp 3185--3197 (2017).
    (doi: 10.1021/acs.jctc.7b00174)

    -----------------------------------------------------------------------


    Psi4 started on: Friday, 26 April 2019 03:35PM

    Process ID:   1435
    PSIDATADIR: /home/grueneis/src/psi4/objdir/stage/usr/local/psi4/share/psi4
    Memory:     500.0 MiB
    Threads:    1
    
  ==> Input File <==

--------------------------------------------------------------------------
# Any line starting with the # character is a comment line

memory 32000 mb

molecule molecule {
0 1
Cl         0.0000000000        0.0000000000       -0.0351730808
H          0.0000000000        0.0000000000        1.2371681191
}

set {
  reference rhf
  basis aug-cc-pv(D+d)z
  scf_type OUT_OF_CORE
  freeze_core true
}

energy('ccsd')
--------------------------------------------------------------------------

  Memory set to  29.802 GiB by Python driver.

*** tstart() called on cqc01
*** at Fri Apr 26 15:35:37 2019

   => Loading Basis Set <=

    Name: AUG-CC-PV(D+D)Z
    Role: ORBITAL
    Keyword: BASIS
    atoms 1 entry CL         line   792 file /home/grueneis/src/psi4/objdir/stage/usr/local/psi4/share/psi4/basis/aug-cc-pv_dpd_z.gbs 
    atoms 2 entry H          line    56 file /home/grueneis/src/psi4/objdir/stage/usr/local/psi4/share/psi4/basis/aug-cc-pv_dpd_z.gbs 


         ---------------------------------------------------------
                                   SCF
            by Justin Turney, Rob Parrish, Andy Simmonett
                             and Daniel Smith
                              RHF Reference
                        1 Threads,  30517 MiB Core
         ---------------------------------------------------------

  ==> Geometry <==

    Molecular point group: c2v
    Full point group: C_inf_v

    Geometry (in Angstrom), charge = 0, multiplicity = 1:

       Center              X                  Y                   Z               Mass       
    ------------   -----------------  -----------------  -----------------  -----------------
          CL          0.000000000000     0.000000000000    -0.035642460396    34.968852682000
           H          0.000000000000     0.000000000000     1.236698739504     1.007825032070

  Running in c2v symmetry.

  Rotational constants: A = ************  B =     10.63026  C =     10.63026 [cm^-1]
  Rotational constants: A = ************  B = 318687.14570  C = 318687.14570 [MHz]
  Nuclear repulsion =    7.070440340010245

  Charge       = 0
  Multiplicity = 1
  Electrons    = 18
  Nalpha       = 9
  Nbeta        = 9

  ==> Algorithm <==

  SCF Algorithm Type is OUT_OF_CORE.
  DIIS enabled.
  MOM disabled.
  Fractional occupation disabled.
  Guess Type is SAD.
  Energy threshold   = 1.00e-08
  Density threshold  = 1.00e-08
  Integral threshold = 0.00e+00

  ==> Primary Basis <==

  Basis Set: AUG-CC-PV(D+D)Z
    Blend: AUG-CC-PV(D+D)Z
    Number of shells: 17
    Number of basis function: 41
    Number of Cartesian functions: 44
    Spherical Harmonics?: true
    Max angular momentum: 2

  ==> Pre-Iterations <==

   -------------------------------------------------------
    Irrep   Nso     Nmo     Nalpha   Nbeta   Ndocc  Nsocc
   -------------------------------------------------------
     A1        20      20       0       0       0       0
     A2         3       3       0       0       0       0
     B1         9       9       0       0       0       0
     B2         9       9       0       0       0       0
   -------------------------------------------------------
    Total      41      41       9       9       9       0
   -------------------------------------------------------

  ==> Integral Setup <==

  ==> DiskJK: Disk-Based J/K Matrices <==

    J tasked:                  Yes
    K tasked:                  Yes
    wK tasked:                  No
    Memory (MB):             22888
    Schwarz Cutoff:          1E-12

  Minimum eigenvalue in the overlap matrix is 2.2545458815E-03.
  Using Symmetric Orthogonalization.

  SCF Guess: Superposition of Atomic Densities via on-the-fly atomic UHF.

  ==> Iterations <==

                        Total Energy        Delta E     RMS |[F,P]|

   @RHF iter   0:  -460.14542867809746   -4.60145e+02   4.72185e-02 
   @RHF iter   1:  -460.06871951557764    7.67092e-02   7.70653e-03 
   @RHF iter   2:  -460.09170688498938   -2.29874e-02   3.04698e-03 DIIS
   @RHF iter   3:  -460.09432946110496   -2.62258e-03   6.97682e-04 DIIS
   @RHF iter   4:  -460.09470873235608   -3.79271e-04   2.22421e-04 DIIS
   @RHF iter   5:  -460.09475605113499   -4.73188e-05   2.61823e-05 DIIS
   @RHF iter   6:  -460.09475657471160   -5.23577e-07   3.50337e-06 DIIS
   @RHF iter   7:  -460.09475658381729   -9.10569e-09   9.00763e-07 DIIS
   @RHF iter   8:  -460.09475658432149   -5.04201e-10   1.81232e-07 DIIS
   @RHF iter   9:  -460.09475658434633   -2.48406e-11   1.78639e-08 DIIS
   @RHF iter  10:  -460.09475658434633    0.00000e+00   2.04082e-09 DIIS

  ==> Post-Iterations <==

    Orbital Energies (a.u.)
    -----------------------

    Doubly Occupied:                                                      

       1A1  -104.850162     2A1   -10.575977     3A1    -8.043989  
       1B2    -8.040408     1B1    -8.040408     4A1    -1.119449  
       5A1    -0.628237     2B1    -0.477287     2B2    -0.477287  

    Virtual:                                                              

       6A1     0.035527     7A1     0.125291     3B1     0.138132  
       3B2     0.138132     8A1     0.182401     9A1     0.213454  
       4B2     0.315938     4B1     0.315938     1A2     0.459463  
      10A1     0.459463    11A1     0.481799    12A1     0.574238  
       5B2     0.595493     5B1     0.595493    13A1     0.898175  
       6B1     0.922710     6B2     0.922710    14A1     1.034100  
      15A1     1.284683     2A2     1.284683     7B2     1.308608  
       7B1     1.308608    16A1     1.352336    17A1     1.792702  
       8B1     1.833312     8B2     1.833312    18A1     2.416564  
       3A2     5.958441    19A1     5.958441     9B2     6.008254  
       9B1     6.008254    20A1     6.105072  

    Final Occupation by Irrep:
             A1    A2    B1    B2 
    DOCC [     5,    0,    2,    2 ]

  Energy converged.

  @RHF Final Energy:  -460.09475658434633

   => Energetics <=

    Nuclear Repulsion Energy =              7.0704403400102454
    One-Electron Energy =                -649.8239877694784354
    Two-Electron Energy =                 182.6587908451218709
    Total Energy =                       -460.0947565843463281



Properties will be evaluated at   0.000000,   0.000000,   0.000000 Bohr

Properties computed using the SCF density matrix

  Nuclear Dipole Moment: (a.u.)
     X:     0.0000      Y:     0.0000      Z:     1.1920

  Electronic Dipole Moment: (a.u.)
     X:     0.0000      Y:     0.0000      Z:    -0.7156

  Dipole Moment: (a.u.)
     X:     0.0000      Y:     0.0000      Z:     0.4764     Total:     0.4764

  Dipole Moment: (Debye)
     X:     0.0000      Y:     0.0000      Z:     1.2108     Total:     1.2108


*** tstop() called on cqc01 at Fri Apr 26 15:35:38 2019
Module time:
	user time   =       0.52 seconds =       0.01 minutes
	system time =       0.44 seconds =       0.01 minutes
	total time  =          1 seconds =       0.02 minutes
Total time:
	user time   =       0.52 seconds =       0.01 minutes
	system time =       0.44 seconds =       0.01 minutes
	total time  =          1 seconds =       0.02 minutes

*** tstart() called on cqc01
*** at Fri Apr 26 15:35:38 2019


	Wfn Parameters:
	--------------------
	Wavefunction         = CCSD
	Number of irreps     = 4
	Number of MOs        = 41
	Number of active MOs = 36
	AO-Basis             = NONE
	Semicanonical        = false
	Reference            = RHF
	Print Level          = 1

	IRREP	# MOs	# FZDC	# DOCC	# SOCC	# VIRT	# FZVR
	-----	-----	------	------	------	------	------
	 A1	   20	    3	    2	    0	    15	    0
	 A2	   3	    0	    0	    0	    3	    0
	 B1	   9	    1	    1	    0	    7	    0
	 B2	   9	    1	    1	    0	    7	    0
	Transforming integrals...
	IWL integrals will be deleted.
	(OO|OO)...
	Presorting SO-basis two-electron integrals.
	Sorting File: SO Ints (nn|nn) nbuckets = 1
	Transforming the one-electron integrals and constructing Fock matrices
	Starting first half-transformation.
	Sorting half-transformed integrals.
	First half integral transformation complete.
	Starting second half-transformation.
	Two-electron integral transformation complete.
	(OO|OV)...
	Starting second half-transformation.
	Two-electron integral transformation complete.
	(OO|VV)...
	Starting second half-transformation.
	Two-electron integral transformation complete.
	(OV|OO)...
	Starting first half-transformation.
	Sorting half-transformed integrals.
	First half integral transformation complete.
	Starting second half-transformation.
	Two-electron integral transformation complete.
	(OV|OV)...
	Starting second half-transformation.
	Two-electron integral transformation complete.
	(OV|VV)...
	Starting second half-transformation.
	Two-electron integral transformation complete.
	(VV|OO)...
	Starting first half-transformation.
	Sorting half-transformed integrals.
	First half integral transformation complete.
	Starting second half-transformation.
	Two-electron integral transformation complete.
	(VV|OV)...
	Starting second half-transformation.
	Two-electron integral transformation complete.
	(VV|VV)...
	Starting second half-transformation.
	Two-electron integral transformation complete.
	Frozen core energy     =   -448.89595763509590

	Size of irrep 0 of <ab|cd> integrals:      0.110 (MW) /      0.882 (MB)
	Size of irrep 1 of <ab|cd> integrals:      0.035 (MW) /      0.283 (MB)
	Size of irrep 2 of <ab|cd> integrals:      0.064 (MW) /      0.508 (MB)
	Size of irrep 3 of <ab|cd> integrals:      0.064 (MW) /      0.508 (MB)
	Total:                                     0.273 (MW) /      2.181 (MB)

	Size of irrep 0 of <ia|bc> integrals:      0.015 (MW) /      0.117 (MB)
	Size of irrep 1 of <ia|bc> integrals:      0.004 (MW) /      0.030 (MB)
	Size of irrep 2 of <ia|bc> integrals:      0.008 (MW) /      0.065 (MB)
	Size of irrep 3 of <ia|bc> integrals:      0.008 (MW) /      0.065 (MB)
	Total:                                     0.034 (MW) /      0.276 (MB)

	Size of irrep 0 of tijab amplitudes:       0.002 (MW) /      0.016 (MB)
	Size of irrep 1 of tijab amplitudes:       0.000 (MW) /      0.003 (MB)
	Size of irrep 2 of tijab amplitudes:       0.001 (MW) /      0.008 (MB)
	Size of irrep 3 of tijab amplitudes:       0.001 (MW) /      0.008 (MB)
	Total:                                     0.004 (MW) /      0.035 (MB)

	Nuclear Rep. energy          =      7.07044034001025
	SCF energy                   =   -460.09475658434633
	One-electron energy          =    -31.13395943194868
	Two-electron energy          =     12.86472014268667
	Reference energy             =   -460.09475658434764

*** tstop() called on cqc01 at Fri Apr 26 15:35:39 2019
Module time:
	user time   =       0.04 seconds =       0.00 minutes
	system time =       0.04 seconds =       0.00 minutes
	total time  =          1 seconds =       0.02 minutes
Total time:
	user time   =       0.56 seconds =       0.01 minutes
	system time =       0.48 seconds =       0.01 minutes
	total time  =          2 seconds =       0.03 minutes

*** tstart() called on cqc01
*** at Fri Apr 26 15:35:39 2019

            **************************
            *                        *
            *        CCENERGY        *
            *                        *
            **************************

    Nuclear Rep. energy (wfn)     =    7.070440340010245
    SCF energy          (wfn)     = -460.094756584346328
    Reference energy    (file100) = -460.094756584347635

    Input parameters:
    -----------------
    Wave function   =     CCSD
    Reference wfn   =     RHF
    Brueckner       =     No
    Memory (Mbytes) =     32000.0
    Maxiter         =     50
    R_Convergence   =     1.0e-07
    E_Convergence   =     1.0e-06
    Restart         =     Yes
    DIIS            =     Yes
    AO Basis        =     NONE
    ABCD            =     NEW
    Cache Level     =     2
    Cache Type      =     LOW
    Print Level     =     1
    Num. of threads =     1
    # Amps to Print =     10
    Print MP2 Amps? =     No
    Analyze T2 Amps =     No
    Print Pair Ener =     No
    Local CC        =     No
    SCS-MP2         =     False
    SCSN-MP2        =     False
    SCS-CCSD        =     False

MP2 correlation energy -0.1624076908367512
                Solving CC Amplitude Equations
                ------------------------------
  Iter             Energy              RMS        T1Diag      D1Diag    New D1Diag    D2Diag
  ----     ---------------------    ---------   ----------  ----------  ----------   --------
     0        -0.162407690836751    0.000e+00    0.000000    0.000000    0.000000    0.119532
     1        -0.198972891712399    1.638e-01    0.009572    0.018012    0.018012    0.154693
     2        -0.180443247156437    2.611e-02    0.007187    0.014374    0.014374    0.141617
     3        -0.180627219839177    3.311e-03    0.007087    0.013796    0.013796    0.140945
     4        -0.180492391160075    1.007e-03    0.006919    0.013518    0.013518    0.140548
     5        -0.180393994996404    2.703e-04    0.006880    0.013444    0.013444    0.140366
     6        -0.180404196255322    5.173e-05    0.006873    0.013430    0.013430    0.140353
     7        -0.180404680557531    1.142e-05    0.006871    0.013427    0.013427    0.140351
     8        -0.180403866091187    2.937e-06    0.006871    0.013426    0.013426    0.140349
     9        -0.180403972859430    7.020e-07    0.006871    0.013426    0.013426    0.140349
    10        -0.180403978935900    1.924e-07    0.006871    0.013426    0.013426    0.140349
    11        -0.180403979936420    5.977e-08    0.006871    0.013426    0.013426    0.140349
    11        -0.180403979936420    5.977e-08    0.006871    0.013426    0.013426    0.140349

    Iterations converged.


    CCSD corr. energy   =   -0.180403979936420
    PPL corr. energy    =    0.041913095306629
    OS PPL corr. energy =    0.033956099006283
    SS PPL corr. energy =    0.007956996300347
    Largest TIA Amplitudes:
              1   5         0.0080404477
              3  26         0.0074200994
              2  19         0.0074200899
              1  10         0.0065478618
              3  25         0.0053454740
              2  18         0.0053454554
              1   8         0.0052699713
              1   3         0.0034399803
              1   1         0.0034149535
              0  11         0.0027666338

    Largest TIjAb Amplitudes:
      1   1   2   2        -0.0610449801
      3   3   4   4        -0.0417509984
      3   3  15  15        -0.0417509982
      2   2  15  15        -0.0417509975
      2   2   4   4        -0.0417509973
      2   2  21  21        -0.0343911101
      3   3  28  28        -0.0343911101
      1   1   7   7        -0.0316598427
      1   1   5   5        -0.0306360177
      1   1   2   7        -0.0300232727

    SCF energy       (wfn)                    = -460.094756584346328
    Reference energy (file100)                = -460.094756584347635

    Opposite-spin MP2 correlation energy      =   -0.121567905785042
    Same-spin MP2 correlation energy          =   -0.040839785051709
    MP2 correlation energy                    =   -0.162407690836751
      * MP2 total energy                      = -460.257164275184380

    Opposite-spin CCSD correlation energy     =   -0.140872508931953
    Same-spin CCSD correlation energy         =   -0.039531470821594
    CCSD correlation energy                   =   -0.180403979936420
      * CCSD total energy                     = -460.275160564284079


*** tstop() called on cqc01 at Fri Apr 26 15:35:41 2019
Module time:
	user time   =       0.44 seconds =       0.01 minutes
	system time =       1.18 seconds =       0.02 minutes
	total time  =          2 seconds =       0.03 minutes
Total time:
	user time   =       1.00 seconds =       0.02 minutes
	system time =       1.66 seconds =       0.03 minutes
	total time  =          4 seconds =       0.07 minutes

*** Psi4 exiting successfully. Buy a developer a beer!
