
    -----------------------------------------------------------------------
          Psi4: An Open-Source Ab Initio Electronic Structure Package
                               Psi4 1.2a1.dev939 

                         Git: Rev {HEAD} fa1ec19 


    R. M. Parrish, L. A. Burns, D. G. A. Smith, A. C. Simmonett,
    A. E. DePrince III, E. G. Hohenstein, U. Bozkaya, A. Yu. Sokolov,
    R. Di Remigio, R. M. Richard, J. F. Gonthier, A. M. James,
    H. R. McAlexander, A. Kumar, M. Saitow, X. Wang, B. P. Pritchard,
    P. Verma, H. F. Schaefer III, K. Patkowski, R. A. King, E. F. Valeev,
    F. A. Evangelista, J. M. Turney, T. D. Crawford, and C. D. Sherrill,
    J. Chem. Theory Comput. 13(7) pp 3185--3197 (2017).
    (doi: 10.1021/acs.jctc.7b00174)

    -----------------------------------------------------------------------


    Psi4 started on: Wednesday, 01 May 2019 03:49PM

    Process ID:   7625
    PSIDATADIR: /home/grueneis/src/psi4/objdir/stage/usr/local/psi4/share/psi4
    Memory:     500.0 MiB
    Threads:    1
    
  ==> Input File <==

--------------------------------------------------------------------------
# Any line starting with the # character is a comment line

memory 32000 mb

molecule molecule {
0 1
Cl         0.0000000000        0.0000000000       -0.0351730808
H          0.0000000000        0.0000000000        1.2371681191
}

set {
  reference rhf


  basis aug-cc-pv(5+d)z
  scf_type OUT_OF_CORE
  freeze_core true
}

energy('ccsd')
--------------------------------------------------------------------------

  Memory set to  29.802 GiB by Python driver.

*** tstart() called on cqc01
*** at Wed May  1 15:49:10 2019

   => Loading Basis Set <=

    Name: AUG-CC-PV(5+D)Z
    Role: ORBITAL
    Keyword: BASIS
    atoms 1 entry CL         line  1092 file /home/grueneis/src/psi4/objdir/stage/usr/local/psi4/share/psi4/basis/aug-cc-pv_5pd_z.gbs 
    atoms 2 entry H          line    56 file /home/grueneis/src/psi4/objdir/stage/usr/local/psi4/share/psi4/basis/aug-cc-pv_5pd_z.gbs 


         ---------------------------------------------------------
                                   SCF
            by Justin Turney, Rob Parrish, Andy Simmonett
                             and Daniel Smith
                              RHF Reference
                        1 Threads,  30517 MiB Core
         ---------------------------------------------------------

  ==> Geometry <==

    Molecular point group: c2v
    Full point group: C_inf_v

    Geometry (in Angstrom), charge = 0, multiplicity = 1:

       Center              X                  Y                   Z               Mass       
    ------------   -----------------  -----------------  -----------------  -----------------
          CL          0.000000000000     0.000000000000    -0.035642460396    34.968852682000
           H          0.000000000000     0.000000000000     1.236698739504     1.007825032070

  Running in c2v symmetry.

  Rotational constants: A = ************  B =     10.63026  C =     10.63026 [cm^-1]
  Rotational constants: A = ************  B = 318687.14570  C = 318687.14570 [MHz]
  Nuclear repulsion =    7.070440340010245

  Charge       = 0
  Multiplicity = 1
  Electrons    = 18
  Nalpha       = 9
  Nbeta        = 9

  ==> Algorithm <==

  SCF Algorithm Type is OUT_OF_CORE.
  DIIS enabled.
  MOM disabled.
  Fractional occupation disabled.
  Guess Type is SAD.
  Energy threshold   = 1.00e-08
  Density threshold  = 1.00e-08
  Integral threshold = 0.00e+00

  ==> Primary Basis <==

  Basis Set: AUG-CC-PV(5+D)Z
    Blend: AUG-CC-PV(5+D)Z
    Number of shells: 50
    Number of basis function: 216
    Number of Cartesian functions: 297
    Spherical Harmonics?: true
    Max angular momentum: 5

  ==> Pre-Iterations <==

   -------------------------------------------------------
    Irrep   Nso     Nmo     Nalpha   Nbeta   Ndocc  Nsocc
   -------------------------------------------------------
     A1        81      81       0       0       0       0
     A2        31      31       0       0       0       0
     B1        52      52       0       0       0       0
     B2        52      52       0       0       0       0
   -------------------------------------------------------
    Total     216     216       9       9       9       0
   -------------------------------------------------------

  ==> Integral Setup <==

  ==> DiskJK: Disk-Based J/K Matrices <==

    J tasked:                  Yes
    K tasked:                  Yes
    wK tasked:                  No
    Memory (MB):             22888
    Schwarz Cutoff:          1E-12

  Minimum eigenvalue in the overlap matrix is 2.8931245090E-05.
  Using Symmetric Orthogonalization.

  SCF Guess: Superposition of Atomic Densities via on-the-fly atomic UHF.

  ==> Iterations <==

                        Total Energy        Delta E     RMS |[F,P]|

   @RHF iter   0:  -460.03124278988992   -4.60031e+02   1.07248e-02 
   @RHF iter   1:  -460.09892166579317   -6.76789e-02   1.62043e-03 
   @RHF iter   2:  -460.11089188489092   -1.19702e-02   6.25058e-04 DIIS
   @RHF iter   3:  -460.11247124424904   -1.57936e-03   1.06239e-04 DIIS
   @RHF iter   4:  -460.11263422739768   -1.62983e-04   3.20049e-05 DIIS
   @RHF iter   5:  -460.11265461667688   -2.03893e-05   5.87643e-06 DIIS
   @RHF iter   6:  -460.11265534038262   -7.23706e-07   1.25252e-06 DIIS
   @RHF iter   7:  -460.11265536763710   -2.72545e-08   3.05928e-07 DIIS
   @RHF iter   8:  -460.11265536863539   -9.98284e-10   5.63615e-08 DIIS
   @RHF iter   9:  -460.11265536867938   -4.39968e-11   8.44775e-09 DIIS

  ==> Post-Iterations <==

    Orbital Energies (a.u.)
    -----------------------

    Doubly Occupied:                                                      

       1A1  -104.848861     2A1   -10.574211     3A1    -8.041447  
       1B1    -8.039660     1B2    -8.039660     4A1    -1.117309  
       5A1    -0.626494     2B1    -0.477082     2B2    -0.477082  

    Virtual:                                                              

       6A1     0.022504     7A1     0.078453     3B1     0.086378  
       3B2     0.086378     8A1     0.108769     9A1     0.147465  
       4B1     0.173099     4B2     0.173099     1A2     0.238887  
      10A1     0.238887    11A1     0.243436     5B1     0.294689  
       5B2     0.294689    12A1     0.298814    13A1     0.342676  
       6B1     0.399384     6B2     0.399384    14A1     0.410577  
       7B1     0.489270     7B2     0.489270     2A2     0.509178  
      15A1     0.509178    16A1     0.577329     3A2     0.608772  
      17A1     0.608772     8B1     0.620482     8B2     0.620482  
       9B1     0.642591     9B2     0.642591    18A1     0.706230  
      10B1     0.723644    10B2     0.723644    19A1     0.735331  
       4A2     0.744852    20A1     0.744852    21A1     0.831676  
      11B1     1.080690    11B2     1.080690    22A1     1.097135  
      12B1     1.223699    12B2     1.223699    13B1     1.251110  
      13B2     1.251110    23A1     1.264146    24A1     1.296443  
       5A2     1.296443     6A2     1.352456    25A1     1.352456  
      26A1     1.373976    14B1     1.407695    14B2     1.407695  
       7A2     1.419914    27A1     1.419914    15B1     1.481348  
      15B2     1.481348    28A1     1.500569    29A1     1.508517  
       8A2     1.508517    16B1     1.527069    16B2     1.527069  
      17B1     1.565047    17B2     1.565047    18B1     1.585872  
      18B2     1.585872     9A2     1.619481    30A1     1.619481  
      31A1     1.627679    32A1     1.782647    19B1     1.943384  
      19B2     1.943384    33A1     2.012315    34A1     2.379155  
      35A1     2.485419    10A2     2.485419    20B1     2.489850  
      20B2     2.489850    36A1     2.701212    21B2     2.813106  
      21B1     2.813106    37A1     2.929318    11A2     2.929318  
      38A1     2.939117    39A1     3.106593    12A2     3.106593  
      40A1     3.157714    22B1     3.217923    22B2     3.217923  
      23B2     3.223862    23B1     3.223862    24B1     3.276753  
      24B2     3.276753    41A1     3.294745    13A2     3.294745  
      14A2     3.313694    42A1     3.313694    25B2     3.331149  
      25B1     3.331149    43A1     3.439809    15A2     3.439809  
      26B2     3.439823    26B1     3.439823    27B2     3.450201  
      27B1     3.450201    28B1     3.467559    28B2     3.467559  
      44A1     3.496106    45A1     3.519729    16A2     3.519729  
      46A1     3.599670    47A1     3.672387    17A2     3.672387  
      29B2     3.723814    29B1     3.723814    48A1     3.957650  
      30B2     4.062232    30B1     4.062232    49A1     4.155611  
      50A1     4.220244    18A2     4.220244    31B2     4.486968  
      31B1     4.486968    51A1     4.712011    32B2     4.772990  
      32B1     4.772990    33B2     4.787601    33B1     4.787601  
      52A1     5.507087    53A1     5.570637    19A2     5.570637  
      34B2     5.763628    34B1     5.763628    54A1     5.944936  
      20A2     5.944936    55A1     6.012603    35B2     6.171982  
      35B1     6.171982    56A1     6.590996    36B1     6.622094  
      36B2     6.622094    57A1     6.816266    21A2     6.816266  
      37B2     6.849584    37B1     6.849584    38B2     6.945522  
      38B1     6.945522    58A1     6.956527    59A1     7.056147  
      60A1     7.363337    22A2     7.363337    23A2     7.447971  
      61A1     7.447971    39B1     7.481846    39B2     7.481846  
      62A1     7.524898    24A2     7.524898    63A1     7.590587  
      40B2     7.727142    40B1     7.727142    64A1     7.763767  
      25A2     7.763767    41B2     7.851630    41B1     7.851630  
      42B2     8.060096    42B1     8.060096    43B2     8.139348  
      43B1     8.139348    65A1     8.226783    26A2     8.226783  
      66A1     8.248993    67A1     8.891077    44B2     9.031066  
      44B1     9.031066    68A1    10.398808    45B1    12.973108  
      45B2    12.973108    69A1    13.087351    27A2    13.087351  
      46B1    13.270877    46B2    13.270877    70A1    13.492674  
      28A2    13.492674    47B2    13.839715    47B1    13.839715  
      71A1    13.999968    29A2    13.999968    72A1    14.032371  
      48B1    14.305033    48B2    14.305033    73A1    14.341708  
      74A1    14.415656    30A2    14.415656    75A1    14.560106  
      49B2    15.860665    49B1    15.860665    76A1    17.427972  
      50B1    17.566489    50B2    17.566489    77A1    19.025516  
      78A1    20.581304    31A2    20.581304    51B2    21.027155  
      51B1    21.027155    79A1    21.435606    52B2    38.699787  
      52B1    38.699787    80A1    40.720956    81A1    87.473756  

    Final Occupation by Irrep:
             A1    A2    B1    B2 
    DOCC [     5,    0,    2,    2 ]

  Energy converged.

  @RHF Final Energy:  -460.11265536867938

   => Energetics <=

    Nuclear Repulsion Energy =              7.0704403400102454
    One-Electron Energy =                -649.8825774382530653
    Two-Electron Energy =                 182.6994817295634164
    Total Energy =                       -460.1126553686793841



Properties will be evaluated at   0.000000,   0.000000,   0.000000 Bohr

Properties computed using the SCF density matrix

  Nuclear Dipole Moment: (a.u.)
     X:     0.0000      Y:     0.0000      Z:     1.1920

  Electronic Dipole Moment: (a.u.)
     X:     0.0000      Y:     0.0000      Z:    -0.7288

  Dipole Moment: (a.u.)
     X:     0.0000      Y:     0.0000      Z:     0.4632     Total:     0.4632

  Dipole Moment: (Debye)
     X:     0.0000      Y:     0.0000      Z:     1.1773     Total:     1.1773


*** tstop() called on cqc01 at Wed May  1 15:49:57 2019
Module time:
	user time   =      28.04 seconds =       0.47 minutes
	system time =       4.34 seconds =       0.07 minutes
	total time  =         47 seconds =       0.78 minutes
Total time:
	user time   =      28.04 seconds =       0.47 minutes
	system time =       4.34 seconds =       0.07 minutes
	total time  =         47 seconds =       0.78 minutes

*** tstart() called on cqc01
*** at Wed May  1 15:49:57 2019


	Wfn Parameters:
	--------------------
	Wavefunction         = CCSD
	Number of irreps     = 4
	Number of MOs        = 216
	Number of active MOs = 211
	AO-Basis             = NONE
	Semicanonical        = false
	Reference            = RHF
	Print Level          = 1

	IRREP	# MOs	# FZDC	# DOCC	# SOCC	# VIRT	# FZVR
	-----	-----	------	------	------	------	------
	 A1	   81	    3	    2	    0	    76	    0
	 A2	   31	    0	    0	    0	    31	    0
	 B1	   52	    1	    1	    0	    50	    0
	 B2	   52	    1	    1	    0	    50	    0
	Transforming integrals...
	IWL integrals will be deleted.
	(OO|OO)...
	Presorting SO-basis two-electron integrals.
	Sorting File: SO Ints (nn|nn) nbuckets = 1
	Transforming the one-electron integrals and constructing Fock matrices
	Starting first half-transformation.
	Sorting half-transformed integrals.
	First half integral transformation complete.
	Starting second half-transformation.
	Two-electron integral transformation complete.
	(OO|OV)...
	Starting second half-transformation.
	Two-electron integral transformation complete.
	(OO|VV)...
	Starting second half-transformation.
	Two-electron integral transformation complete.
	(OV|OO)...
	Starting first half-transformation.
	Sorting half-transformed integrals.
	First half integral transformation complete.
	Starting second half-transformation.
	Two-electron integral transformation complete.
	(OV|OV)...
	Starting second half-transformation.
	Two-electron integral transformation complete.
	(OV|VV)...
	Starting second half-transformation.
	Two-electron integral transformation complete.
	(VV|OO)...
	Starting first half-transformation.
	Sorting half-transformed integrals.
	First half integral transformation complete.
	Starting second half-transformation.
	Two-electron integral transformation complete.
	(VV|OV)...
	Starting second half-transformation.
	Two-electron integral transformation complete.
	(VV|VV)...
	Starting second half-transformation.
	Two-electron integral transformation complete.
	Frozen core energy     =   -448.90649031565158

	Size of irrep 0 of <ab|cd> integrals:    137.757 (MW) /   1102.057 (MB)
	Size of irrep 1 of <ab|cd> integrals:     94.323 (MW) /    754.584 (MB)
	Size of irrep 2 of <ab|cd> integrals:    114.490 (MW) /    915.920 (MB)
	Size of irrep 3 of <ab|cd> integrals:    114.490 (MW) /    915.920 (MB)
	Total:                                   461.060 (MW) /   3688.481 (MB)

	Size of irrep 0 of <ia|bc> integrals:      2.958 (MW) /     23.662 (MB)
	Size of irrep 1 of <ia|bc> integrals:      1.573 (MW) /     12.587 (MB)
	Size of irrep 2 of <ia|bc> integrals:      2.215 (MW) /     17.719 (MB)
	Size of irrep 3 of <ia|bc> integrals:      2.215 (MW) /     17.719 (MB)
	Total:                                     8.961 (MW) /     71.687 (MB)

	Size of irrep 0 of tijab amplitudes:       0.070 (MW) /      0.563 (MB)
	Size of irrep 1 of tijab amplitudes:       0.019 (MW) /      0.155 (MB)
	Size of irrep 2 of tijab amplitudes:       0.043 (MW) /      0.342 (MB)
	Size of irrep 3 of tijab amplitudes:       0.043 (MW) /      0.342 (MB)
	Total:                                     0.175 (MW) /      1.404 (MB)

	Nuclear Rep. energy          =      7.07044034001025
	SCF energy                   =   -460.11265536867938
	One-electron energy          =    -31.15727549992550
	Two-electron energy          =     12.88067010688589
	Reference energy             =   -460.11265536868092

*** tstop() called on cqc01 at Wed May  1 15:53:26 2019
Module time:
	user time   =      38.04 seconds =       0.63 minutes
	system time =      32.86 seconds =       0.55 minutes
	total time  =        209 seconds =       3.48 minutes
Total time:
	user time   =      66.08 seconds =       1.10 minutes
	system time =      37.20 seconds =       0.62 minutes
	total time  =        256 seconds =       4.27 minutes

*** tstart() called on cqc01
*** at Wed May  1 15:53:26 2019

            **************************
            *                        *
            *        CCENERGY        *
            *                        *
            **************************

    Nuclear Rep. energy (wfn)     =    7.070440340010245
    SCF energy          (wfn)     = -460.112655368679384
    Reference energy    (file100) = -460.112655368680919

    Input parameters:
    -----------------
    Wave function   =     CCSD
    Reference wfn   =     RHF
    Brueckner       =     No
    Memory (Mbytes) =     32000.0
    Maxiter         =     50
    R_Convergence   =     1.0e-07
    E_Convergence   =     1.0e-06
    Restart         =     Yes
    DIIS            =     Yes
    AO Basis        =     NONE
    ABCD            =     NEW
    Cache Level     =     2
    Cache Type      =     LOW
    Print Level     =     1
    Num. of threads =     1
    # Amps to Print =     10
    Print MP2 Amps? =     No
    Analyze T2 Amps =     No
    Print Pair Ener =     No
    Local CC        =     No
    SCS-MP2         =     False
    SCSN-MP2        =     False
    SCS-CCSD        =     False

MP2 correlation energy -0.2327183572670168
                Solving CC Amplitude Equations
                ------------------------------
  Iter             Energy              RMS        T1Diag      D1Diag    New D1Diag    D2Diag
  ----     ---------------------    ---------   ----------  ----------  ----------   --------
     0        -0.232718357266951    0.000e+00    0.000000    0.000000    0.000000    0.129529
     1        -0.265268711121943    1.975e-01    0.009863    0.016006    0.016006    0.157848
     2        -0.251203504459777    2.573e-02    0.006623    0.011957    0.011957    0.147982
     3        -0.249182440291919    4.933e-03    0.006713    0.011804    0.011804    0.145828
     4        -0.249011744581955    1.185e-03    0.006616    0.011672    0.011672    0.145451
     5        -0.248951578106890    3.259e-04    0.006593    0.011614    0.011614    0.145307
     6        -0.248944885468620    8.571e-05    0.006588    0.011603    0.011603    0.145269
     7        -0.248948834081933    1.959e-05    0.006586    0.011600    0.011600    0.145266
     8        -0.248948732326071    4.920e-06    0.006586    0.011599    0.011599    0.145265
     9        -0.248948481925094    1.413e-06    0.006586    0.011599    0.011599    0.145264
    10        -0.248948492895690    3.882e-07    0.006586    0.011599    0.011599    0.145264
    11        -0.248948500818333    1.223e-07    0.006586    0.011599    0.011599    0.145264
    12        -0.248948500036605    3.312e-08    0.006586    0.011599    0.011599    0.145264
    12        -0.248948500036605    3.312e-08    0.006586    0.011599    0.011599    0.145264

    Iterations converged.


    CCSD corr. energy   =   -0.248948500036605
    PPL corr. energy    =    0.068483374262770
    OS PPL corr. energy =    0.057675425952326
    SS PPL corr. energy =    0.010807948310444
    Largest TIA Amplitudes:
              2 111        -0.0047173761
              3 161        -0.0047173566
              1  10         0.0047137330
              1   5        -0.0046775694
              2 109         0.0046448441
              3 159         0.0046448094
              1   3        -0.0043938052
              3 158         0.0039139776
              2 108         0.0039139377
              0  13        -0.0037799000

    Largest TIjAb Amplitudes:
      1   1   5   5        -0.0335693076
      3   3  11  11        -0.0301076241
      2   2  78  78        -0.0301076236
      3   3  78  78        -0.0301076231
      2   2  11  11        -0.0301076227
      2   2 113 113        -0.0245647114
      3   3 163 163        -0.0245647099
      1   1   3   5        -0.0239068426
      1   1   5   3        -0.0239068426
      3   3 160 160        -0.0221201902

    SCF energy       (wfn)                    = -460.112655368679384
    Reference energy (file100)                = -460.112655368680919

    Opposite-spin MP2 correlation energy      =   -0.182323804600983
    Same-spin MP2 correlation energy          =   -0.050394552665968
    MP2 correlation energy                    =   -0.232718357267017
      * MP2 total energy                      = -460.345373725947923

    Opposite-spin CCSD correlation energy     =   -0.200360959372006
    Same-spin CCSD correlation energy         =   -0.048587540863289
    CCSD correlation energy                   =   -0.248948500036605
      * CCSD total energy                     = -460.361603868717509


*** tstop() called on cqc01 at Wed May  1 15:54:50 2019
Module time:
	user time   =       8.14 seconds =       0.14 minutes
	system time =      17.31 seconds =       0.29 minutes
	total time  =         84 seconds =       1.40 minutes
Total time:
	user time   =      74.22 seconds =       1.24 minutes
	system time =      54.51 seconds =       0.91 minutes
	total time  =        340 seconds =       5.67 minutes

*** Psi4 exiting successfully. Buy a developer a beer!
