
    -----------------------------------------------------------------------
          Psi4: An Open-Source Ab Initio Electronic Structure Package
                               Psi4 1.2a1.dev939 

                         Git: Rev {HEAD} fa1ec19 


    R. M. Parrish, L. A. Burns, D. G. A. Smith, A. C. Simmonett,
    A. E. DePrince III, E. G. Hohenstein, U. Bozkaya, A. Yu. Sokolov,
    R. Di Remigio, R. M. Richard, J. F. Gonthier, A. M. James,
    H. R. McAlexander, A. Kumar, M. Saitow, X. Wang, B. P. Pritchard,
    P. Verma, H. F. Schaefer III, K. Patkowski, R. A. King, E. F. Valeev,
    F. A. Evangelista, J. M. Turney, T. D. Crawford, and C. D. Sherrill,
    J. Chem. Theory Comput. 13(7) pp 3185--3197 (2017).
    (doi: 10.1021/acs.jctc.7b00174)

    -----------------------------------------------------------------------


    Psi4 started on: Friday, 26 April 2019 06:41PM

    Process ID:  28019
    PSIDATADIR: /home/grueneis/src/psi4/objdir/stage/usr/local/psi4/share/psi4
    Memory:     500.0 MiB
    Threads:    1
    
  ==> Input File <==

--------------------------------------------------------------------------
# Any line starting with the # character is a comment line

memory 32000 mb

molecule molecule {
0 1
Cl         0.0000000000        0.0000000000       -0.0351730808
H          0.0000000000        0.0000000000        1.2371681191
}

set {
  reference rhf
  basis aug-cc-pv(T+d)z
  scf_type OUT_OF_CORE
  freeze_core true
}

energy('ccsd')
--------------------------------------------------------------------------

  Memory set to  29.802 GiB by Python driver.

*** tstart() called on cqc01
*** at Fri Apr 26 18:41:24 2019

   => Loading Basis Set <=

    Name: AUG-CC-PV(T+D)Z
    Role: ORBITAL
    Keyword: BASIS
    atoms 1 entry CL         line  1012 file /home/grueneis/src/psi4/objdir/stage/usr/local/psi4/share/psi4/basis/aug-cc-pv_tpd_z.gbs 
    atoms 2 entry H          line    56 file /home/grueneis/src/psi4/objdir/stage/usr/local/psi4/share/psi4/basis/aug-cc-pv_tpd_z.gbs 


         ---------------------------------------------------------
                                   SCF
            by Justin Turney, Rob Parrish, Andy Simmonett
                             and Daniel Smith
                              RHF Reference
                        1 Threads,  30517 MiB Core
         ---------------------------------------------------------

  ==> Geometry <==

    Molecular point group: c2v
    Full point group: C_inf_v

    Geometry (in Angstrom), charge = 0, multiplicity = 1:

       Center              X                  Y                   Z               Mass       
    ------------   -----------------  -----------------  -----------------  -----------------
          CL          0.000000000000     0.000000000000    -0.035642460396    34.968852682000
           H          0.000000000000     0.000000000000     1.236698739504     1.007825032070

  Running in c2v symmetry.

  Rotational constants: A = ************  B =     10.63026  C =     10.63026 [cm^-1]
  Rotational constants: A = ************  B = 318687.14570  C = 318687.14570 [MHz]
  Nuclear repulsion =    7.070440340010245

  Charge       = 0
  Multiplicity = 1
  Electrons    = 18
  Nalpha       = 9
  Nbeta        = 9

  ==> Algorithm <==

  SCF Algorithm Type is OUT_OF_CORE.
  DIIS enabled.
  MOM disabled.
  Fractional occupation disabled.
  Guess Type is SAD.
  Energy threshold   = 1.00e-08
  Density threshold  = 1.00e-08
  Integral threshold = 0.00e+00

  ==> Primary Basis <==

  Basis Set: AUG-CC-PV(T+D)Z
    Blend: AUG-CC-PV(T+D)Z
    Number of shells: 26
    Number of basis function: 78
    Number of Cartesian functions: 90
    Spherical Harmonics?: true
    Max angular momentum: 3

  ==> Pre-Iterations <==

   -------------------------------------------------------
    Irrep   Nso     Nmo     Nalpha   Nbeta   Ndocc  Nsocc
   -------------------------------------------------------
     A1        34      34       0       0       0       0
     A2         8       8       0       0       0       0
     B1        18      18       0       0       0       0
     B2        18      18       0       0       0       0
   -------------------------------------------------------
    Total      78      78       9       9       9       0
   -------------------------------------------------------

  ==> Integral Setup <==

  ==> DiskJK: Disk-Based J/K Matrices <==

    J tasked:                  Yes
    K tasked:                  Yes
    wK tasked:                  No
    Memory (MB):             22888
    Schwarz Cutoff:          1E-12

  Minimum eigenvalue in the overlap matrix is 3.6313267061E-04.
  Using Symmetric Orthogonalization.

  SCF Guess: Superposition of Atomic Densities via on-the-fly atomic UHF.

  ==> Iterations <==

                        Total Energy        Delta E     RMS |[F,P]|

   @RHF iter   0:  -460.02105941374879   -4.60021e+02   2.67348e-02 
   @RHF iter   1:  -460.10175627381574   -8.06969e-02   2.49644e-03 
   @RHF iter   2:  -460.10783028653026   -6.07401e-03   9.16430e-04 DIIS
   @RHF iter   3:  -460.10856486525068   -7.34579e-04   2.32531e-04 DIIS
   @RHF iter   4:  -460.10867416297975   -1.09298e-04   3.06600e-05 DIIS
   @RHF iter   5:  -460.10867643621611   -2.27324e-06   4.98028e-06 DIIS
   @RHF iter   6:  -460.10867648153476   -4.53186e-08   1.27807e-06 DIIS
   @RHF iter   7:  -460.10867648312291   -1.58815e-09   2.12182e-07 DIIS
   @RHF iter   8:  -460.10867648323671   -1.13801e-10   5.42279e-08 DIIS
   @RHF iter   9:  -460.10867648324665   -9.94760e-12   7.10688e-09 DIIS

  ==> Post-Iterations <==

    Orbital Energies (a.u.)
    -----------------------

    Doubly Occupied:                                                      

       1A1  -104.850079     2A1   -10.574904     3A1    -8.042082  
       1B1    -8.039894     1B2    -8.039894     4A1    -1.117682  
       5A1    -0.626673     2B2    -0.477194     2B1    -0.477194  

    Virtual:                                                              

       6A1     0.029577     7A1     0.105216     3B2     0.115326  
       3B1     0.115326     8A1     0.145498     9A1     0.192444  
       4B1     0.239706     4B2     0.239706     1A2     0.338421  
      10A1     0.338421    11A1     0.344513     5B1     0.424349  
       5B2     0.424349    12A1     0.425758    13A1     0.611184  
       6B2     0.631006     6B1     0.631006    14A1     0.669826  
       7B2     0.825977     7B1     0.825977     2A2     0.840196  
      15A1     0.840196     3A2     0.900716    16A1     0.900716  
      17A1     0.907053     8B2     0.947460     8B1     0.947460  
      18A1     1.057584     9B2     1.188610     9B1     1.188610  
      10B1     1.291103    10B2     1.291103    19A1     1.303859  
      20A1     1.375026     4A2     1.375026    11B2     1.742069  
      11B1     1.742069    21A1     1.748902    22A1     1.863171  
       5A2     2.318071    23A1     2.318071    24A1     2.362698  
      12B1     2.396979    12B2     2.396979    13B2     2.821279  
      13B1     2.821279    25A1     2.891666    14B1     3.020615  
      14B2     3.020615    15B2     3.056419    15B1     3.056419  
       6A2     3.061319    26A1     3.061319    27A1     3.302870  
      28A1     3.606436    29A1     3.910259     7A2     3.910259  
      16B2     4.395019    16B1     4.395019    17B1     4.475452  
      17B2     4.475452    30A1     4.720276    31A1     5.101993  
      32A1     7.207729     8A2     8.784997    33A1     8.784997  
      18B1     8.882375    18B2     8.882375    34A1     9.621581  

    Final Occupation by Irrep:
             A1    A2    B1    B2 
    DOCC [     5,    0,    2,    2 ]

  Energy converged.

  @RHF Final Energy:  -460.10867648324665

   => Energetics <=

    Nuclear Repulsion Energy =              7.0704403400102454
    One-Electron Energy =                -649.8670430059273713
    Two-Electron Energy =                 182.6879261826705090
    Total Energy =                       -460.1086764832466542



Properties will be evaluated at   0.000000,   0.000000,   0.000000 Bohr

Properties computed using the SCF density matrix

  Nuclear Dipole Moment: (a.u.)
     X:     0.0000      Y:     0.0000      Z:     1.1920

  Electronic Dipole Moment: (a.u.)
     X:     0.0000      Y:     0.0000      Z:    -0.7267

  Dipole Moment: (a.u.)
     X:     0.0000      Y:     0.0000      Z:     0.4653     Total:     0.4653

  Dipole Moment: (Debye)
     X:     0.0000      Y:     0.0000      Z:     1.1826     Total:     1.1826


*** tstop() called on cqc01 at Fri Apr 26 18:41:26 2019
Module time:
	user time   =       1.36 seconds =       0.02 minutes
	system time =       1.29 seconds =       0.02 minutes
	total time  =          2 seconds =       0.03 minutes
Total time:
	user time   =       1.36 seconds =       0.02 minutes
	system time =       1.29 seconds =       0.02 minutes
	total time  =          2 seconds =       0.03 minutes

*** tstart() called on cqc01
*** at Fri Apr 26 18:41:26 2019


	Wfn Parameters:
	--------------------
	Wavefunction         = CCSD
	Number of irreps     = 4
	Number of MOs        = 78
	Number of active MOs = 73
	AO-Basis             = NONE
	Semicanonical        = false
	Reference            = RHF
	Print Level          = 1

	IRREP	# MOs	# FZDC	# DOCC	# SOCC	# VIRT	# FZVR
	-----	-----	------	------	------	------	------
	 A1	   34	    3	    2	    0	    29	    0
	 A2	   8	    0	    0	    0	    8	    0
	 B1	   18	    1	    1	    0	    16	    0
	 B2	   18	    1	    1	    0	    16	    0
	Transforming integrals...
	IWL integrals will be deleted.
	(OO|OO)...
	Presorting SO-basis two-electron integrals.
	Sorting File: SO Ints (nn|nn) nbuckets = 1
	Transforming the one-electron integrals and constructing Fock matrices
	Starting first half-transformation.
	Sorting half-transformed integrals.
	First half integral transformation complete.
	Starting second half-transformation.
	Two-electron integral transformation complete.
	(OO|OV)...
	Starting second half-transformation.
	Two-electron integral transformation complete.
	(OO|VV)...
	Starting second half-transformation.
	Two-electron integral transformation complete.
	(OV|OO)...
	Starting first half-transformation.
	Sorting half-transformed integrals.
	First half integral transformation complete.
	Starting second half-transformation.
	Two-electron integral transformation complete.
	(OV|OV)...
	Starting second half-transformation.
	Two-electron integral transformation complete.
	(OV|VV)...
	Starting second half-transformation.
	Two-electron integral transformation complete.
	(VV|OO)...
	Starting first half-transformation.
	Sorting half-transformed integrals.
	First half integral transformation complete.
	Starting second half-transformation.
	Two-electron integral transformation complete.
	(VV|OV)...
	Starting second half-transformation.
	Two-electron integral transformation complete.
	(VV|VV)...
	Starting second half-transformation.
	Two-electron integral transformation complete.
	Frozen core energy     =   -448.90356842686373

	Size of irrep 0 of <ab|cd> integrals:      2.008 (MW) /     16.063 (MB)
	Size of irrep 1 of <ab|cd> integrals:      0.953 (MW) /      7.621 (MB)
	Size of irrep 2 of <ab|cd> integrals:      1.402 (MW) /     11.215 (MB)
	Size of irrep 3 of <ab|cd> integrals:      1.402 (MW) /     11.215 (MB)
	Total:                                     5.764 (MW) /     46.113 (MB)

	Size of irrep 0 of <ia|bc> integrals:      0.128 (MW) /      1.020 (MB)
	Size of irrep 1 of <ia|bc> integrals:      0.047 (MW) /      0.375 (MB)
	Size of irrep 2 of <ia|bc> integrals:      0.082 (MW) /      0.654 (MB)
	Size of irrep 3 of <ia|bc> integrals:      0.082 (MW) /      0.654 (MB)
	Total:                                     0.338 (MW) /      2.702 (MB)

	Size of irrep 0 of tijab amplitudes:       0.009 (MW) /      0.068 (MB)
	Size of irrep 1 of tijab amplitudes:       0.002 (MW) /      0.016 (MB)
	Size of irrep 2 of tijab amplitudes:       0.005 (MW) /      0.038 (MB)
	Size of irrep 3 of tijab amplitudes:       0.005 (MW) /      0.038 (MB)
	Total:                                     0.020 (MW) /      0.159 (MB)

	Nuclear Rep. energy          =      7.07044034001025
	SCF energy                   =   -460.10867648324665
	One-electron energy          =    -31.15360958139470
	Two-electron energy          =     12.87806118500180
	Reference energy             =   -460.10867648324637

*** tstop() called on cqc01 at Fri Apr 26 18:41:31 2019
Module time:
	user time   =       0.35 seconds =       0.01 minutes
	system time =       0.25 seconds =       0.00 minutes
	total time  =          5 seconds =       0.08 minutes
Total time:
	user time   =       1.71 seconds =       0.03 minutes
	system time =       1.54 seconds =       0.03 minutes
	total time  =          7 seconds =       0.12 minutes

*** tstart() called on cqc01
*** at Fri Apr 26 18:41:31 2019

            **************************
            *                        *
            *        CCENERGY        *
            *                        *
            **************************

    Nuclear Rep. energy (wfn)     =    7.070440340010245
    SCF energy          (wfn)     = -460.108676483246654
    Reference energy    (file100) = -460.108676483246370

    Input parameters:
    -----------------
    Wave function   =     CCSD
    Reference wfn   =     RHF
    Brueckner       =     No
    Memory (Mbytes) =     32000.0
    Maxiter         =     50
    R_Convergence   =     1.0e-07
    E_Convergence   =     1.0e-06
    Restart         =     Yes
    DIIS            =     Yes
    AO Basis        =     NONE
    ABCD            =     NEW
    Cache Level     =     2
    Cache Type      =     LOW
    Print Level     =     1
    Num. of threads =     1
    # Amps to Print =     10
    Print MP2 Amps? =     No
    Analyze T2 Amps =     No
    Print Pair Ener =     No
    Local CC        =     No
    SCS-MP2         =     False
    SCSN-MP2        =     False
    SCS-CCSD        =     False

MP2 correlation energy -0.2080120780825477
                Solving CC Amplitude Equations
                ------------------------------
  Iter             Energy              RMS        T1Diag      D1Diag    New D1Diag    D2Diag
  ----     ---------------------    ---------   ----------  ----------  ----------   --------
     0        -0.208012078082512    0.000e+00    0.000000    0.000000    0.000000    0.126499
     1        -0.248391597308960    1.829e-01    0.008991    0.015292    0.015292    0.159181
     2        -0.229501539421228    2.676e-02    0.006385    0.011944    0.011944    0.147077
     3        -0.228521493331855    4.022e-03    0.006389    0.011655    0.011655    0.145595
     4        -0.228336967865462    1.083e-03    0.006286    0.011511    0.011511    0.145232
     5        -0.228260862294181    2.983e-04    0.006259    0.011451    0.011451    0.145072
     6        -0.228264540475455    7.162e-05    0.006251    0.011435    0.011435    0.145043
     7        -0.228267017852078    1.502e-05    0.006249    0.011431    0.011431    0.145041
     8        -0.228266303503364    3.875e-06    0.006248    0.011430    0.011430    0.145040
     9        -0.228266208852600    9.913e-07    0.006248    0.011429    0.011429    0.145040
    10        -0.228266230914381    2.889e-07    0.006248    0.011429    0.011429    0.145040
    11        -0.228266230440745    8.338e-08    0.006248    0.011429    0.011429    0.145040
    11        -0.228266230440745    8.338e-08    0.006248    0.011429    0.011429    0.145040

    Iterations converged.


    CCSD corr. energy   =   -0.228266230440745
    PPL corr. energy    =    0.057934958872520
    OS PPL corr. energy =    0.047851926773654
    SS PPL corr. energy =    0.010083032098865
    Largest TIA Amplitudes:
              3  54        -0.0061911838
              2  38        -0.0061911835
              1  11         0.0061396718
              1   5         0.0044248301
              3  55         0.0043722595
              2  39         0.0043722593
              1   3         0.0043538693
              1  12         0.0038335344
              3  57         0.0034248717
              2  41         0.0034248716

    Largest TIjAb Amplitudes:
      1   1   2   2        -0.0383270226
      2   2  40  40        -0.0297167900
      3   3  56  56        -0.0297167900
      1   1   5   5        -0.0287856880
      1   1   2   5         0.0274546965
      1   1   5   2         0.0274546965
      2   2   4   4        -0.0272345638
      2   2  29  29        -0.0272345638
      3   3   4   4        -0.0272345638
      3   3  29  29        -0.0272345638

    SCF energy       (wfn)                    = -460.108676483246654
    Reference energy (file100)                = -460.108676483246370

    Opposite-spin MP2 correlation energy      =   -0.159713587432046
    Same-spin MP2 correlation energy          =   -0.048298490650466
    MP2 correlation energy                    =   -0.208012078082548
      * MP2 total energy                      = -460.316688561328931

    Opposite-spin CCSD correlation energy     =   -0.181505959290626
    Same-spin CCSD correlation energy         =   -0.046760267979920
    CCSD correlation energy                   =   -0.228266230440745
      * CCSD total energy                     = -460.336942713687108


*** tstop() called on cqc01 at Fri Apr 26 18:41:38 2019
Module time:
	user time   =       0.73 seconds =       0.01 minutes
	system time =       2.04 seconds =       0.03 minutes
	total time  =          7 seconds =       0.12 minutes
Total time:
	user time   =       2.44 seconds =       0.04 minutes
	system time =       3.58 seconds =       0.06 minutes
	total time  =         14 seconds =       0.23 minutes

*** Psi4 exiting successfully. Buy a developer a beer!
