
    -----------------------------------------------------------------------
          Psi4: An Open-Source Ab Initio Electronic Structure Package
                               Psi4 1.4a3.dev88 

                         Git: Rev {master} 262e345 


    D. G. A. Smith, L. A. Burns, A. C. Simmonett, R. M. Parrish,
    M. C. Schieber, R. Galvelis, P. Kraus, H. Kruse, R. Di Remigio,
    A. Alenaizan, A. M. James, S. Lehtola, J. P. Misiewicz, M. Scheurer,
    R. A. Shaw, J. B. Schriber, Y. Xie, Z. L. Glick, D. A. Sirianni,
    J. S. O'Brien, J. M. Waldrop, A. Kumar, E. G. Hohenstein,
    B. P. Pritchard, B. R. Brooks, H. F. Schaefer III, A. Yu. Sokolov,
    K. Patkowski, A. E. DePrince III, U. Bozkaya, R. A. King,
    F. A. Evangelista, J. M. Turney, T. D. Crawford, C. D. Sherrill,
    J. Chem. Phys. 152(18) 184108 (2020). https://doi.org/10.1063/5.0006002

                            Additional Code Authors
    E. T. Seidl, C. L. Janssen, E. F. Valeev, M. L. Leininger,
    J. F. Gonthier, R. M. Richard, H. R. McAlexander, M. Saitow, X. Wang,
    P. Verma, and M. H. Lechner

             Previous Authors, Complete List of Code Contributors,
                       and Citations for Specific Modules
    https://github.com/psi4/psi4/blob/master/codemeta.json
    https://github.com/psi4/psi4/graphs/contributors
    http://psicode.org/psi4manual/master/introduction.html#citing-psifour

    -----------------------------------------------------------------------


    Psi4 started on: Monday, 01 February 2021 10:20PM

    Process ID: 128594
    Host:       n411-048.vsc4.prov
    PSIDATADIR: /home/fs71337/gallo4/psi4/eri-6/psi4/build/stage/share/psi4
    Memory:     500.0 MiB
    Threads:    1
    
  ==> Input File <==

--------------------------------------------------------------------------
# Any line starting with the # character is a comment line
memory 650000 mb
molecule molecule{
0 1
S          0.0000000000        0.0438015885       -0.5846592572
C          0.0000000000       -0.0114958136        1.2261415687
H          0.0000000000       -1.2752662122       -0.7816543571
H          0.0000000000        1.0231583645        1.5597948597
H          0.8921706266       -0.5020602051        1.6036026281
H         -0.8921706266       -0.5020602051        1.6036026281
}

set {
  reference rhf
  basis aug-cc-pV(6+d)Z
  scf_type OUT_OF_CORE
  freeze_core true
}

energy('ccsd(t)')
--------------------------------------------------------------------------

  Memory set to 605.360 GiB by Python driver.

Scratch directory: /binfl/lv71337/airmler/temp/

*** tstart() called on n411-048.vsc4.prov
*** at Mon Feb  1 22:20:38 2021

   => Loading Basis Set <=

    Name: AUG-CC-PV(6+D)Z
    Role: ORBITAL
    Keyword: BASIS
    atoms 1   entry S          line  1164 file /home/fs71337/gallo4/psi4/eri-6/psi4/build/stage/share/psi4/basis/aug-cc-pv_6pd_z.gbs 
    atoms 2   entry C          line   267 file /home/fs71337/gallo4/psi4/eri-6/psi4/build/stage/share/psi4/basis/aug-cc-pv_6pd_z.gbs 
    atoms 3-6 entry H          line    51 file /home/fs71337/gallo4/psi4/eri-6/psi4/build/stage/share/psi4/basis/aug-cc-pv_6pd_z.gbs 


         ---------------------------------------------------------
                                   SCF
               by Justin Turney, Rob Parrish, Andy Simmonett
                          and Daniel G. A. Smith
                              RHF Reference
                        1 Threads, 619888 MiB Core
         ---------------------------------------------------------

  ==> Geometry <==

    Molecular point group: cs
    Full point group: Cs

    Geometry (in Angstrom), charge = 0, multiplicity = 1:

       Center              X                  Y                   Z               Mass       
    ------------   -----------------  -----------------  -----------------  -----------------
         S           -0.043876177899     0.585439674434     0.000000000000    31.972071174400
         C            0.011421224201    -1.225361151466     0.000000000000    12.000000000000
         H            1.275191622801     0.782434774334     0.000000000000     1.007825032230
         H           -1.023232953899    -1.559014442466     0.000000000000     1.007825032230
         H            0.501985615701    -1.602822210866     0.892170626600     1.007825032230
         H            0.501985615701    -1.602822210866    -0.892170626600     1.007825032230

  Running in cs symmetry.

  Rotational constants: A =      3.46190  B =      0.43419  C =      0.41638 [cm^-1]
  Rotational constants: A = 103785.25286  B =  13016.70020  C =  12482.77431 [MHz]
  Nuclear repulsion =   56.524325668777379

  Charge       = 0
  Multiplicity = 1
  Electrons    = 26
  Nalpha       = 13
  Nbeta        = 13

  ==> Algorithm <==

  SCF Algorithm Type is OUT_OF_CORE.
  DIIS enabled.
  MOM disabled.
  Fractional occupation disabled.
  Guess Type is SAD.
  Energy threshold   = 1.00e-08
  Density threshold  = 1.00e-08
  Integral threshold = 1.00e-12

  ==> Primary Basis <==

  Basis Set: AUG-CC-PV(6+D)Z
    Blend: AUG-CC-PV(6+D)Z
    Number of shells: 181
    Number of basis function: 895
    Number of Cartesian functions: 1326
    Spherical Harmonics?: true
    Max angular momentum: 6

  ==> Integral Setup <==

  ==> DiskJK: Disk-Based J/K Matrices <==

    J tasked:                  Yes
    K tasked:                  Yes
    wK tasked:                  No
    Memory [MiB]:           464916
    Schwarz Cutoff:          1E-12

  Minimum eigenvalue in the overlap matrix is 2.2795779056E-07.
  Reciprocal condition number of the overlap matrix is 1.6038136277E-08.
    Using symmetric orthogonalization.

  ==> Pre-Iterations <==

  SCF Guess: Superposition of Atomic Densities via on-the-fly atomic UHF (no occupation information).

   -------------------------
    Irrep   Nso     Nmo    
   -------------------------
     A'       511     511 
     A"       384     384 
   -------------------------
    Total     895     895
   -------------------------

  ==> Iterations <==

                        Total Energy        Delta E     RMS |[F,P]|

   @RHF iter SAD:  -437.29264700694841   -4.37293e+02   0.00000e+00 
   @RHF iter   1:  -437.69923201352850   -4.06585e-01   5.67268e-04 DIIS
   @RHF iter   2:  -437.75605018184535   -5.68182e-02   2.23559e-04 DIIS
   @RHF iter   3:  -437.76573385775771   -9.68368e-03   5.41451e-05 DIIS
   @RHF iter   4:  -437.76687004942943   -1.13619e-03   1.74636e-05 DIIS
   @RHF iter   5:  -437.76700265437381   -1.32605e-04   3.69735e-06 DIIS
   @RHF iter   6:  -437.76701106862498   -8.41425e-06   1.03245e-06 DIIS
   @RHF iter   7:  -437.76701178057596   -7.11951e-07   3.31500e-07 DIIS
   @RHF iter   8:  -437.76701184920205   -6.86261e-08   7.69507e-08 DIIS
   @RHF iter   9:  -437.76701185339977   -4.19772e-09   1.41958e-08 DIIS
   @RHF iter  10:  -437.76701185355569   -1.55921e-10   2.82582e-09 DIIS
  Energy and wave function converged.


  ==> Post-Iterations <==

    Orbital Energies [Eh]
    ---------------------

    Doubly Occupied:                                                      

       1Ap   -91.950408     2Ap   -11.255416     3Ap    -8.952321  
       4Ap    -6.633849     5Ap    -6.633066     1App   -6.632387  
       6Ap    -1.038709     7Ap    -0.866861     8Ap    -0.609552  
       2App   -0.593730     9Ap    -0.529155    10Ap    -0.460511  
       3App   -0.357078  

    Virtual:                                                              

      11Ap     0.019961    12Ap     0.028829     4App    0.033587  
      13Ap     0.036124    14Ap     0.056326    15Ap     0.065102  
      16Ap     0.071905     5App    0.075961     6App    0.080293  
      17Ap     0.089609    18Ap     0.091162    19Ap     0.120714  
       7App    0.127703    20Ap     0.138363    21Ap     0.155809  
       8App    0.166914    22Ap     0.168820    23Ap     0.175898  
       9App    0.185238    24Ap     0.185511    25Ap     0.193513  
      26Ap     0.196132    10App    0.198478    11App    0.205323  
      27Ap     0.216544    12App    0.227427    28Ap     0.228189  
      29Ap     0.240697    30Ap     0.243807    13App    0.248943  
      31Ap     0.254532    14App    0.263929    32Ap     0.266552  
      33Ap     0.272939    34Ap     0.275676    15App    0.276100  
      35Ap     0.292398    36Ap     0.299977    16App    0.314282  
      17App    0.327090    37Ap     0.332736    38Ap     0.335989  
      18App    0.346185    39Ap     0.363854    40Ap     0.375108  
      41Ap     0.381113    19App    0.392723    42Ap     0.405629  
      20App    0.407590    43Ap     0.430425    21App    0.443942  
      44Ap     0.452282    22App    0.468749    45Ap     0.482989  
      46Ap     0.501757    23App    0.510110    47Ap     0.511297  
      24App    0.516640    48Ap     0.518235    25App    0.522358  
      49Ap     0.524985    50Ap     0.526322    26App    0.532855  
      51Ap     0.546429    27App    0.546974    52Ap     0.553495  
      53Ap     0.560194    28App    0.562098    54Ap     0.571446  
      29App    0.583788    55Ap     0.586768    56Ap     0.588149  
      30App    0.607796    57Ap     0.623008    58Ap     0.626275  
      31App    0.632472    59Ap     0.635838    32App    0.650485  
      33App    0.654951    60Ap     0.663811    61Ap     0.665776  
      62Ap     0.687817    34App    0.691424    63Ap     0.699073  
      64Ap     0.708309    35App    0.718567    65Ap     0.730402  
      66Ap     0.743557    36App    0.749433    67Ap     0.759237  
      37App    0.773980    68Ap     0.809109    38App    0.811157  
      69Ap     0.813776    70Ap     0.844514    39App    0.853164  
      71Ap     0.891807    72Ap     0.902857    73Ap     0.920056  
      40App    0.952449    41App    0.969947    42App    0.972509  
      74Ap     0.979737    43App    0.991743    75Ap     0.994332  
      44App    1.000564    76Ap     1.002318    77Ap     1.018287  
      78Ap     1.027834    45App    1.044187    79Ap     1.048171  
      46App    1.055852    47App    1.061014    80Ap     1.063187  
      81Ap     1.074986    48App    1.084565    82Ap     1.087072  
      49App    1.108169    83Ap     1.108612    84Ap     1.117224  
      85Ap     1.137341    50App    1.147889    51App    1.150596  
      86Ap     1.161790    87Ap     1.172035    88Ap     1.184023  
      52App    1.198168    53App    1.205254    54App    1.209147  
      89Ap     1.213805    90Ap     1.224217    91Ap     1.234329  
      92Ap     1.247701    55App    1.249098    93Ap     1.254993  
      56App    1.267861    94Ap     1.273593    57App    1.279101  
      95Ap     1.289340    96Ap     1.295324    58App    1.304992  
      97Ap     1.314154    98Ap     1.320397    59App    1.320831  
      99Ap     1.345750    60App    1.359992    61App    1.377374  
     100Ap     1.389901   101Ap     1.398350   102Ap     1.402595  
      62App    1.425368    63App    1.426863   103Ap     1.440857  
     104Ap     1.486928    64App    1.503954   105Ap     1.507433  
      65App    1.513520   106Ap     1.535661    66App    1.539633  
     107Ap     1.547345   108Ap     1.566010    67App    1.578886  
     109Ap     1.584341    68App    1.601665   110Ap     1.625695  
     111Ap     1.642965   112Ap     1.697110   113Ap     1.701043  
      69App    1.702817    70App    1.721872   114Ap     1.722092  
      71App    1.737880    72App    1.741022   115Ap     1.745070  
     116Ap     1.785420   117Ap     1.797876   118Ap     1.809255  
      73App    1.811427    74App    1.841482    75App    1.858437  
     119Ap     1.871782   120Ap     1.894405   121Ap     1.903949  
      76App    1.907309   122Ap     1.927544    77App    1.964751  
     123Ap     1.967582   124Ap     1.997733    78App    2.023000  
     125Ap     2.032512   126Ap     2.044762   127Ap     2.067467  
      79App    2.068345   128Ap     2.093097    80App    2.093903  
     129Ap     2.104528   130Ap     2.138840    81App    2.155544  
      82App    2.172041   131Ap     2.204387    83App    2.219081  
     132Ap     2.232775   133Ap     2.252625    84App    2.254034  
     134Ap     2.258515    85App    2.284649    86App    2.296642  
     135Ap     2.299146    87App    2.328824   136Ap     2.328830  
     137Ap     2.338389    88App    2.354744    89App    2.364308  
     138Ap     2.365571    90App    2.382242   139Ap     2.394995  
     140Ap     2.406735    91App    2.409226   141Ap     2.420103  
      92App    2.421636    93App    2.424435   142Ap     2.441140  
     143Ap     2.459226    94App    2.465151    95App    2.471787  
     144Ap     2.491398   145Ap     2.511666    96App    2.520411  
     146Ap     2.546870   147Ap     2.552182   148Ap     2.570441  
      97App    2.591067   149Ap     2.592402    98App    2.612274  
     150Ap     2.616390    99App    2.628615   100App    2.650223  
     151Ap     2.657075   101App    2.668560   152Ap     2.669079  
     153Ap     2.687830   154Ap     2.690688   102App    2.693428  
     103App    2.702725   155Ap     2.734448   156Ap     2.752039  
     157Ap     2.768930   104App    2.779360   105App    2.785981  
     158Ap     2.787118   159Ap     2.796802   106App    2.798260  
     160Ap     2.815906   161Ap     2.833332   107App    2.849727  
     162Ap     2.871536   108App    2.875102   163Ap     2.890290  
     109App    2.892043   110App    2.919658   164Ap     2.927973  
     111App    2.945855   165Ap     2.953130   166Ap     2.959178  
     112App    2.975939   167Ap     2.981285   168Ap     2.987231  
     113App    3.003840   114App    3.027237   169Ap     3.038810  
     115App    3.042363   170Ap     3.048049   116App    3.090116  
     171Ap     3.106574   117App    3.107752   172Ap     3.128866  
     118App    3.132211   173Ap     3.135420   119App    3.156670  
     174Ap     3.159457   175Ap     3.184428   176Ap     3.197742  
     177Ap     3.238292   120App    3.241845   121App    3.262450  
     178Ap     3.285712   179Ap     3.319740   122App    3.333436  
     180Ap     3.337386   181Ap     3.349110   182Ap     3.373321  
     183Ap     3.409351   184Ap     3.453045   123App    3.457393  
     124App    3.473032   185Ap     3.478862   125App    3.507606  
     186Ap     3.545381   126App    3.555849   187Ap     3.581443  
     188Ap     3.596258   127App    3.628859   189Ap     3.633307  
     128App    3.675621   129App    3.700439   190Ap     3.715758  
     191Ap     3.777849   130App    3.804653   192Ap     3.815297  
     131App    3.845014   193Ap     3.860673   132App    3.869087  
     194Ap     3.904296   195Ap     3.958200   133App    3.975741  
     196Ap     4.006231   134App    4.016367   135App    4.018907  
     197Ap     4.067930   136App    4.079177   198Ap     4.079480  
     199Ap     4.145123   137App    4.146803   200Ap     4.175381  
     201Ap     4.210620   138App    4.235788   139App    4.252057  
     202Ap     4.300004   140App    4.310606   203Ap     4.321607  
     141App    4.338527   204Ap     4.349747   205Ap     4.370357  
     142App    4.370717   206Ap     4.413118   143App    4.430306  
     207Ap     4.433715   208Ap     4.475834   209Ap     4.490087  
     144App    4.507825   210Ap     4.535804   145App    4.555916  
     211Ap     4.568259   212Ap     4.575753   146App    4.596088  
     213Ap     4.611452   147App    4.624421   148App    4.645843  
     214Ap     4.656618   149App    4.680635   215Ap     4.693597  
     150App    4.695273   216Ap     4.742545   151App    4.749891  
     217Ap     4.762943   152App    4.770227   218Ap     4.774587  
     219Ap     4.795158   153App    4.809718   220Ap     4.827002  
     221Ap     4.835123   154App    4.849820   222Ap     4.855684  
     155App    4.880329   223Ap     4.886712   156App    4.903770  
     224Ap     4.921122   157App    4.936805   158App    4.976961  
     225Ap     5.009897   159App    5.012567   226Ap     5.023888  
     227Ap     5.053538   228Ap     5.066609   160App    5.072280  
     161App    5.101581   229Ap     5.123311   230Ap     5.135862  
     231Ap     5.154610   232Ap     5.170721   162App    5.174606  
     233Ap     5.211655   163App    5.221788   164App    5.235995  
     234Ap     5.264467   235Ap     5.280947   236Ap     5.291298  
     165App    5.291576   237Ap     5.314288   166App    5.326196  
     167App    5.331080   238Ap     5.341348   239Ap     5.354892  
     168App    5.357159   240Ap     5.361929   169App    5.376257  
     170App    5.388292   241Ap     5.393917   242Ap     5.395006  
     243Ap     5.400028   171App    5.417028   172App    5.421136  
     244Ap     5.423811   245Ap     5.454680   173App    5.464721  
     174App    5.483605   246Ap     5.483813   175App    5.510710  
     176App    5.517141   247Ap     5.534897   177App    5.535834  
     248Ap     5.553822   249Ap     5.562611   250Ap     5.575172  
     178App    5.578693   251Ap     5.592048   179App    5.611054  
     180App    5.652957   252Ap     5.662755   253Ap     5.705205  
     181App    5.721754   254Ap     5.754443   182App    5.783558  
     255Ap     5.791270   183App    5.796949   256Ap     5.825573  
     184App    5.833185   257Ap     5.850865   258Ap     5.872369  
     259Ap     5.878312   260Ap     5.895608   185App    5.895914  
     186App    5.943615   261Ap     5.966446   187App    5.974293  
     262Ap     6.025061   188App    6.026409   263Ap     6.046181  
     189App    6.051207   190App    6.089927   264Ap     6.095408  
     265Ap     6.128198   266Ap     6.152332   267Ap     6.179098  
     191App    6.181404   268Ap     6.206879   192App    6.225000  
     269Ap     6.242433   193App    6.247624   194App    6.294786  
     270Ap     6.304028   271Ap     6.336894   195App    6.340082  
     272Ap     6.354513   196App    6.379878   273Ap     6.385914  
     274Ap     6.414014   197App    6.437558   275Ap     6.462766  
     198App    6.501866   276Ap     6.507699   199App    6.537816  
     200App    6.556562   277Ap     6.579815   201App    6.596947  
     278Ap     6.631376   202App    6.645351   279Ap     6.664760  
     280Ap     6.712397   281Ap     6.752498   203App    6.775250  
     282Ap     6.782338   204App    6.828812   283Ap     6.870767  
     205App    6.879862   206App    6.915334   284Ap     6.933576  
     285Ap     6.952242   207App    7.010952   286Ap     7.036148  
     287Ap     7.078490   208App    7.086743   288Ap     7.132825  
     209App    7.144065   289Ap     7.164509   210App    7.171681  
     290Ap     7.186302   291Ap     7.300920   211App    7.307261  
     292Ap     7.333790   212App    7.370671   293Ap     7.372270  
     213App    7.419605   294Ap     7.479573   214App    7.494579  
     295Ap     7.539425   296Ap     7.610738   297Ap     7.777515  
     215App    7.784290   298Ap     7.828481   216App    7.910524  
     299Ap     7.945761   217App    7.959714   218App    8.045336  
     300Ap     8.104958   219App    8.110565   220App    8.132349  
     301Ap     8.159104   302Ap     8.192942   303Ap     8.224073  
     221App    8.266922   222App    8.272742   304Ap     8.280645  
     223App    8.344880   305Ap     8.363427   306Ap     8.426281  
     224App    8.436941   307Ap     8.456761   308Ap     8.490879  
     225App    8.564749   309Ap     8.568106   226App    8.625624  
     310Ap     8.628035   311Ap     8.666016   227App    8.714365  
     312Ap     8.795290   228App    8.811718   229App    8.851151  
     313Ap     8.856335   314Ap     8.874624   230App    8.917939  
     315Ap     8.920676   316Ap     8.960186   231App    8.974260  
     232App    9.004823   317Ap     9.012936   318Ap     9.067175  
     319Ap     9.079117   233App    9.080976   320Ap     9.102471  
     321Ap     9.109436   234App    9.143706   235App    9.246257  
     322Ap     9.248153   236App    9.273490   323Ap     9.285766  
     324Ap     9.361988   237App    9.405155   325Ap     9.469401  
     238App    9.477412   326Ap     9.540483   239App    9.574728  
     327Ap     9.580941   240App    9.637206   328Ap     9.638054  
     241App    9.657047   329Ap     9.673539   330Ap     9.712864  
     242App    9.728961   243App    9.767099   244App    9.799572  
     331Ap     9.802675   332Ap     9.812604   245App    9.832847  
     333Ap     9.854473   334Ap     9.868337   246App    9.933939  
     335Ap     9.941060   336Ap    10.001553   247App   10.012284  
     337Ap    10.014444   338Ap    10.032346   248App   10.044230  
     339Ap    10.096555   340Ap    10.117921   249App   10.187535  
     250App   10.211592   341Ap    10.243695   342Ap    10.255852  
     251App   10.272738   252App   10.336523   343Ap    10.337723  
     253App   10.361422   344Ap    10.383306   254App   10.413689  
     345Ap    10.450169   346Ap    10.482031   255App   10.496995  
     347Ap    10.515413   256App   10.598894   348Ap    10.602517  
     349Ap    10.639999   350Ap    10.649781   257App   10.660172  
     351Ap    10.700599   258App   10.728378   259App   10.747965  
     352Ap    10.749127   353Ap    10.756455   260App   10.807599  
     354Ap    10.822851   261App   10.831479   355Ap    10.854183  
     262App   10.878752   356Ap    10.886004   357Ap    10.904337  
     263App   10.907243   358Ap    10.964284   264App   10.999704  
     359Ap    11.012753   265App   11.033830   266App   11.064806  
     360Ap    11.067025   361Ap    11.127785   362Ap    11.187948  
     267App   11.212947   363Ap    11.233492   268App   11.252032  
     364Ap    11.329678   365Ap    11.377654   269App   11.386421  
     270App   11.406379   366Ap    11.456793   367Ap    11.516691  
     271App   11.605926   368Ap    11.609591   369Ap    11.648641  
     272App   11.678426   273App   11.748443   274App   11.802891  
     370Ap    11.807844   371Ap    11.816568   275App   11.842806  
     276App   11.897818   372Ap    11.919545   373Ap    11.962632  
     277App   11.974184   374Ap    12.023323   278App   12.026711  
     375Ap    12.070349   279App   12.129919   280App   12.207167  
     376Ap    12.213315   377Ap    12.258686   281App   12.385084  
     378Ap    12.434765   282App   12.454959   379Ap    12.502171  
     283App   12.502977   380Ap    12.533608   381Ap    12.549939  
     382Ap    12.638015   284App   12.658091   383Ap    12.715506  
     285App   12.771498   384Ap    12.817385   385Ap    12.929373  
     286App   12.957534   386Ap    13.033404   387Ap    13.191225  
     287App   13.198201   288App   13.216207   388Ap    13.343782  
     289App   13.575961   389Ap    13.597590   390Ap    13.615584  
     290App   13.924205   291App   14.077553   391Ap    14.130287  
     292App   14.158335   392Ap    14.161245   393Ap    14.302659  
     394Ap    14.344389   293App   14.347848   395Ap    14.523502  
     396Ap    14.715729   397Ap    14.805756   294App   14.836613  
     295App   14.941252   296App   14.947678   398Ap    14.989693  
     399Ap    15.162795   400Ap    15.446557   297App   15.480769  
     298App   15.511070   299App   15.536589   401Ap    15.583122  
     300App   15.602508   402Ap    15.616730   301App   15.683089  
     403Ap    15.792069   404Ap    15.812098   302App   16.010936  
     405Ap    16.051907   303App   16.210465   406Ap    16.234662  
     407Ap    16.288697   408Ap    16.694403   304App   16.698281  
     409Ap    16.713064   410Ap    16.822607   305App   17.051920  
     411Ap    17.139186   412Ap    17.157105   413Ap    17.437437  
     414Ap    17.566730   306App   17.589401   307App   17.602907  
     415Ap    17.603148   308App   17.690564   309App   17.716923  
     416Ap    17.722702   417Ap    17.758047   310App   17.785019  
     311App   17.806396   418Ap    17.819412   419Ap    17.841206  
     312App   17.867858   420Ap    17.876769   421Ap    17.905885  
     313App   17.978259   422Ap    17.994396   423Ap    18.062370  
     314App   18.085897   424Ap    18.155154   315App   18.170547  
     316App   18.402455   317App   18.493127   425Ap    18.519879  
     318App   18.550783   426Ap    18.554778   427Ap    18.663265  
     319App   18.852868   428Ap    18.884148   320App   19.206697  
     429Ap    19.220965   321App   19.231444   430Ap    19.239624  
     322App   19.251585   431Ap    19.362107   432Ap    19.387103  
     323App   19.409914   433Ap    19.442820   324App   19.534601  
     434Ap    19.632104   325App   19.728101   435Ap    19.736329  
     436Ap    20.063110   437Ap    20.252538   438Ap    20.494344  
     326App   20.499740   327App   20.533132   439Ap    20.557626  
     328App   20.607460   329App   20.618941   440Ap    20.629269  
     330App   20.783146   331App   20.796897   441Ap    20.818079  
     332App   20.897148   442Ap    20.902005   443Ap    20.950859  
     333App   20.996903   444Ap    21.051706   334App   21.067044  
     445Ap    21.075203   446Ap    21.118411   335App   21.259187  
     447Ap    21.299385   336App   21.653329   337App   21.680692  
     448Ap    21.710982   338App   21.752619   449Ap    21.802897  
     450Ap    21.833198   339App   21.861353   451Ap    21.939670  
     452Ap    21.999321   340App   22.066226   341App   22.078850  
     453Ap    22.081973   342App   22.149353   454Ap    22.162097  
     455Ap    22.191507   343App   22.205393   344App   22.291627  
     456Ap    22.300607   457Ap    22.341222   345App   22.393637  
     458Ap    22.416515   346App   22.494490   459Ap    22.541123  
     347App   22.564854   460Ap    22.583172   348App   22.905211  
     461Ap    22.912727   462Ap    22.957674   463Ap    22.971423  
     349App   22.982779   464Ap    23.006224   350App   23.025701  
     465Ap    23.262926   351App   23.305593   466Ap    23.350510  
     352App   23.383553   467Ap    23.447354   468Ap    23.480649  
     353App   23.516124   469Ap    23.572793   354App   23.987311  
     470Ap    24.049209   355App   24.285141   471Ap    24.314600  
     356App   24.530053   472Ap    24.543459   473Ap    24.593617  
     357App   24.617042   358App   24.639529   474Ap    24.654774  
     359App   24.698509   475Ap    24.724105   360App   24.727072  
     361App   24.752997   476Ap    24.762926   477Ap    24.777189  
     362App   24.787728   478Ap    24.815164   479Ap    24.849468  
     363App   24.864843   480Ap    24.967840   481Ap    24.994170  
     364App   25.417926   365App   25.517166   482Ap    25.527320  
     483Ap    25.729371   484Ap    25.752607   366App   25.837166  
     485Ap    25.846824   486Ap    25.867927   367App   26.005991  
     368App   26.143721   487Ap    26.169226   488Ap    26.626793  
     369App   27.128255   370App   27.186727   489Ap    27.228609  
     490Ap    27.259148   371App   27.398111   491Ap    27.424901  
     372App   27.632523   492Ap    27.647504   373App   27.731274  
     493Ap    27.768394   374App   27.839496   375App   27.969337  
     494Ap    28.006904   495Ap    28.025305   496Ap    28.523289  
     497Ap    28.687583   376App   28.714717   377App   31.257412  
     498Ap    31.425313   378App   31.531466   499Ap    31.766255  
     379App   31.965108   500Ap    32.532837   501Ap    34.774551  
     380App   34.948145   502Ap    35.265949   503Ap    36.142223  
     504Ap    36.867891   381App   36.958806   505Ap    36.997860  
     382App   37.054289   383App   37.097682   506Ap    37.140004  
     507Ap    37.597691   508Ap    39.657470   384App   40.138551  
     509Ap    40.150489   510Ap    66.646222   511Ap   249.482022  

    Final Occupation by Irrep:
             Ap   App 
    DOCC [    10,    3 ]

  @RHF Final Energy:  -437.76701185355569

   => Energetics <=

    Nuclear Repulsion Energy =             56.5243256687773794
    One-Electron Energy =                -715.5565892431857264
    Two-Electron Energy =                 221.2652517208526888
    Total Energy =                       -437.7670118535556867

Computation Completed


Properties will be evaluated at   0.000000,   0.000000,   0.000000 [a0]

Properties computed using the SCF density matrix

  Nuclear Dipole Moment: [e a0]
     X:     1.1762      Y:    -3.7178      Z:     0.0000

  Electronic Dipole Moment: [e a0]
     X:    -0.8657      Y:     3.1461      Z:     0.0000

  Dipole Moment: [e a0]
     X:     0.3105      Y:    -0.5717      Z:     0.0000     Total:     0.6506

  Dipole Moment: [D]
     X:     0.7893      Y:    -1.4531      Z:     0.0000     Total:     1.6536


*** tstop() called on n411-048.vsc4.prov at Tue Feb  2 17:28:44 2021
Module time:
	user time   =   25544.30 seconds =     425.74 minutes
	system time =   28100.39 seconds =     468.34 minutes
	total time  =      68886 seconds =    1148.10 minutes
Total time:
	user time   =   25544.30 seconds =     425.74 minutes
	system time =   28100.39 seconds =     468.34 minutes
	total time  =      68886 seconds =    1148.10 minutes

*** tstart() called on n411-048.vsc4.prov
*** at Tue Feb  2 17:28:44 2021


	Wfn Parameters:
	--------------------
	Wavefunction         = CCSD_T
	Number of irreps     = 2
	Number of MOs        = 895
	Number of active MOs = 889
	AO-Basis             = NONE
	Semicanonical        = false
	Reference            = RHF
	Print Level          = 1

	IRREP	# MOs	# FZDC	# DOCC	# SOCC	# VIRT	# FZVR
	-----	-----	------	------	------	------	------
	 Ap	   511	    5	    5	    0	    501	    0
	 App	   384	    1	    2	    0	    381	    0
	Transforming integrals...
	IWL integrals will be deleted.
	(OO|OO)...
	Presorting SO-basis two-electron integrals.
	Sorting File: SO Ints (nn|nn) nbuckets = 1
	Constructing frozen core operators
	Starting first half-transformation.
	Sorting half-transformed integrals.
	First half integral transformation complete.
	Starting second half-transformation.
	Two-electron integral transformation complete.
	(OO|OV)...
	Starting second half-transformation.
	Two-electron integral transformation complete.
	(OO|VV)...
	Starting second half-transformation.
	Two-electron integral transformation complete.
	(OV|OO)...
	Starting first half-transformation.
	Sorting half-transformed integrals.
	First half integral transformation complete.
	Starting second half-transformation.
	Two-electron integral transformation complete.
	(OV|OV)...
	Starting second half-transformation.
	Two-electron integral transformation complete.
	(OV|VV)...
	Starting second half-transformation.
	Two-electron integral transformation complete.
	(VV|OO)...
	Starting first half-transformation.
	Sorting half-transformed integrals.
	First half integral transformation complete.
	Starting second half-transformation.
	Two-electron integral transformation complete.
	(VV|OV)...
	Starting second half-transformation.
	Two-electron integral transformation complete.
	(VV|VV)...
	Starting second half-transformation.
	Two-electron integral transformation complete.
	Frozen core energy     =   -454.89036818762236

	Size of irrep 0 of <ab|cd> integrals: 156944.330 (MW) / 1255554.642 (MB)
	Size of irrep 1 of <ab|cd> integrals: 145742.225 (MW) / 1165937.797 (MB)
	Total:                                302686.555 (MW) / 2421492.439 (MB)

	Size of irrep 0 of <ia|bc> integrals:   1294.261 (MW) /  10354.090 (MB)
	Size of irrep 1 of <ia|bc> integrals:   1109.782 (MW) /   8878.257 (MB)
	Total:                                  2404.043 (MW) /  19232.347 (MB)

	Size of irrep 0 of tijab amplitudes:      11.489 (MW) /     91.910 (MB)
	Size of irrep 1 of tijab amplitudes:       7.635 (MW) /     61.082 (MB)
	Total:                                    19.124 (MW) /    152.992 (MB)

	Nuclear Rep. energy          =     56.52432566877738
	SCF energy                   =   -437.76701185355569
	One-electron energy          =    -69.89074538586088
	Two-electron energy          =     30.48977605114614
	Reference energy             =   -437.76701185355972

*** tstop() called on n411-048.vsc4.prov at Wed Feb  3 19:02:32 2021
Module time:
	user time   =   52272.74 seconds =     871.21 minutes
	system time =   16522.61 seconds =     275.38 minutes
	total time  =      92028 seconds =    1533.80 minutes
Total time:
	user time   =   77817.04 seconds =    1296.95 minutes
	system time =   44623.00 seconds =     743.72 minutes
	total time  =     160914 seconds =    2681.90 minutes
            **************************
            *                        *
            *        CCENERGY        *
            *                        *
            **************************

    Nuclear Rep. energy (wfn)     =   56.524325668777379
    SCF energy          (wfn)     = -437.767011853555687
    Reference energy    (file100) = -437.767011853559723

    Input parameters:
    -----------------
    Wave function   =     CCSD_T
    Reference wfn   =     RHF
    Brueckner       =     No
    Memory (Mbytes) =     650000.0
    Maxiter         =     50
    R_Convergence   =     1.0e-07
    E_Convergence   =     1.0e-06
    Restart         =     Yes
    DIIS            =     Yes
    AO Basis        =     NONE
    ABCD            =     NEW
    Cache Level     =     2
    Cache Type      =     LOW
    Print Level     =     1
    Num. of threads =     1
    # Amps to Print =     10
    Print MP2 Amps? =     No
    Analyze T2 Amps =     No
    Print Pair Ener =     No
    Local CC        =     No
    SCS-MP2         =     False
    SCSN-MP2        =     False
    SCS-CCSD        =     False

MP2 correlation energy -0.4074162562597520
                Solving CC Amplitude Equations
                ------------------------------
  Iter             Energy              RMS        T1Diag      D1Diag    New D1Diag    D2Diag
  ----     ---------------------    ---------   ----------  ----------  ----------   --------
     0        -0.407416256259752    0.000e+00    0.000000    0.000000    0.000000    0.144203
     1        -0.418644521147105    5.396e-02    0.007648    0.014809    0.014809    0.150751
     2        -0.429666586825543    1.830e-02    0.008461    0.016628    0.016628    0.158374
     3        -0.430690844905604    5.830e-03    0.009505    0.019066    0.019066    0.160073
     4        -0.430598214453518    1.495e-03    0.009705    0.019563    0.019563    0.160476
     5        -0.430629198645577    4.713e-04    0.009774    0.019760    0.019760    0.160580
     6        -0.430632505397919    1.472e-04    0.009797    0.019811    0.019811    0.160588
     7        -0.430629073737691    5.263e-05    0.009802    0.019821    0.019821    0.160587
     8        -0.430628644806313    1.766e-05    0.009804    0.019824    0.019824    0.160586
     9        -0.430629189229453    6.110e-06    0.009804    0.019825    0.019825    0.160586
    10        -0.430628913790326    2.391e-06    0.009805    0.019824    0.019824    0.160586
    11        -0.430628927910891    8.093e-07    0.009805    0.019824    0.019824    0.160586
    12        -0.430628900117829    2.783e-07    0.009805    0.019824    0.019824    0.160586
    13        -0.430628901069825    9.371e-08    0.009805    0.019824    0.019824    0.160586

    Iterations converged.


    Largest TIA Amplitudes:
              4  26         0.0064367209
              6 515        -0.0063079270
              2  29         0.0060571821
              4  58        -0.0058277865
              3  10         0.0055966358
              5 517        -0.0053868984
              6 505        -0.0047932468
              2  10         0.0047548438
              6 514        -0.0045499428
              2  21        -0.0044737325

    Largest TIjAb Amplitudes:
      6   6 516 516        -0.0156816585
      6   6  28  28        -0.0145629260
      4   4  10  10        -0.0145319618
      4   4  28  28        -0.0136117923
      3   3  21  21        -0.0105676395
      6   6  21  21        -0.0102243784
      6   6 517 517        -0.0099211214
      4   4  10  24        -0.0097178012
      4   4  24  10        -0.0097178012
      4   4  24  24        -0.0094759499

    SCF energy       (wfn)                    = -437.767011853555687
    Reference energy (file100)                = -437.767011853559723

    Opposite-spin MP2 correlation energy      =   -0.325339945903938
    Same-spin MP2 correlation energy          =   -0.082076310355814
    Singles MP2 correlation energy            =   -0.000000000000000
    MP2 correlation energy                    =   -0.407416256259752
      * MP2 total energy                      = -438.174428109819473

    Opposite-spin CCSD correlation energy     =   -0.352697430505487
    Same-spin CCSD correlation energy         =   -0.077931470564910
    Singles CCSD correlation energy           =    0.000000000000000
    CCSD correlation energy                   =   -0.430628901069825
      * CCSD total energy                     = -438.197640754629560

            **************************
            *                        *
            *        CCTRIPLES       *
            *                        *
            **************************


    Wave function   =    CCSD_T
    Reference wfn   =      RHF

    Nuclear Rep. energy (wfn)                =   56.524325668777379
    SCF energy          (wfn)                = -437.767011853555687
    Reference energy    (file100)            = -437.767011853559723
    CCSD energy         (file100)            =   -0.430628901069825
    Total CCSD energy   (file100)            = -438.197640754629560

    Number of ijk index combinations:               84
    Memory available in words        :     81250000000
    ~Words needed per explicit thread:       503006004
    Number of threads for explicit ijk threading:    1

    (T) energy                                =   -0.018772972477382
      * CCSD(T) total energy                  = -438.216413727106954


    Psi4 stopped on: Thursday, 04 February 2021 05:08AM
    Psi4 wall time for execution: 2 days, 6:47:47.25

*** Psi4 exiting successfully. Buy a developer a beer!
