
    -----------------------------------------------------------------------
          Psi4: An Open-Source Ab Initio Electronic Structure Package
                               Psi4 1.4a3.dev88 

                         Git: Rev {master} 262e345 


    D. G. A. Smith, L. A. Burns, A. C. Simmonett, R. M. Parrish,
    M. C. Schieber, R. Galvelis, P. Kraus, H. Kruse, R. Di Remigio,
    A. Alenaizan, A. M. James, S. Lehtola, J. P. Misiewicz, M. Scheurer,
    R. A. Shaw, J. B. Schriber, Y. Xie, Z. L. Glick, D. A. Sirianni,
    J. S. O'Brien, J. M. Waldrop, A. Kumar, E. G. Hohenstein,
    B. P. Pritchard, B. R. Brooks, H. F. Schaefer III, A. Yu. Sokolov,
    K. Patkowski, A. E. DePrince III, U. Bozkaya, R. A. King,
    F. A. Evangelista, J. M. Turney, T. D. Crawford, C. D. Sherrill,
    J. Chem. Phys. 152(18) 184108 (2020). https://doi.org/10.1063/5.0006002

                            Additional Code Authors
    E. T. Seidl, C. L. Janssen, E. F. Valeev, M. L. Leininger,
    J. F. Gonthier, R. M. Richard, H. R. McAlexander, M. Saitow, X. Wang,
    P. Verma, and M. H. Lechner

             Previous Authors, Complete List of Code Contributors,
                       and Citations for Specific Modules
    https://github.com/psi4/psi4/blob/master/codemeta.json
    https://github.com/psi4/psi4/graphs/contributors
    http://psicode.org/psi4manual/master/introduction.html#citing-psifour

    -----------------------------------------------------------------------


    Psi4 started on: Wednesday, 20 January 2021 09:15PM

    Process ID: 456851
    Host:       l43
    PSIDATADIR: /home/fs71337/gallo4/psi4/psi4/build/stage/share/psi4
    Memory:     500.0 MiB
    Threads:    48
    
  ==> Input File <==

--------------------------------------------------------------------------
# Any line starting with the # character is a comment line
memory 250000 mb
molecule molecule{
-1 1
O          0.0000000000        0.0000000000        0.0573315255
H          0.0000000000        0.0000000000       -0.9100442572
}

set {
  reference rhf
  basis aug-cc-pV(Q+d)Z
  scf_type OUT_OF_CORE
  freeze_core true
}

energy('ccsd(t)')
--------------------------------------------------------------------------

  Memory set to 232.831 GiB by Python driver.

Scratch directory: /tmp/

*** tstart() called on l43
*** at Wed Jan 20 21:15:16 2021

   => Loading Basis Set <=

    Name: AUG-CC-PV(Q+D)Z
    Role: ORBITAL
    Keyword: BASIS
    atoms 1 entry O          line   451 file /home/fs71337/gallo4/psi4/psi4/build/stage/share/psi4/basis/aug-cc-pv_qpd_z.gbs 
    atoms 2 entry H          line    68 file /home/fs71337/gallo4/psi4/psi4/build/stage/share/psi4/basis/aug-cc-pv_qpd_z.gbs 


         ---------------------------------------------------------
                                   SCF
               by Justin Turney, Rob Parrish, Andy Simmonett
                          and Daniel G. A. Smith
                              RHF Reference
                       48 Threads, 238418 MiB Core
         ---------------------------------------------------------

  ==> Geometry <==

    Molecular point group: c2v
    Full point group: C_inf_v

    Geometry (in Angstrom), charge = -1, multiplicity = 1:

       Center              X                  Y                   Z               Mass       
    ------------   -----------------  -----------------  -----------------  -----------------
         O            0.000000000000     0.000000000000     0.057340496258    15.994914619570
         H            0.000000000000     0.000000000000    -0.910035286442     1.007825032230

  Running in c2v symmetry.

  Rotational constants: A = ************  B =     19.00019  C =     19.00019 [cm^-1]
  Rotational constants: A = ************  B = 569611.32434  C = 569611.32434 [MHz]
  Nuclear repulsion =    4.376187373167741

  Charge       = -1
  Multiplicity = 1
  Electrons    = 10
  Nalpha       = 5
  Nbeta        = 5

  ==> Algorithm <==

  SCF Algorithm Type is OUT_OF_CORE.
  DIIS enabled.
  MOM disabled.
  Fractional occupation disabled.
  Guess Type is SAD.
  Energy threshold   = 1.00e-08
  Density threshold  = 1.00e-08
  Integral threshold = 1.00e-12

  ==> Primary Basis <==

  Basis Set: AUG-CC-PV(Q+D)Z
    Blend: AUG-CC-PV(Q+D)Z
    Number of shells: 34
    Number of basis function: 126
    Number of Cartesian functions: 160
    Spherical Harmonics?: true
    Max angular momentum: 4

  ==> Integral Setup <==

  ==> DiskJK: Disk-Based J/K Matrices <==

    J tasked:                  Yes
    K tasked:                  Yes
    wK tasked:                  No
    Memory [MiB]:           178813
    Schwarz Cutoff:          1E-12

  Minimum eigenvalue in the overlap matrix is 1.3548973633E-04.
  Reciprocal condition number of the overlap matrix is 2.4165512952E-05.
    Using symmetric orthogonalization.

  ==> Pre-Iterations <==

  SCF Guess: Superposition of Atomic Densities via on-the-fly atomic UHF (no occupation information).


 WARNING: Atomic UHF is not converging! Try casting from a smaller basis or call Rob at CCMST.

 WARNING: Atomic UHF is not converging! Try casting from a smaller basis or call Rob at CCMST.
   -------------------------
    Irrep   Nso     Nmo    
   -------------------------
     A1        50      50 
     A2        16      16 
     B1        30      30 
     B2        30      30 
   -------------------------
    Total     126     126
   -------------------------

  ==> Iterations <==

                        Total Energy        Delta E     RMS |[F,P]|

   @RHF iter SAD:   -74.63960241779452   -7.46396e+01   0.00000e+00 
   @RHF iter   1:   -75.21352221718229   -5.73920e-01   1.01143e-02 DIIS
   @RHF iter   2:   -75.21142858640302    2.09363e-03   1.08385e-02 DIIS
   @RHF iter   3:   -75.41636121856004   -2.04933e-01   3.54489e-04 DIIS
   @RHF iter   4:   -75.41675332820220   -3.92110e-04   1.31807e-04 DIIS
   @RHF iter   5:   -75.41680198334056   -4.86551e-05   2.69757e-05 DIIS
   @RHF iter   6:   -75.41680704369656   -5.06036e-06   1.05355e-05 DIIS
   @RHF iter   7:   -75.41680803981851   -9.96122e-07   2.90025e-06 DIIS
   @RHF iter   8:   -75.41680814210456   -1.02286e-07   6.11825e-07 DIIS
   @RHF iter   9:   -75.41680814657093   -4.46637e-09   1.61905e-07 DIIS
   @RHF iter  10:   -75.41680814690487   -3.33941e-10   4.26008e-08 DIIS
   @RHF iter  11:   -75.41680814692340   -1.85310e-11   5.84567e-09 DIIS
  Energy and wave function converged.


  ==> Post-Iterations <==

    Orbital Energies [Eh]
    ---------------------

    Doubly Occupied:                                                      

       1A1   -20.185371     2A1    -0.901540     3A1    -0.251134  
       1B1    -0.109242     1B2    -0.109242  

    Virtual:                                                              

       4A1     0.170555     5A1     0.289809     2B1     0.328100  
       2B2     0.328100     6A1     0.356545     3B1     0.412413  
       3B2     0.412413     7A1     0.428807     8A1     0.591510  
       9A1     0.746788     1A2     0.746788    10A1     0.765693  
       4B1     0.801991     4B2     0.801991    11A1     0.894845  
       5B1     0.894901     5B2     0.894901     2A2     0.929983  
      12A1     0.929983    13A1     0.978768     6B1     1.058258  
       6B2     1.058258    14A1     1.074893     7B1     1.467566  
       7B2     1.467566    15A1     1.554083     8B2     1.652721  
       8B1     1.652721    16A1     1.800987    17A1     1.840535  
       3A2     1.840535     9B1     1.862714     9B2     1.862714  
      18A1     1.905120     4A2     1.905120    19A1     1.929929  
      20A1     1.949737    10B1     1.991738    10B2     1.991738  
      11B2     2.025927    11B1     2.025927    21A1     2.161512  
       5A2     2.161512    22A1     2.207107    12B1     2.442466  
      12B2     2.442466    23A1     2.763902    13B1     3.010616  
      13B2     3.010616    14B2     3.316729    14B1     3.316729  
       6A2     3.322866    24A1     3.322866    25A1     3.381759  
      26A1     3.963843    27A1     4.047073     7A2     4.047073  
      15B1     4.162228    15B2     4.162228    16B1     4.303062  
      16B2     4.303062    28A1     4.382999    17B1     4.494072  
      17B2     4.494072     8A2     4.527122    29A1     4.527122  
      18B1     4.553967    18B2     4.553967    30A1     4.619321  
      31A1     4.703053     9A2     4.703053    32A1     4.762092  
      19B2     5.157533    19B1     5.157533    10A2     5.207910  
      33A1     5.207910    34A1     5.538164    20B2     5.971502  
      20B1     5.971502    35A1     6.246263    21B1     7.065082  
      21B2     7.065082    22B2     8.111451    22B1     8.111451  
      11A2     8.139264    36A1     8.139264    37A1     8.219976  
      12A2     8.921587    38A1     8.921587    39A1     8.932032  
      23B2     9.075592    23B1     9.075592    40A1    10.158646  
      24B2    10.227961    24B1    10.227961    41A1    11.036375  
      42A1    11.057209    13A2    11.057209    25B2    11.189021  
      25B1    11.189021    26B2    11.321750    26B1    11.321750  
      14A2    11.607596    43A1    11.607596    27B2    11.952431  
      27B1    11.952431    44A1    12.013963    28B2    12.311715  
      28B1    12.311715    15A2    12.451703    45A1    12.451703  
      46A1    12.646696    29B2    13.169198    29B1    13.169198  
      16A2    13.270504    47A1    13.270504    48A1    14.779420  
      30B2    14.961067    30B1    14.961067    49A1    17.253928  
      50A1    43.430826  

    Final Occupation by Irrep:
             A1    A2    B1    B2 
    DOCC [     3,    0,    1,    1 ]

  @RHF Final Energy:   -75.41680814692340

   => Energetics <=

    Nuclear Repulsion Energy =              4.3761873731677410
    One-Electron Energy =                -116.4729340985244335
    Two-Electron Energy =                  36.6799385784332941
    Total Energy =                        -75.4168081469234011

Computation Completed


Properties will be evaluated at   0.000000,   0.000000,   0.000000 [a0]

Properties computed using the SCF density matrix

  Nuclear Dipole Moment: [e a0]
     X:     0.0000      Y:     0.0000      Z:    -0.8529

  Electronic Dipole Moment: [e a0]
     X:     0.0000      Y:     0.0000      Z:     0.3615

  Dipole Moment: [e a0]
     X:     0.0000      Y:     0.0000      Z:    -0.4913     Total:     0.4913

  Dipole Moment: [D]
     X:     0.0000      Y:     0.0000      Z:    -1.2488     Total:     1.2488


*** tstop() called on l43 at Wed Jan 20 21:15:25 2021
Module time:
	user time   =      11.82 seconds =       0.20 minutes
	system time =       3.88 seconds =       0.06 minutes
	total time  =          9 seconds =       0.15 minutes
Total time:
	user time   =      11.82 seconds =       0.20 minutes
	system time =       3.88 seconds =       0.06 minutes
	total time  =          9 seconds =       0.15 minutes

*** tstart() called on l43
*** at Wed Jan 20 21:15:25 2021


	Wfn Parameters:
	--------------------
	Wavefunction         = CCSD_T
	Number of irreps     = 4
	Number of MOs        = 126
	Number of active MOs = 125
	AO-Basis             = NONE
	Semicanonical        = false
	Reference            = RHF
	Print Level          = 1

	IRREP	# MOs	# FZDC	# DOCC	# SOCC	# VIRT	# FZVR
	-----	-----	------	------	------	------	------
	 A1	   50	    1	    2	    0	    47	    0
	 A2	   16	    0	    0	    0	    16	    0
	 B1	   30	    0	    1	    0	    29	    0
	 B2	   30	    0	    1	    0	    29	    0
	Transforming integrals...
	IWL integrals will be deleted.
	(OO|OO)...
	Presorting SO-basis two-electron integrals.
	Sorting File: SO Ints (nn|nn) nbuckets = 1
	Constructing frozen core operators
	Starting first half-transformation.
	Sorting half-transformed integrals.
	First half integral transformation complete.
	Starting second half-transformation.
	Two-electron integral transformation complete.
	(OO|OV)...
	Starting second half-transformation.
	Two-electron integral transformation complete.
	(OO|VV)...
	Starting second half-transformation.
	Two-electron integral transformation complete.
	(OV|OO)...
	Starting first half-transformation.
	Sorting half-transformed integrals.
	First half integral transformation complete.
	Starting second half-transformation.
	Two-electron integral transformation complete.
	(OV|OV)...
	Starting second half-transformation.
	Two-electron integral transformation complete.
	(OV|VV)...
	Starting second half-transformation.
	Two-electron integral transformation complete.
	(VV|OO)...
	Starting first half-transformation.
	Sorting half-transformed integrals.
	First half integral transformation complete.
	Starting second half-transformation.
	Two-electron integral transformation complete.
	(VV|OV)...
	Starting second half-transformation.
	Two-electron integral transformation complete.
	(VV|VV)...
	Starting second half-transformation.
	Two-electron integral transformation complete.
	Frozen core energy     =    -60.20090121514934

	Size of irrep 0 of <ab|cd> integrals:     17.198 (MW) /    137.581 (MB)
	Size of irrep 1 of <ab|cd> integrals:     10.151 (MW) /     81.205 (MB)
	Size of irrep 2 of <ab|cd> integrals:     13.352 (MW) /    106.814 (MB)
	Size of irrep 3 of <ab|cd> integrals:     13.352 (MW) /    106.814 (MB)
	Total:                                    54.052 (MW) /    432.413 (MB)

	Size of irrep 0 of <ia|bc> integrals:      0.630 (MW) /      5.043 (MB)
	Size of irrep 1 of <ia|bc> integrals:      0.287 (MW) /      2.294 (MB)
	Size of irrep 2 of <ia|bc> integrals:      0.442 (MW) /      3.537 (MB)
	Size of irrep 3 of <ia|bc> integrals:      0.442 (MW) /      3.537 (MB)
	Total:                                     1.801 (MW) /     14.411 (MB)

	Size of irrep 0 of tijab amplitudes:       0.025 (MW) /      0.199 (MB)
	Size of irrep 1 of tijab amplitudes:       0.006 (MW) /      0.051 (MB)
	Size of irrep 2 of tijab amplitudes:       0.015 (MW) /      0.117 (MB)
	Size of irrep 3 of tijab amplitudes:       0.015 (MW) /      0.117 (MB)
	Total:                                     0.060 (MW) /      0.484 (MB)

	Nuclear Rep. energy          =      4.37618737316774
	SCF energy                   =    -75.41680814692340
	One-electron energy          =    -36.44187245110124
	Two-electron energy          =     16.84977814615888
	Reference energy             =    -75.41680814692396

*** tstop() called on l43 at Wed Jan 20 21:15:30 2021
Module time:
	user time   =       3.75 seconds =       0.06 minutes
	system time =       1.82 seconds =       0.03 minutes
	total time  =          5 seconds =       0.08 minutes
Total time:
	user time   =      15.57 seconds =       0.26 minutes
	system time =       5.70 seconds =       0.10 minutes
	total time  =         14 seconds =       0.23 minutes
            **************************
            *                        *
            *        CCENERGY        *
            *                        *
            **************************

    Nuclear Rep. energy (wfn)     =    4.376187373167741
    SCF energy          (wfn)     =  -75.416808146923401
    Reference energy    (file100) =  -75.416808146923955

    Input parameters:
    -----------------
    Wave function   =     CCSD_T
    Reference wfn   =     RHF
    Brueckner       =     No
    Memory (Mbytes) =     250000.0
    Maxiter         =     50
    R_Convergence   =     1.0e-07
    E_Convergence   =     1.0e-06
    Restart         =     Yes
    DIIS            =     Yes
    AO Basis        =     NONE
    ABCD            =     NEW
    Cache Level     =     2
    Cache Type      =     LOW
    Print Level     =     1
    Num. of threads =     48
    # Amps to Print =     10
    Print MP2 Amps? =     No
    Analyze T2 Amps =     No
    Print Pair Ener =     No
    Local CC        =     No
    SCS-MP2         =     False
    SCSN-MP2        =     False
    SCS-CCSD        =     False

MP2 correlation energy -0.3081549878443786
                Solving CC Amplitude Equations
                ------------------------------
  Iter             Energy              RMS        T1Diag      D1Diag    New D1Diag    D2Diag
  ----     ---------------------    ---------   ----------  ----------  ----------   --------
     0        -0.308154987844379    0.000e+00    0.000000    0.000000    0.000000    0.137525
     1        -0.289453737691652    7.206e-02    0.019876    0.037270    0.037270    0.128088
     2        -0.297402348282737    3.857e-02    0.015954    0.029727    0.029727    0.134254
     3        -0.300294909317054    1.128e-02    0.019165    0.036209    0.036209    0.137657
     4        -0.300223360580231    4.052e-03    0.020855    0.039559    0.039559    0.138555
     5        -0.300138999311448    1.602e-03    0.021235    0.040369    0.040369    0.138523
     6        -0.300151450092442    8.420e-04    0.021523    0.040991    0.040991    0.138476
     7        -0.300148643510190    2.544e-04    0.021583    0.041126    0.041126    0.138423
     8        -0.300139399447076    1.045e-04    0.021595    0.041158    0.041158    0.138400
     9        -0.300138818854595    2.858e-05    0.021599    0.041169    0.041169    0.138400
    10        -0.300139842965980    1.048e-05    0.021599    0.041170    0.041170    0.138401
    11        -0.300139159844362    4.972e-06    0.021600    0.041170    0.041170    0.138401
    12        -0.300139286512228    1.998e-06    0.021599    0.041169    0.041169    0.138401
    13        -0.300139290815127    6.939e-07    0.021599    0.041169    0.041169    0.138401
    14        -0.300139263577246    2.202e-07    0.021599    0.041169    0.041169    0.138401
    15        -0.300139266745828    8.264e-08    0.021599    0.041169    0.041169    0.138401

    Iterations converged.


    Largest TIA Amplitudes:
              3  92        -0.0323197936
              2  63        -0.0323197932
              2  64        -0.0229499738
              3  93        -0.0229499724
              1   3        -0.0066730262
              3 103         0.0066589720
              2  74         0.0066589718
              1   1        -0.0066209395
              2  65        -0.0057724733
              3  94        -0.0057724729

    Largest TIjAb Amplitudes:
      1   1  10  10        -0.0282149334
      3   3  96  96        -0.0269385709
      2   2  67  67        -0.0269385703
      1   1   4   4        -0.0241013224
      3   3  92  92        -0.0232306483
      2   2  63  63        -0.0232306440
      1   1   4  10        -0.0229850250
      1   1  10   4        -0.0229850250
      3   3  92  96        -0.0207247989
      3   3  96  92        -0.0207247989

    SCF energy       (wfn)                    =  -75.416808146923401
    Reference energy (file100)                =  -75.416808146923955

    Opposite-spin MP2 correlation energy      =   -0.231509275790164
    Same-spin MP2 correlation energy          =   -0.076645712054215
    Singles MP2 correlation energy            =   -0.000000000000000
    MP2 correlation energy                    =   -0.308154987844379
      * MP2 total energy                      =  -75.724963134768331

    Opposite-spin CCSD correlation energy     =   -0.235857520251492
    Same-spin CCSD correlation energy         =   -0.064281746494337
    Singles CCSD correlation energy           =    0.000000000000000
    CCSD correlation energy                   =   -0.300139266745828
      * CCSD total energy                     =  -75.716947413669786

            **************************
            *                        *
            *        CCTRIPLES       *
            *                        *
            **************************


    Wave function   =    CCSD_T
    Reference wfn   =      RHF

    Nuclear Rep. energy (wfn)                =    4.376187373167741
    SCF energy          (wfn)                =  -75.416808146923401
    Reference energy    (file100)            =  -75.416808146923955
    CCSD energy         (file100)            =   -0.300139266745828
    Total CCSD energy   (file100)            =  -75.716947413669786

    Number of ijk index combinations:               20
    Memory available in words        :     31250000000
    ~Words needed per explicit thread:          415292
    Number of threads for explicit ijk threading:   48

    (T) energy                                =   -0.013384529013049
      * CCSD(T) total energy                  =  -75.730331942682838


    Psi4 stopped on: Wednesday, 20 January 2021 09:15PM
    Psi4 wall time for execution: 0:00:19.54

*** Psi4 exiting successfully. Buy a developer a beer!
