
    -----------------------------------------------------------------------
          Psi4: An Open-Source Ab Initio Electronic Structure Package
                               Psi4 1.4a3.dev88 

                         Git: Rev {master} 262e345 


    D. G. A. Smith, L. A. Burns, A. C. Simmonett, R. M. Parrish,
    M. C. Schieber, R. Galvelis, P. Kraus, H. Kruse, R. Di Remigio,
    A. Alenaizan, A. M. James, S. Lehtola, J. P. Misiewicz, M. Scheurer,
    R. A. Shaw, J. B. Schriber, Y. Xie, Z. L. Glick, D. A. Sirianni,
    J. S. O'Brien, J. M. Waldrop, A. Kumar, E. G. Hohenstein,
    B. P. Pritchard, B. R. Brooks, H. F. Schaefer III, A. Yu. Sokolov,
    K. Patkowski, A. E. DePrince III, U. Bozkaya, R. A. King,
    F. A. Evangelista, J. M. Turney, T. D. Crawford, C. D. Sherrill,
    J. Chem. Phys. 152(18) 184108 (2020). https://doi.org/10.1063/5.0006002

                            Additional Code Authors
    E. T. Seidl, C. L. Janssen, E. F. Valeev, M. L. Leininger,
    J. F. Gonthier, R. M. Richard, H. R. McAlexander, M. Saitow, X. Wang,
    P. Verma, and M. H. Lechner

             Previous Authors, Complete List of Code Contributors,
                       and Citations for Specific Modules
    https://github.com/psi4/psi4/blob/master/codemeta.json
    https://github.com/psi4/psi4/graphs/contributors
    http://psicode.org/psi4manual/master/introduction.html#citing-psifour

    -----------------------------------------------------------------------


    Psi4 started on: Tuesday, 26 January 2021 06:23PM

    Process ID: 408071
    Host:       n412-040.vsc4.prov
    PSIDATADIR: /home/fs71337/gallo4/psi4/eri-6/psi4/build/stage/share/psi4
    Memory:     500.0 MiB
    Threads:    48
    
  ==> Input File <==

--------------------------------------------------------------------------
# Any line starting with the # character is a comment line
memory 250000 mb
molecule molecule{
-1 1
O          0.0000000000        0.0000000000        0.0573315255
H          0.0000000000        0.0000000000       -0.9100442572
}

set {
  reference rhf
  basis aug-cc-pV(t+d)Z
  scf_type OUT_OF_CORE
  freeze_core true
}

energy('ccsd(t)')
--------------------------------------------------------------------------

  Memory set to 232.831 GiB by Python driver.

Scratch directory: /binfl/lv71337/airmler/temp/

*** tstart() called on n412-040.vsc4.prov
*** at Tue Jan 26 18:23:34 2021

   => Loading Basis Set <=

    Name: AUG-CC-PV(T+D)Z
    Role: ORBITAL
    Keyword: BASIS
    atoms 1 entry O          line   359 file /home/fs71337/gallo4/psi4/eri-6/psi4/build/stage/share/psi4/basis/aug-cc-pv_tpd_z.gbs 
    atoms 2 entry H          line    68 file /home/fs71337/gallo4/psi4/eri-6/psi4/build/stage/share/psi4/basis/aug-cc-pv_tpd_z.gbs 


         ---------------------------------------------------------
                                   SCF
               by Justin Turney, Rob Parrish, Andy Simmonett
                          and Daniel G. A. Smith
                              RHF Reference
                       48 Threads, 238418 MiB Core
         ---------------------------------------------------------

  ==> Geometry <==

    Molecular point group: c2v
    Full point group: C_inf_v

    Geometry (in Angstrom), charge = -1, multiplicity = 1:

       Center              X                  Y                   Z               Mass       
    ------------   -----------------  -----------------  -----------------  -----------------
         O            0.000000000000     0.000000000000     0.057340496258    15.994914619570
         H            0.000000000000     0.000000000000    -0.910035286442     1.007825032230

  Running in c2v symmetry.

  Rotational constants: A = ************  B =     19.00019  C =     19.00019 [cm^-1]
  Rotational constants: A = ************  B = 569611.32434  C = 569611.32434 [MHz]
  Nuclear repulsion =    4.376187373167741

  Charge       = -1
  Multiplicity = 1
  Electrons    = 10
  Nalpha       = 5
  Nbeta        = 5

  ==> Algorithm <==

  SCF Algorithm Type is OUT_OF_CORE.
  DIIS enabled.
  MOM disabled.
  Fractional occupation disabled.
  Guess Type is SAD.
  Energy threshold   = 1.00e-08
  Density threshold  = 1.00e-08
  Integral threshold = 1.00e-12

  ==> Primary Basis <==

  Basis Set: AUG-CC-PV(T+D)Z
    Blend: AUG-CC-PV(T+D)Z
    Number of shells: 23
    Number of basis function: 69
    Number of Cartesian functions: 80
    Spherical Harmonics?: true
    Max angular momentum: 3

  ==> Integral Setup <==

  ==> DiskJK: Disk-Based J/K Matrices <==

    J tasked:                  Yes
    K tasked:                  Yes
    wK tasked:                  No
    Memory [MiB]:           178813
    Schwarz Cutoff:          1E-12

  Minimum eigenvalue in the overlap matrix is 5.0147860991E-04.
  Reciprocal condition number of the overlap matrix is 1.0300922273E-04.
    Using symmetric orthogonalization.

  ==> Pre-Iterations <==

  SCF Guess: Superposition of Atomic Densities via on-the-fly atomic UHF (no occupation information).


 WARNING: Atomic UHF is not converging! Try casting from a smaller basis or call Rob at CCMST.

 WARNING: Atomic UHF is not converging! Try casting from a smaller basis or call Rob at CCMST.
   -------------------------
    Irrep   Nso     Nmo    
   -------------------------
     A1        30      30 
     A2         7       7 
     B1        16      16 
     B2        16      16 
   -------------------------
    Total      69      69
   -------------------------

  ==> Iterations <==

                        Total Energy        Delta E     RMS |[F,P]|

   @RHF iter SAD:   -69.45962964751750   -6.94596e+01   0.00000e+00 
    Occupation by irrep:
             A1    A2    B1    B2 
    DOCC [     4,    0,    1,    0 ]

   @RHF iter   1:   -75.07066933130385   -5.61104e+00   2.29209e-02 DIIS
    Occupation by irrep:
             A1    A2    B1    B2 
    DOCC [     3,    0,    1,    1 ]

   @RHF iter   2:   -73.74492092532522    1.32575e+00   3.94021e-02 DIIS
   @RHF iter   3:   -75.36425171106308   -1.61933e+00   8.04931e-03 DIIS
   @RHF iter   4:   -75.40965693194306   -4.54052e-02   1.61432e-03 DIIS
   @RHF iter   5:   -75.41195599526530   -2.29906e-03   2.28645e-04 DIIS
   @RHF iter   6:   -75.41202951207175   -7.35168e-05   3.04652e-05 DIIS
   @RHF iter   7:   -75.41203179447270   -2.28240e-06   6.89115e-06 DIIS
   @RHF iter   8:   -75.41203192834857   -1.33876e-07   2.60557e-06 DIIS
   @RHF iter   9:   -75.41203194332982   -1.49813e-08   7.74138e-07 DIIS
   @RHF iter  10:   -75.41203194391943   -5.89608e-10   1.21802e-07 DIIS
   @RHF iter  11:   -75.41203194393374   -1.43103e-11   1.76056e-08 DIIS
   @RHF iter  12:   -75.41203194393407   -3.26850e-13   1.95627e-09 DIIS
  Energy and wave function converged.


  ==> Post-Iterations <==

    Orbital Energies [Eh]
    ---------------------

    Doubly Occupied:                                                      

       1A1   -20.187473     2A1    -0.901908     3A1    -0.250792  
       1B1    -0.108955     1B2    -0.108955  

    Virtual:                                                              

       4A1     0.178680     5A1     0.329219     2B1     0.370223  
       2B2     0.370223     6A1     0.398966     7A1     0.492027  
       3B1     0.495209     3B2     0.495209     8A1     0.690125  
       9A1     0.938589     1A2     0.950975    10A1     0.950975  
       4B1     1.004247     4B2     1.004247    11A1     1.167195  
       5B1     1.177883     5B2     1.177883     2A2     1.222826  
      12A1     1.222826    13A1     1.229269    14A1     1.298959  
       6B1     1.337676     6B2     1.337676     7B1     1.837733  
       7B2     1.837733    15A1     2.049746    16A1     2.398343  
       8B1     2.425267     8B2     2.425267     3A2     2.527590  
      17A1     2.527590     9B1     2.650027     9B2     2.650027  
       4A2     2.692777    18A1     2.692777    19A1     2.807952  
      20A1     2.853761    10B2     3.125125    10B1     3.125125  
      21A1     3.954305    22A1     4.406263     5A2     4.406263  
      11B1     4.485240    11B2     4.485240    12B1     4.677346  
      12B2     4.677346    23A1     5.029715    24A1     5.510392  
      13B2     5.687541    13B1     5.687541    25A1     6.548957  
      14B1     6.895376    14B2     6.895376    26A1     7.037719  
       6A2     7.037719    27A1     7.448733     7A2     7.448733  
      15B2     7.582198    15B1     7.582198    16B2     7.649435  
      16B1     7.649435    28A1     7.786647    29A1     8.122723  
      30A1    13.368895  

    Final Occupation by Irrep:
             A1    A2    B1    B2 
    DOCC [     3,    0,    1,    1 ]

  @RHF Final Energy:   -75.41203194393407

   => Energetics <=

    Nuclear Repulsion Energy =              4.3761873731677410
    One-Electron Energy =                -116.4602717832101746
    Two-Electron Energy =                  36.6720524661083616
    Total Energy =                        -75.4120319439340676

Computation Completed


Properties will be evaluated at   0.000000,   0.000000,   0.000000 [a0]

Properties computed using the SCF density matrix

  Nuclear Dipole Moment: [e a0]
     X:     0.0000      Y:     0.0000      Z:    -0.8529

  Electronic Dipole Moment: [e a0]
     X:     0.0000      Y:     0.0000      Z:     0.3593

  Dipole Moment: [e a0]
     X:     0.0000      Y:     0.0000      Z:    -0.4936     Total:     0.4936

  Dipole Moment: [D]
     X:     0.0000      Y:     0.0000      Z:    -1.2546     Total:     1.2546


*** tstop() called on n412-040.vsc4.prov at Tue Jan 26 18:23:35 2021
Module time:
	user time   =      25.23 seconds =       0.42 minutes
	system time =       1.01 seconds =       0.02 minutes
	total time  =          1 seconds =       0.02 minutes
Total time:
	user time   =      25.23 seconds =       0.42 minutes
	system time =       1.01 seconds =       0.02 minutes
	total time  =          1 seconds =       0.02 minutes

*** tstart() called on n412-040.vsc4.prov
*** at Tue Jan 26 18:23:35 2021


	Wfn Parameters:
	--------------------
	Wavefunction         = CCSD_T
	Number of irreps     = 4
	Number of MOs        = 69
	Number of active MOs = 68
	AO-Basis             = NONE
	Semicanonical        = false
	Reference            = RHF
	Print Level          = 1

	IRREP	# MOs	# FZDC	# DOCC	# SOCC	# VIRT	# FZVR
	-----	-----	------	------	------	------	------
	 A1	   30	    1	    2	    0	    27	    0
	 A2	   7	    0	    0	    0	    7	    0
	 B1	   16	    0	    1	    0	    15	    0
	 B2	   16	    0	    1	    0	    15	    0
	Transforming integrals...
	IWL integrals will be deleted.
	(OO|OO)...
	Presorting SO-basis two-electron integrals.
	Sorting File: SO Ints (nn|nn) nbuckets = 1
	Constructing frozen core operators
	Starting first half-transformation.
	Sorting half-transformed integrals.
	First half integral transformation complete.
	Starting second half-transformation.
	Two-electron integral transformation complete.
	(OO|OV)...
	Starting second half-transformation.
	Two-electron integral transformation complete.
	(OO|VV)...
	Starting second half-transformation.
	Two-electron integral transformation complete.
	(OV|OO)...
	Starting first half-transformation.
	Sorting half-transformed integrals.
	First half integral transformation complete.
	Starting second half-transformation.
	Two-electron integral transformation complete.
	(OV|OV)...
	Starting second half-transformation.
	Two-electron integral transformation complete.
	(OV|VV)...
	Starting second half-transformation.
	Two-electron integral transformation complete.
	(VV|OO)...
	Starting first half-transformation.
	Sorting half-transformed integrals.
	First half integral transformation complete.
	Starting second half-transformation.
	Two-electron integral transformation complete.
	(VV|OV)...
	Starting second half-transformation.
	Two-electron integral transformation complete.
	(VV|VV)...
	Starting second half-transformation.
	Two-electron integral transformation complete.
	Frozen core energy     =    -60.19968536167952

	Size of irrep 0 of <ab|cd> integrals:      1.508 (MW) /     12.064 (MB)
	Size of irrep 1 of <ab|cd> integrals:      0.686 (MW) /      5.485 (MB)
	Size of irrep 2 of <ab|cd> integrals:      1.040 (MW) /      8.323 (MB)
	Size of irrep 3 of <ab|cd> integrals:      1.040 (MW) /      8.323 (MB)
	Total:                                     4.274 (MW) /     34.195 (MB)

	Size of irrep 0 of <ia|bc> integrals:      0.103 (MW) /      0.825 (MB)
	Size of irrep 1 of <ia|bc> integrals:      0.036 (MW) /      0.291 (MB)
	Size of irrep 2 of <ia|bc> integrals:      0.065 (MW) /      0.522 (MB)
	Size of irrep 3 of <ia|bc> integrals:      0.065 (MW) /      0.522 (MB)
	Total:                                     0.270 (MW) /      2.161 (MB)

	Size of irrep 0 of tijab amplitudes:       0.007 (MW) /      0.059 (MB)
	Size of irrep 1 of tijab amplitudes:       0.002 (MW) /      0.013 (MB)
	Size of irrep 2 of tijab amplitudes:       0.004 (MW) /      0.033 (MB)
	Size of irrep 3 of tijab amplitudes:       0.004 (MW) /      0.033 (MB)
	Total:                                     0.017 (MW) /      0.137 (MB)

	Nuclear Rep. energy          =      4.37618737316774
	SCF energy                   =    -75.41203194393407
	One-electron energy          =    -36.43584765338128
	Two-electron energy          =     16.84731369795929
	Reference energy             =    -75.41203194393377

*** tstop() called on n412-040.vsc4.prov at Tue Jan 26 18:23:38 2021
Module time:
	user time   =       0.34 seconds =       0.01 minutes
	system time =       0.29 seconds =       0.00 minutes
	total time  =          3 seconds =       0.05 minutes
Total time:
	user time   =      25.57 seconds =       0.43 minutes
	system time =       1.30 seconds =       0.02 minutes
	total time  =          4 seconds =       0.07 minutes
            **************************
            *                        *
            *        CCENERGY        *
            *                        *
            **************************

    Nuclear Rep. energy (wfn)     =    4.376187373167741
    SCF energy          (wfn)     =  -75.412031943934068
    Reference energy    (file100) =  -75.412031943933769

    Input parameters:
    -----------------
    Wave function   =     CCSD_T
    Reference wfn   =     RHF
    Brueckner       =     No
    Memory (Mbytes) =     250000.0
    Maxiter         =     50
    R_Convergence   =     1.0e-07
    E_Convergence   =     1.0e-06
    Restart         =     Yes
    DIIS            =     Yes
    AO Basis        =     NONE
    ABCD            =     NEW
    Cache Level     =     2
    Cache Type      =     LOW
    Print Level     =     1
    Num. of threads =     48
    # Amps to Print =     10
    Print MP2 Amps? =     No
    Analyze T2 Amps =     No
    Print Pair Ener =     No
    Local CC        =     No
    SCS-MP2         =     False
    SCSN-MP2        =     False
    SCS-CCSD        =     False

MP2 correlation energy -0.2902561643917478
                Solving CC Amplitude Equations
                ------------------------------
  Iter             Energy              RMS        T1Diag      D1Diag    New D1Diag    D2Diag
  ----     ---------------------    ---------   ----------  ----------  ----------   --------
     0        -0.290256164391748    0.000e+00    0.000000    0.000000    0.000000    0.136013
     1        -0.274519768638778    7.153e-02    0.020219    0.037776    0.037776    0.128206
     2        -0.282407077439176    3.567e-02    0.016649    0.031057    0.031057    0.134507
     3        -0.285275227097553    1.096e-02    0.020174    0.038108    0.038108    0.138147
     4        -0.285043931422956    3.365e-03    0.021437    0.040631    0.040631    0.138746
     5        -0.284979419756808    1.344e-03    0.021748    0.041309    0.041309    0.138717
     6        -0.284999583650298    6.715e-04    0.021951    0.041759    0.041759    0.138684
     7        -0.284996013078146    2.070e-04    0.021987    0.041848    0.041848    0.138635
     8        -0.284988811403062    8.269e-05    0.021994    0.041869    0.041869    0.138606
     9        -0.284989414247696    2.501e-05    0.021998    0.041880    0.041880    0.138604
    10        -0.284989850064529    7.931e-06    0.021998    0.041879    0.041879    0.138604
    11        -0.284989402363591    4.017e-06    0.021997    0.041879    0.041879    0.138603
    12        -0.284989506324230    1.454e-06    0.021997    0.041878    0.041878    0.138604
    13        -0.284989465509865    5.523e-07    0.021997    0.041878    0.041878    0.138604
    14        -0.284989457256032    1.607e-07    0.021997    0.041878    0.041878    0.138604
    15        -0.284989458026049    5.259e-08    0.021997    0.041878    0.041878    0.138604

    Iterations converged.


    Largest TIA Amplitudes:
              2  34        -0.0351199259
              3  49        -0.0351199192
              2  35        -0.0211852511
              3  50        -0.0211852478
              1   3        -0.0077339574
              1   1         0.0076586427
              1  10         0.0064931399
              3  58         0.0060519684
              2  43         0.0060519675
              0   3         0.0055679033

    Largest TIjAb Amplitudes:
      3   3  49  49        -0.0310368307
      2   2  34  34        -0.0310368127
      3   3  53  53        -0.0267552729
      2   2  38  38        -0.0267552718
      1   1   5   5        -0.0256411601
      1   1   4   4        -0.0226162596
      2   3  34  49        -0.0225255958
      3   2  49  34        -0.0225255958
      3   3  49  53        -0.0214331125
      3   3  53  49        -0.0214331125

    SCF energy       (wfn)                    =  -75.412031943934068
    Reference energy (file100)                =  -75.412031943933769

    Opposite-spin MP2 correlation energy      =   -0.215788665120127
    Same-spin MP2 correlation energy          =   -0.074467499271621
    Singles MP2 correlation energy            =   -0.000000000000000
    MP2 correlation energy                    =   -0.290256164391748
      * MP2 total energy                      =  -75.702288108325519

    Opposite-spin CCSD correlation energy     =   -0.222586256904326
    Same-spin CCSD correlation energy         =   -0.062403201121723
    Singles CCSD correlation energy           =    0.000000000000000
    CCSD correlation energy                   =   -0.284989458026049
      * CCSD total energy                     =  -75.697021401959816

            **************************
            *                        *
            *        CCTRIPLES       *
            *                        *
            **************************


    Wave function   =    CCSD_T
    Reference wfn   =      RHF

    Nuclear Rep. energy (wfn)                =    4.376187373167741
    SCF energy          (wfn)                =  -75.412031943934068
    Reference energy    (file100)            =  -75.412031943933769
    CCSD energy         (file100)            =   -0.284989458026049
    Total CCSD energy   (file100)            =  -75.697021401959816

    Number of ijk index combinations:               20
    Memory available in words        :     31250000000
    ~Words needed per explicit thread:           78732
    Number of threads for explicit ijk threading:   48

    (T) energy                                =   -0.012403277880050
      * CCSD(T) total energy                  =  -75.709424679839870


    Psi4 stopped on: Tuesday, 26 January 2021 06:23PM
    Psi4 wall time for execution: 0:00:07.79

*** Psi4 exiting successfully. Buy a developer a beer!
