
    -----------------------------------------------------------------------
          Psi4: An Open-Source Ab Initio Electronic Structure Package
                               Psi4 1.4a3.dev88 

                         Git: Rev {master} 262e345 


    D. G. A. Smith, L. A. Burns, A. C. Simmonett, R. M. Parrish,
    M. C. Schieber, R. Galvelis, P. Kraus, H. Kruse, R. Di Remigio,
    A. Alenaizan, A. M. James, S. Lehtola, J. P. Misiewicz, M. Scheurer,
    R. A. Shaw, J. B. Schriber, Y. Xie, Z. L. Glick, D. A. Sirianni,
    J. S. O'Brien, J. M. Waldrop, A. Kumar, E. G. Hohenstein,
    B. P. Pritchard, B. R. Brooks, H. F. Schaefer III, A. Yu. Sokolov,
    K. Patkowski, A. E. DePrince III, U. Bozkaya, R. A. King,
    F. A. Evangelista, J. M. Turney, T. D. Crawford, C. D. Sherrill,
    J. Chem. Phys. 152(18) 184108 (2020). https://doi.org/10.1063/5.0006002

                            Additional Code Authors
    E. T. Seidl, C. L. Janssen, E. F. Valeev, M. L. Leininger,
    J. F. Gonthier, R. M. Richard, H. R. McAlexander, M. Saitow, X. Wang,
    P. Verma, and M. H. Lechner

             Previous Authors, Complete List of Code Contributors,
                       and Citations for Specific Modules
    https://github.com/psi4/psi4/blob/master/codemeta.json
    https://github.com/psi4/psi4/graphs/contributors
    http://psicode.org/psi4manual/master/introduction.html#citing-psifour

    -----------------------------------------------------------------------


    Psi4 started on: Saturday, 23 January 2021 11:00PM

    Process ID: 61888
    Host:       n412-047.vsc4.prov
    PSIDATADIR: /home/fs71337/gallo4/psi4/eri-6/psi4/build/stage/share/psi4
    Memory:     500.0 MiB
    Threads:    48
    
  ==> Input File <==

--------------------------------------------------------------------------
# Any line starting with the # character is a comment line
memory 250000 mb
molecule molecule{
-1 1
O          0.0000000000        0.0000000000        0.0573315255
H          0.0000000000        0.0000000000       -0.9100442572
}

set {
  reference rhf
  basis aug-cc-pV(6+d)Z
  scf_type OUT_OF_CORE
  freeze_core true
}

energy('ccsd(t)')
--------------------------------------------------------------------------

  Memory set to 232.831 GiB by Python driver.

Scratch directory: /binfl/lv71337/airmler/temp/

*** tstart() called on n412-047.vsc4.prov
*** at Sat Jan 23 23:00:40 2021

   => Loading Basis Set <=

    Name: AUG-CC-PV(6+D)Z
    Role: ORBITAL
    Keyword: BASIS
    atoms 1 entry O          line   459 file /home/fs71337/gallo4/psi4/eri-6/psi4/build/stage/share/psi4/basis/aug-cc-pv_6pd_z.gbs 
    atoms 2 entry H          line    51 file /home/fs71337/gallo4/psi4/eri-6/psi4/build/stage/share/psi4/basis/aug-cc-pv_6pd_z.gbs 


         ---------------------------------------------------------
                                   SCF
               by Justin Turney, Rob Parrish, Andy Simmonett
                          and Daniel G. A. Smith
                              RHF Reference
                       48 Threads, 238418 MiB Core
         ---------------------------------------------------------

  ==> Geometry <==

    Molecular point group: c2v
    Full point group: C_inf_v

    Geometry (in Angstrom), charge = -1, multiplicity = 1:

       Center              X                  Y                   Z               Mass       
    ------------   -----------------  -----------------  -----------------  -----------------
         O            0.000000000000     0.000000000000     0.057340496258    15.994914619570
         H            0.000000000000     0.000000000000    -0.910035286442     1.007825032230

  Running in c2v symmetry.

  Rotational constants: A = ************  B =     19.00019  C =     19.00019 [cm^-1]
  Rotational constants: A = ************  B = 569611.32434  C = 569611.32434 [MHz]
  Nuclear repulsion =    4.376187373167741

  Charge       = -1
  Multiplicity = 1
  Electrons    = 10
  Nalpha       = 5
  Nbeta        = 5

  ==> Algorithm <==

  SCF Algorithm Type is OUT_OF_CORE.
  DIIS enabled.
  MOM disabled.
  Fractional occupation disabled.
  Guess Type is SAD.
  Energy threshold   = 1.00e-08
  Density threshold  = 1.00e-08
  Integral threshold = 1.00e-12

  ==> Primary Basis <==

  Basis Set: AUG-CC-PV(6+D)Z
    Blend: AUG-CC-PV(6+D)Z
    Number of shells: 62
    Number of basis function: 316
    Number of Cartesian functions: 476
    Spherical Harmonics?: true
    Max angular momentum: 6

  ==> Integral Setup <==

  ==> DiskJK: Disk-Based J/K Matrices <==

    J tasked:                  Yes
    K tasked:                  Yes
    wK tasked:                  No
    Memory [MiB]:           178813
    Schwarz Cutoff:          1E-12

  Minimum eigenvalue in the overlap matrix is 3.4857931127E-06.
  Reciprocal condition number of the overlap matrix is 4.8126273526E-07.
    Using symmetric orthogonalization.

  ==> Pre-Iterations <==

  SCF Guess: Superposition of Atomic Densities via on-the-fly atomic UHF (no occupation information).


 WARNING: Atomic UHF is not converging! Try casting from a smaller basis or call Rob at CCMST.

 WARNING: Atomic UHF is not converging! Try casting from a smaller basis or call Rob at CCMST.
   -------------------------
    Irrep   Nso     Nmo    
   -------------------------
     A1       112     112 
     A2        50      50 
     B1        77      77 
     B2        77      77 
   -------------------------
    Total     316     316
   -------------------------

  ==> Iterations <==

                        Total Energy        Delta E     RMS |[F,P]|

   @RHF iter SAD:   -31.89704351100933   -3.18970e+01   0.00000e+00 
    Occupation by irrep:
             A1    A2    B1    B2 
    DOCC [     4,    0,    1,    0 ]

   @RHF iter   1:   -71.12536881066504   -3.92283e+01   2.45617e-02 DIIS
    Occupation by irrep:
             A1    A2    B1    B2 
    DOCC [     3,    0,    1,    1 ]

   @RHF iter   2:   -65.68132129521754    5.44405e+00   1.34166e-02 DIIS
   @RHF iter   3:   -73.24243640848505   -7.56112e+00   1.54703e-02 DIIS
   @RHF iter   4:   -74.79794298437679   -1.55551e+00   7.44015e-03 DIIS
   @RHF iter   5:   -75.37125625977831   -5.73313e-01   1.66935e-03 DIIS
   @RHF iter   6:   -75.41659912093992   -4.53429e-02   3.55688e-04 DIIS
   @RHF iter   7:   -75.41781341105802   -1.21429e-03   1.71909e-04 DIIS
   @RHF iter   8:   -75.41809745609025   -2.84045e-04   5.62134e-05 DIIS
   @RHF iter   9:   -75.41813376521102   -3.63091e-05   4.19314e-06 DIIS
   @RHF iter  10:   -75.41813440352165   -6.38311e-07   8.84522e-07 DIIS
   @RHF iter  11:   -75.41813443702316   -3.35015e-08   2.22022e-07 DIIS
   @RHF iter  12:   -75.41813443846753   -1.44438e-09   5.95372e-08 DIIS
   @RHF iter  13:   -75.41813443857461   -1.07079e-10   1.32412e-08 DIIS
   @RHF iter  14:   -75.41813443858884   -1.42251e-11   3.15330e-09 DIIS
  Energy and wave function converged.


  ==> Post-Iterations <==

    Orbital Energies [Eh]
    ---------------------

    Doubly Occupied:                                                      

       1A1   -20.185213     2A1    -0.901807     3A1    -0.251627  
       1B2    -0.109591     1B1    -0.109591  

    Virtual:                                                              

       4A1     0.148813     5A1     0.201014     2B2     0.229199  
       2B1     0.229199     6A1     0.294575     7A1     0.326540  
       3B2     0.327518     3B1     0.327518     8A1     0.418529  
       9A1     0.563892     1A2     0.579956    10A1     0.579956  
       4B2     0.613880     4B1     0.613880     5B2     0.618437  
       5B1     0.618437    11A1     0.619388    12A1     0.624263  
      13A1     0.624855     2A2     0.624855     6B2     0.648343  
       6B1     0.648343    14A1     0.808037    15A1     0.976606  
       7B2     1.064929     7B1     1.064929     8B2     1.095497  
       8B1     1.095497    16A1     1.122955    17A1     1.149534  
       9B2     1.176556     9B1     1.176556    18A1     1.201582  
       3A2     1.201582    19A1     1.260086    10B2     1.288727  
      10B1     1.288727    20A1     1.303799     4A2     1.303799  
      11B2     1.334559    11B1     1.334559    21A1     1.393089  
       5A2     1.393089    12B2     1.466994    12B1     1.466994  
      22A1     1.491868    23A1     1.641287    13B2     1.748153  
      13B1     1.748153    24A1     1.956713    25A1     2.144901  
      26A1     2.166316     6A2     2.166316    14B2     2.233117  
      14B1     2.233117    27A1     2.249992    28A1     2.308777  
       7A2     2.308777    15B2     2.458396    15B1     2.458396  
      16B2     2.534657    16B1     2.534657    17B2     2.581263  
      17B1     2.581263    29A1     2.581365    30A1     2.598517  
       8A2     2.598517    31A1     2.615716     9A2     2.615716  
      18B2     2.649745    18B1     2.649745    32A1     2.657144  
      10A2     2.657144    19B2     2.718221    19B1     2.718221  
      33A1     2.741658    20B2     2.857056    20B1     2.857056  
      34A1     2.966534    11A2     2.966534    35A1     3.010019  
      21B2     3.142995    21B1     3.142995    36A1     3.243172  
      37A1     3.256147    12A2     3.256147    22B2     3.302222  
      22B1     3.302222    38A1     3.425315    39A1     3.786265  
      23B2     4.066336    23B1     4.066336    24B2     4.211597  
      24B1     4.211597    40A1     4.408958    41A1     4.427677  
      13A2     4.427677    25B1     4.533146    25B2     4.533146  
      42A1     4.822676    43A1     4.856939    14A2     4.856939  
      26B2     4.903568    26B1     4.903568    27B2     5.056415  
      27B1     5.056415    44A1     5.101909    15A2     5.101909  
      28B1     5.109102    28B2     5.109102    45A1     5.157691  
      46A1     5.200184    16A2     5.200184    29B1     5.255293  
      29B2     5.255293    47A1     5.357609    30B1     5.406772  
      30B2     5.406772    31B2     5.534299    31B1     5.534299  
      48A1     5.539394    17A2     5.539394    32B1     5.656145  
      32B2     5.656145    49A1     5.658174    18A2     5.658174  
      50A1     5.665246    33B2     5.689666    33B1     5.689666  
      51A1     5.939019    19A2     5.939019    34B1     6.000331  
      34B2     6.000331    52A1     6.140907    35B2     6.155601  
      35B1     6.155601    53A1     6.197849    20A2     6.197849  
      54A1     6.390113    21A2     6.390113    55A1     6.683594  
      36B1     6.811891    36B2     6.811891    56A1     6.954700  
      57A1     7.452157    37B1     7.572999    37B2     7.572999  
      58A1     7.943470    22A2     7.943470    59A1     7.949870  
      23A2     7.949870    38B1     8.328946    38B2     8.328946  
      60A1     8.358324    39B1     8.778538    39B2     8.778538  
      40B1     9.248447    40B2     9.248447    61A1     9.441359  
      24A2     9.441359    62A1     9.629826    25A2     9.797515  
      63A1     9.797515    64A1     9.827091    41B1     9.907614  
      41B2     9.907614    65A1     9.990660    26A2     9.990660  
      42B2    10.001478    42B1    10.001478    66A1    10.207162  
      43B2    10.422750    43B1    10.422750    27A2    10.816085  
      67A1    10.816085    44B1    11.112981    44B2    11.112981  
      68A1    11.130300    28A2    11.130300    69A1    11.205127  
      45B1    11.274346    45B2    11.274346    46B1    11.285828  
      46B2    11.285828    47B1    11.332071    47B2    11.332071  
      70A1    11.516597    29A2    11.516597    71A1    11.523163  
      72A1    11.582549    30A2    11.582549    48B1    11.595901  
      48B2    11.595901    73A1    11.842633    49B1    12.250087  
      49B2    12.250087    74A1    12.701205    31A2    12.701205  
      50B1    13.090958    50B2    13.090958    51B1    13.169490  
      51B2    13.169490    75A1    13.492221    32A2    13.492221  
      52B1    13.764674    52B2    13.764674    76A1    13.907714  
      77A1    14.069820    33A2    14.069820    53B1    14.273101  
      53B2    14.273101    78A1    14.578251    79A1    14.738007  
      54B1    14.933995    54B2    14.933995    80A1    15.164238  
      34A2    15.164238    81A1    15.809085    35A2    15.809085  
      55B1    16.399811    55B2    16.399811    82A1    16.617726  
      56B2    17.870735    56B1    17.870735    57B1    18.177273  
      57B2    18.177273    83A1    18.511921    36A2    18.511921  
      84A1    19.329166    58B1    19.980350    58B2    19.980350  
      85A1    20.454417    37A2    20.705971    86A1    20.705971  
      87A1    20.819949    38A2    20.819949    59B1    21.556574  
      59B2    21.556574    60B1    21.586380    60B2    21.586380  
      61B1    21.885816    61B2    21.885816    88A1    21.924525  
      39A2    21.924525    89A1    22.035217    90A1    22.800775  
      40A2    23.184472    91A1    23.184472    62B2    23.275337  
      62B1    23.275337    92A1    23.394669    41A2    23.394669  
      63B1    23.627869    63B2    23.627869    42A2    23.657792  
      93A1    23.657792    64B1    24.401331    64B2    24.401331  
      94A1    24.424758    65B1    24.595805    65B2    24.595805  
      66B2    24.746550    66B1    24.746550    95A1    24.991611  
      96A1    25.747542    43A2    25.747542    67B1    26.618038  
      67B2    26.618038    97A1    26.679004    44A2    26.679004  
      68B1    27.279919    68B2    27.279919    98A1    27.303822  
      45A2    27.417528    99A1    27.417528    69B1    27.511871  
      69B2    27.511871    70B2    27.645611    70B1    27.645611  
     100A1    27.889041   101A1    28.286240    46A2    28.286240  
     102A1    28.476710    71B1    28.719867    71B2    28.719867  
      72B1    29.040785    72B2    29.040785   103A1    29.332449  
     104A1    30.256206    47A2    30.256206   105A1    31.962141  
      48A2    31.962141    73B2    32.175654    73B1    32.175654  
     106A1    33.514060    49A2    33.514060    74B1    33.599668  
      74B2    33.599669   107A1    33.677928    75B1    34.223434  
      75B2    34.223434   108A1    35.080497   109A1    35.532402  
      50A2    35.532402    76B1    36.314225    76B2    36.314225  
      77B1    39.568282    77B2    39.568282   110A1    39.709989  
     111A1    41.789311   112A1   106.218707  

    Final Occupation by Irrep:
             A1    A2    B1    B2 
    DOCC [     3,    0,    1,    1 ]

  @RHF Final Energy:   -75.41813443858884

   => Energetics <=

    Nuclear Repulsion Energy =              4.3761873731677410
    One-Electron Energy =                -116.4729850892266256
    Two-Electron Energy =                  36.6786632774700507
    Total Energy =                        -75.4181344385888366

Computation Completed


Properties will be evaluated at   0.000000,   0.000000,   0.000000 [a0]

Properties computed using the SCF density matrix

  Nuclear Dipole Moment: [e a0]
     X:     0.0000      Y:     0.0000      Z:    -0.8529

  Electronic Dipole Moment: [e a0]
     X:     0.0000      Y:     0.0000      Z:     0.3661

  Dipole Moment: [e a0]
     X:     0.0000      Y:     0.0000      Z:    -0.4868     Total:     0.4868

  Dipole Moment: [D]
     X:     0.0000      Y:     0.0000      Z:    -1.2372     Total:     1.2372


*** tstop() called on n412-047.vsc4.prov at Sat Jan 23 23:07:54 2021
Module time:
	user time   =     421.04 seconds =       7.02 minutes
	system time =      32.94 seconds =       0.55 minutes
	total time  =        434 seconds =       7.23 minutes
Total time:
	user time   =     421.04 seconds =       7.02 minutes
	system time =      32.94 seconds =       0.55 minutes
	total time  =        434 seconds =       7.23 minutes

*** tstart() called on n412-047.vsc4.prov
*** at Sat Jan 23 23:07:54 2021


	Wfn Parameters:
	--------------------
	Wavefunction         = CCSD_T
	Number of irreps     = 4
	Number of MOs        = 316
	Number of active MOs = 315
	AO-Basis             = NONE
	Semicanonical        = false
	Reference            = RHF
	Print Level          = 1

	IRREP	# MOs	# FZDC	# DOCC	# SOCC	# VIRT	# FZVR
	-----	-----	------	------	------	------	------
	 A1	   112	    1	    2	    0	    109	    0
	 A2	   50	    0	    0	    0	    50	    0
	 B1	   77	    0	    1	    0	    76	    0
	 B2	   77	    0	    1	    0	    76	    0
	Transforming integrals...
	IWL integrals will be deleted.
	(OO|OO)...
	Presorting SO-basis two-electron integrals.
	Sorting File: SO Ints (nn|nn) nbuckets = 1
	Constructing frozen core operators
	Starting first half-transformation.
	Sorting half-transformed integrals.
	First half integral transformation complete.
	Starting second half-transformation.
	Two-electron integral transformation complete.
	(OO|OV)...
	Starting second half-transformation.
	Two-electron integral transformation complete.
	(OO|VV)...
	Starting second half-transformation.
	Two-electron integral transformation complete.
	(OV|OO)...
	Starting first half-transformation.
	Sorting half-transformed integrals.
	First half integral transformation complete.
	Starting second half-transformation.
	Two-electron integral transformation complete.
	(OV|OV)...
	Starting second half-transformation.
	Two-electron integral transformation complete.
	(OV|VV)...
	Starting second half-transformation.
	Two-electron integral transformation complete.
	(VV|OO)...
	Starting first half-transformation.
	Sorting half-transformed integrals.
	First half integral transformation complete.
	Starting second half-transformation.
	Two-electron integral transformation complete.
	(VV|OV)...
	Starting second half-transformation.
	Two-electron integral transformation complete.
	(VV|VV)...
	Starting second half-transformation.
	Two-electron integral transformation complete.
	Frozen core energy     =    -60.20106887418815

	Size of irrep 0 of <ab|cd> integrals:    672.520 (MW) /   5380.164 (MB)
	Size of irrep 1 of <ab|cd> integrals:    504.092 (MW) /   4032.738 (MB)
	Size of irrep 2 of <ab|cd> integrals:    584.092 (MW) /   4672.738 (MB)
	Size of irrep 3 of <ab|cd> integrals:    584.092 (MW) /   4672.738 (MB)
	Total:                                  2344.797 (MW) /  18758.378 (MB)

	Size of irrep 0 of <ia|bc> integrals:      9.595 (MW) /     76.762 (MB)
	Size of irrep 1 of <ia|bc> integrals:      5.658 (MW) /     45.263 (MB)
	Size of irrep 2 of <ia|bc> integrals:      7.516 (MW) /     60.130 (MB)
	Size of irrep 3 of <ia|bc> integrals:      7.516 (MW) /     60.130 (MB)
	Total:                                    30.286 (MW) /    242.285 (MB)

	Size of irrep 0 of tijab amplitudes:       0.156 (MW) /      1.245 (MB)
	Size of irrep 1 of tijab amplitudes:       0.045 (MW) /      0.359 (MB)
	Size of irrep 2 of tijab amplitudes:       0.097 (MW) /      0.773 (MB)
	Size of irrep 3 of tijab amplitudes:       0.097 (MW) /      0.773 (MB)
	Total:                                     0.394 (MW) /      3.151 (MB)

	Nuclear Rep. energy          =      4.37618737316774
	SCF energy                   =    -75.41813443858884
	One-electron energy          =    -36.44127437824147
	Two-electron energy          =     16.84802144067192
	Reference energy             =    -75.41813443858996

*** tstop() called on n412-047.vsc4.prov at Sat Jan 23 23:14:20 2021
Module time:
	user time   =     123.16 seconds =       2.05 minutes
	system time =      84.79 seconds =       1.41 minutes
	total time  =        386 seconds =       6.43 minutes
Total time:
	user time   =     544.20 seconds =       9.07 minutes
	system time =     117.73 seconds =       1.96 minutes
	total time  =        820 seconds =      13.67 minutes
            **************************
            *                        *
            *        CCENERGY        *
            *                        *
            **************************

    Nuclear Rep. energy (wfn)     =    4.376187373167741
    SCF energy          (wfn)     =  -75.418134438588837
    Reference energy    (file100) =  -75.418134438589959

    Input parameters:
    -----------------
    Wave function   =     CCSD_T
    Reference wfn   =     RHF
    Brueckner       =     No
    Memory (Mbytes) =     250000.0
    Maxiter         =     50
    R_Convergence   =     1.0e-07
    E_Convergence   =     1.0e-06
    Restart         =     Yes
    DIIS            =     Yes
    AO Basis        =     NONE
    ABCD            =     NEW
    Cache Level     =     2
    Cache Type      =     LOW
    Print Level     =     1
    Num. of threads =     48
    # Amps to Print =     10
    Print MP2 Amps? =     No
    Analyze T2 Amps =     No
    Print Pair Ener =     No
    Local CC        =     No
    SCS-MP2         =     False
    SCSN-MP2        =     False
    SCS-CCSD        =     False

MP2 correlation energy -0.3188263067026103
                Solving CC Amplitude Equations
                ------------------------------
  Iter             Energy              RMS        T1Diag      D1Diag    New D1Diag    D2Diag
  ----     ---------------------    ---------   ----------  ----------  ----------   --------
     0        -0.318826306702610    0.000e+00    0.000000    0.000000    0.000000    0.138374
     1        -0.296370978412109    7.499e-02    0.020563    0.038821    0.038821    0.127534
     2        -0.304420730749328    4.443e-02    0.016030    0.029932    0.029932    0.133598
     3        -0.307249281030163    1.371e-02    0.018978    0.035965    0.035965    0.136637
     4        -0.307751011070292    6.157e-03    0.021726    0.041436    0.041436    0.138209
     5        -0.307516084315200    2.725e-03    0.022360    0.042757    0.042757    0.138161
     6        -0.307498776952922    1.527e-03    0.022935    0.043969    0.043969    0.138282
     7        -0.307521158853514    6.479e-04    0.023164    0.044457    0.044457    0.138322
     8        -0.307511012626939    2.299e-04    0.023199    0.044539    0.044539    0.138289
     9        -0.307498914005348    7.680e-05    0.023207    0.044558    0.044558    0.138276
    10        -0.307505477877153    3.408e-05    0.023213    0.044570    0.044570    0.138280
    11        -0.307504499896892    1.284e-05    0.023216    0.044577    0.044577    0.138280
    12        -0.307504399666392    6.219e-06    0.023214    0.044573    0.044573    0.138280
    13        -0.307504461683015    2.500e-06    0.023214    0.044573    0.044573    0.138280
    14        -0.307504365189602    9.313e-07    0.023214    0.044573    0.044573    0.138280
    15        -0.307504336346017    4.675e-07    0.023214    0.044573    0.044573    0.138280
    16        -0.307504342234635    1.998e-07    0.023214    0.044573    0.044573    0.138280
    17        -0.307504346211592    6.885e-08    0.023214    0.044573    0.044573    0.138280

    Iterations converged.


    Largest TIA Amplitudes:
              2 159        -0.0337829392
              3 235        -0.0337829389
              3 236        -0.0217915872
              2 160        -0.0217915866
              3 239        -0.0120113088
              2 163        -0.0120113054
              3 237        -0.0086809332
              2 161        -0.0086809218
              2 162        -0.0075471714
              3 238        -0.0075471698

    Largest TIjAb Amplitudes:
      3   3 245 245        -0.0206103761
      2   2 169 169        -0.0206103758
      3   3 237 237        -0.0202724955
      2   2 161 161        -0.0202724909
      1   1  10  10        -0.0192488030
      1   1  11  11        -0.0184361271
      3   3 237 245        -0.0174693663
      3   3 245 237        -0.0174693663
      2   2 161 169        -0.0174693638
      2   2 169 161        -0.0174693638

    SCF energy       (wfn)                    =  -75.418134438588837
    Reference energy (file100)                =  -75.418134438589959

    Opposite-spin MP2 correlation energy      =   -0.241257451522376
    Same-spin MP2 correlation energy          =   -0.077568855180235
    Singles MP2 correlation energy            =   -0.000000000000000
    MP2 correlation energy                    =   -0.318826306702610
      * MP2 total energy                      =  -75.736960745292564

    Opposite-spin CCSD correlation energy     =   -0.242477884123328
    Same-spin CCSD correlation energy         =   -0.065026462088195
    Singles CCSD correlation energy           =    0.000000000000000
    CCSD correlation energy                   =   -0.307504346211592
      * CCSD total energy                     =  -75.725638784801546

            **************************
            *                        *
            *        CCTRIPLES       *
            *                        *
            **************************


    Wave function   =    CCSD_T
    Reference wfn   =      RHF

    Nuclear Rep. energy (wfn)                =    4.376187373167741
    SCF energy          (wfn)                =  -75.418134438588837
    Reference energy    (file100)            =  -75.418134438589959
    CCSD energy         (file100)            =   -0.307504346211592
    Total CCSD energy   (file100)            =  -75.725638784801546

    Number of ijk index combinations:               20
    Memory available in words        :     31250000000
    ~Words needed per explicit thread:         5180116
    Number of threads for explicit ijk threading:   48

    (T) energy                                =   -0.013953620031518
      * CCSD(T) total energy                  =  -75.739592404833076


    Psi4 stopped on: Saturday, 23 January 2021 11:19PM
    Psi4 wall time for execution: 0:18:39.46

*** Psi4 exiting successfully. Buy a developer a beer!
