
    -----------------------------------------------------------------------
          Psi4: An Open-Source Ab Initio Electronic Structure Package
                               Psi4 1.4a3.dev88 

                         Git: Rev {master} 262e345 


    D. G. A. Smith, L. A. Burns, A. C. Simmonett, R. M. Parrish,
    M. C. Schieber, R. Galvelis, P. Kraus, H. Kruse, R. Di Remigio,
    A. Alenaizan, A. M. James, S. Lehtola, J. P. Misiewicz, M. Scheurer,
    R. A. Shaw, J. B. Schriber, Y. Xie, Z. L. Glick, D. A. Sirianni,
    J. S. O'Brien, J. M. Waldrop, A. Kumar, E. G. Hohenstein,
    B. P. Pritchard, B. R. Brooks, H. F. Schaefer III, A. Yu. Sokolov,
    K. Patkowski, A. E. DePrince III, U. Bozkaya, R. A. King,
    F. A. Evangelista, J. M. Turney, T. D. Crawford, C. D. Sherrill,
    J. Chem. Phys. 152(18) 184108 (2020). https://doi.org/10.1063/5.0006002

                            Additional Code Authors
    E. T. Seidl, C. L. Janssen, E. F. Valeev, M. L. Leininger,
    J. F. Gonthier, R. M. Richard, H. R. McAlexander, M. Saitow, X. Wang,
    P. Verma, and M. H. Lechner

             Previous Authors, Complete List of Code Contributors,
                       and Citations for Specific Modules
    https://github.com/psi4/psi4/blob/master/codemeta.json
    https://github.com/psi4/psi4/graphs/contributors
    http://psicode.org/psi4manual/master/introduction.html#citing-psifour

    -----------------------------------------------------------------------


    Psi4 started on: Friday, 22 January 2021 03:52AM

    Process ID: 44673
    Host:       n412-045.vsc4.prov
    PSIDATADIR: /home/fs71337/gallo4/psi4/psi4/build/stage/share/psi4
    Memory:     500.0 MiB
    Threads:    48
    
  ==> Input File <==

--------------------------------------------------------------------------
# Any line starting with the # character is a comment line
memory 250000 mb
molecule molecule{
-1 1
O          0.0000000000        0.0000000000        0.0573315255
H          0.0000000000        0.0000000000       -0.9100442572
}

set {
  reference rhf
  basis aug-cc-pV(5+d)Z
  scf_type OUT_OF_CORE
  freeze_core true
}

energy('ccsd(t)')
--------------------------------------------------------------------------

  Memory set to 232.831 GiB by Python driver.

Scratch directory: /binfl/lv71337/airmler/temp/

*** tstart() called on n412-045.vsc4.prov
*** at Fri Jan 22 03:52:04 2021

   => Loading Basis Set <=

    Name: AUG-CC-PV(5+D)Z
    Role: ORBITAL
    Keyword: BASIS
    atoms 1 entry O          line   568 file /home/fs71337/gallo4/psi4/psi4/build/stage/share/psi4/basis/aug-cc-pv_5pd_z.gbs 
    atoms 2 entry H          line    69 file /home/fs71337/gallo4/psi4/psi4/build/stage/share/psi4/basis/aug-cc-pv_5pd_z.gbs 


         ---------------------------------------------------------
                                   SCF
               by Justin Turney, Rob Parrish, Andy Simmonett
                          and Daniel G. A. Smith
                              RHF Reference
                       48 Threads, 238418 MiB Core
         ---------------------------------------------------------

  ==> Geometry <==

    Molecular point group: c2v
    Full point group: C_inf_v

    Geometry (in Angstrom), charge = -1, multiplicity = 1:

       Center              X                  Y                   Z               Mass       
    ------------   -----------------  -----------------  -----------------  -----------------
         O            0.000000000000     0.000000000000     0.057340496258    15.994914619570
         H            0.000000000000     0.000000000000    -0.910035286442     1.007825032230

  Running in c2v symmetry.

  Rotational constants: A = ************  B =     19.00019  C =     19.00019 [cm^-1]
  Rotational constants: A = ************  B = 569611.32434  C = 569611.32434 [MHz]
  Nuclear repulsion =    4.376187373167741

  Charge       = -1
  Multiplicity = 1
  Electrons    = 10
  Nalpha       = 5
  Nbeta        = 5

  ==> Algorithm <==

  SCF Algorithm Type is OUT_OF_CORE.
  DIIS enabled.
  MOM disabled.
  Fractional occupation disabled.
  Guess Type is SAD.
  Energy threshold   = 1.00e-08
  Density threshold  = 1.00e-08
  Integral threshold = 1.00e-12

  ==> Primary Basis <==

  Basis Set: AUG-CC-PV(5+D)Z
    Blend: AUG-CC-PV(5+D)Z
    Number of shells: 47
    Number of basis function: 207
    Number of Cartesian functions: 287
    Spherical Harmonics?: true
    Max angular momentum: 5

  ==> Integral Setup <==

  ==> DiskJK: Disk-Based J/K Matrices <==

    J tasked:                  Yes
    K tasked:                  Yes
    wK tasked:                  No
    Memory [MiB]:           178813
    Schwarz Cutoff:          1E-12

  Minimum eigenvalue in the overlap matrix is 1.8557529222E-05.
  Reciprocal condition number of the overlap matrix is 2.8872830455E-06.
    Using symmetric orthogonalization.

  ==> Pre-Iterations <==

  SCF Guess: Superposition of Atomic Densities via on-the-fly atomic UHF (no occupation information).


 WARNING: Atomic UHF is not converging! Try casting from a smaller basis or call Rob at CCMST.

 WARNING: Atomic UHF is not converging! Try casting from a smaller basis or call Rob at CCMST.
   -------------------------
    Irrep   Nso     Nmo    
   -------------------------
     A1        77      77 
     A2        30      30 
     B1        50      50 
     B2        50      50 
   -------------------------
    Total     207     207
   -------------------------

  ==> Iterations <==

                        Total Energy        Delta E     RMS |[F,P]|

   @RHF iter SAD:   -27.46907122698107   -2.74691e+01   0.00000e+00 
   @RHF iter   1:   -75.23647322238760   -4.77674e+01   6.58237e-03 DIIS
   @RHF iter   2:   -75.39648040951876   -1.60007e-01   1.71646e-03 DIIS
   @RHF iter   3:   -75.41133177436753   -1.48514e-02   9.40021e-04 DIIS
   @RHF iter   4:   -75.41620887153427   -4.87710e-03   3.58536e-04 DIIS
   @RHF iter   5:   -75.41771834171149   -1.50947e-03   9.76874e-05 DIIS
   @RHF iter   6:   -75.41796745790292   -2.49116e-04   2.67576e-05 DIIS
   @RHF iter   7:   -75.41799864625260   -3.11883e-05   5.63606e-06 DIIS
   @RHF iter   8:   -75.41800018124049   -1.53499e-06   2.04949e-06 DIIS
   @RHF iter   9:   -75.41800031525777   -1.34017e-07   3.67759e-07 DIIS
   @RHF iter  10:   -75.41800031854497   -3.28720e-09   4.25414e-08 DIIS
   @RHF iter  11:   -75.41800031858550   -4.05294e-11   9.96678e-09 DIIS
  Energy and wave function converged.


  ==> Post-Iterations <==

    Orbital Energies [Eh]
    ---------------------

    Doubly Occupied:                                                      

       1A1   -20.185001     2A1    -0.901603     3A1    -0.251401  
       1B2    -0.109441     1B1    -0.109441  

    Virtual:                                                              

       4A1     0.158933     5A1     0.243876     2B2     0.281446  
       2B1     0.281446     6A1     0.322845     3B2     0.357491  
       3B1     0.357491     7A1     0.369163     8A1     0.503433  
       9A1     0.652092     1A2     0.652092    10A1     0.673060  
       4B2     0.704744     4B1     0.704744    11A1     0.712984  
       5B2     0.724418     5B1     0.724418    12A1     0.747758  
       2A2     0.750933    13A1     0.750933     6B2     0.806621  
       6B1     0.806621    14A1     0.934013     7B2     1.270211  
       7B1     1.270211     8B2     1.271122     8B1     1.271122  
      15A1     1.297656    16A1     1.360497     9B1     1.409438  
       9B2     1.409438    17A1     1.415303     3A2     1.451367  
      18A1     1.451367    10B2     1.505378    10B1     1.505378  
       4A2     1.512467    19A1     1.512467    20A1     1.518588  
      11B1     1.552127    11B2     1.552127     5A2     1.639175  
      21A1     1.639175    22A1     1.693694    12B2     1.826656  
      12B1     1.826656    23A1     2.023842    13B2     2.241590  
      13B1     2.241590    24A1     2.528788     6A2     2.615971  
      25A1     2.615971    14B2     2.637516    14B1     2.637516  
       7A2     2.924664    26A1     2.924664    27A1     2.946740  
      15B1     2.982823    15B2     2.982823    28A1     3.068870  
      16B2     3.215026    16B1     3.215026     8A2     3.268153  
      29A1     3.268153    17B2     3.272324    17B1     3.272324  
      18B1     3.275491    18B2     3.275491    30A1     3.283363  
      31A1     3.377907     9A2     3.377907    32A1     3.450172  
      10A2     3.453055    33A1     3.453055    34A1     3.598716  
      11A2     3.598716    19B1     3.642762    19B2     3.642762  
      20B2     3.649334    20B1     3.649334    35A1     3.795099  
      21B1     3.887362    21B2     3.887362    36A1     3.986125  
      12A2     4.177233    37A1     4.177233    38A1     4.636110  
      22B1     4.934774    22B2     4.934774    23B1     5.017812  
      23B2     5.017812    24B1     5.170515    24B2     5.170515  
      39A1     5.413088    13A2     5.781610    40A1     5.781610  
      41A1     5.989820    25B1     6.187886    25B2     6.187886  
      14A2     6.263095    42A1     6.263095    26B1     6.526215  
      26B2     6.526215    27B1     6.600952    27B2     6.600952  
      43A1     6.613936    15A2     6.861158    44A1     6.861158  
      28B1     7.085092    28B2     7.085092    45A1     7.279153  
      46A1     7.488724    16A2     7.522812    47A1     7.522812  
      29B1     7.560321    29B2     7.560321    17A2     7.580935  
      48A1     7.580935    30B1     7.582088    30B2     7.582088  
      31B1     7.657663    31B2     7.657663    32B1     8.020252  
      32B2     8.020252    18A2     8.137367    49A1     8.137367  
      50A1     8.197471    19A2     8.346380    51A1     8.346380  
      33B1     8.897085    33B2     8.897085    52A1     9.033084  
      53A1     9.226026    34B1     9.519949    34B2     9.519949  
      20A2     9.803891    54A1     9.803891    55A1    10.671903  
      35B1    10.883633    35B2    10.883633    56A1    13.194208  
      36B1    13.360028    36B2    13.360028    21A2    13.521567  
      57A1    13.521567    22A2    13.896638    58A1    13.896638  
      37B1    14.263944    37B2    14.263944    59A1    14.478106  
      23A2    14.499971    60A1    14.499971    38B1    14.589331  
      38B2    14.589331    39B2    14.847768    39B1    14.847768  
      61A1    15.044474    62A1    15.942722    24A2    16.033999  
      63A1    16.033999    40B1    16.381480    40B2    16.381480  
      41B1    16.675981    41B2    16.675981    25A2    16.796552  
      64A1    16.796552    42B1    17.224850    42B2    17.224850  
      43B1    17.293608    43B2    17.293608    65A1    17.300496  
      44B1    18.186513    44B2    18.186513    26A2    18.286631  
      66A1    18.286631    67A1    18.448779    45B1    18.584653  
      45B2    18.584653    68A1    19.001163    27A2    19.542805  
      69A1    19.542805    46B1    19.637036    46B2    19.637036  
      47B1    19.687896    47B2    19.687896    70A1    19.927248  
      28A2    20.017081    71A1    20.017081    29A2    20.411613  
      72A1    20.411613    48B1    20.919534    48B2    20.919534  
      73A1    21.474941    30A2    22.862786    74A1    22.862786  
      49B1    23.663320    49B2    23.663320    50B1    24.363471  
      50B2    24.363471    75A1    26.345451    76A1    26.653884  
      77A1    65.445651  

    Final Occupation by Irrep:
             A1    A2    B1    B2 
    DOCC [     3,    0,    1,    1 ]

  @RHF Final Energy:   -75.41800031858550

   => Energetics <=

    Nuclear Repulsion Energy =              4.3761873731677410
    One-Electron Energy =                -116.4745992727544319
    Two-Electron Energy =                  36.6804115810011950
    Total Energy =                        -75.4180003185854986

Computation Completed


Properties will be evaluated at   0.000000,   0.000000,   0.000000 [a0]

Properties computed using the SCF density matrix

  Nuclear Dipole Moment: [e a0]
     X:     0.0000      Y:     0.0000      Z:    -0.8529

  Electronic Dipole Moment: [e a0]
     X:     0.0000      Y:     0.0000      Z:     0.3631

  Dipole Moment: [e a0]
     X:     0.0000      Y:     0.0000      Z:    -0.4897     Total:     0.4897

  Dipole Moment: [D]
     X:     0.0000      Y:     0.0000      Z:    -1.2448     Total:     1.2448


*** tstop() called on n412-045.vsc4.prov at Fri Jan 22 03:53:08 2021
Module time:
	user time   =     115.29 seconds =       1.92 minutes
	system time =       6.88 seconds =       0.11 minutes
	total time  =         64 seconds =       1.07 minutes
Total time:
	user time   =     115.29 seconds =       1.92 minutes
	system time =       6.88 seconds =       0.11 minutes
	total time  =         64 seconds =       1.07 minutes

*** tstart() called on n412-045.vsc4.prov
*** at Fri Jan 22 03:53:08 2021


	Wfn Parameters:
	--------------------
	Wavefunction         = CCSD_T
	Number of irreps     = 4
	Number of MOs        = 207
	Number of active MOs = 206
	AO-Basis             = NONE
	Semicanonical        = false
	Reference            = RHF
	Print Level          = 1

	IRREP	# MOs	# FZDC	# DOCC	# SOCC	# VIRT	# FZVR
	-----	-----	------	------	------	------	------
	 A1	   77	    1	    2	    0	    74	    0
	 A2	   30	    0	    0	    0	    30	    0
	 B1	   50	    0	    1	    0	    49	    0
	 B2	   50	    0	    1	    0	    49	    0
	Transforming integrals...
	IWL integrals will be deleted.
	(OO|OO)...
	Presorting SO-basis two-electron integrals.
	Sorting File: SO Ints (nn|nn) nbuckets = 1
	Constructing frozen core operators
	Starting first half-transformation.
	Sorting half-transformed integrals.
	First half integral transformation complete.
	Starting second half-transformation.
	Two-electron integral transformation complete.
	(OO|OV)...
	Starting second half-transformation.
	Two-electron integral transformation complete.
	(OO|VV)...
	Starting second half-transformation.
	Two-electron integral transformation complete.
	(OV|OO)...
	Starting first half-transformation.
	Sorting half-transformed integrals.
	First half integral transformation complete.
	Starting second half-transformation.
	Two-electron integral transformation complete.
	(OV|OV)...
	Starting second half-transformation.
	Two-electron integral transformation complete.
	(OV|VV)...
	Starting second half-transformation.
	Two-electron integral transformation complete.
	(VV|OO)...
	Starting first half-transformation.
	Sorting half-transformed integrals.
	First half integral transformation complete.
	Starting second half-transformation.
	Two-electron integral transformation complete.
	(VV|OV)...
	Starting second half-transformation.
	Two-electron integral transformation complete.
	(VV|VV)...
	Starting second half-transformation.
	Two-electron integral transformation complete.
	Frozen core energy     =    -60.20103644700399

	Size of irrep 0 of <ab|cd> integrals:    124.948 (MW) /    999.581 (MB)
	Size of irrep 1 of <ab|cd> integrals:     85.415 (MW) /    683.317 (MB)
	Size of irrep 2 of <ab|cd> integrals:    103.877 (MW) /    831.015 (MB)
	Size of irrep 3 of <ab|cd> integrals:    103.877 (MW) /    831.015 (MB)
	Total:                                   418.116 (MW) /   3344.928 (MB)

	Size of irrep 0 of <ia|bc> integrals:      2.750 (MW) /     21.998 (MB)
	Size of irrep 1 of <ia|bc> integrals:      1.460 (MW) /     11.682 (MB)
	Size of irrep 2 of <ia|bc> integrals:      2.059 (MW) /     16.470 (MB)
	Size of irrep 3 of <ia|bc> integrals:      2.059 (MW) /     16.470 (MB)
	Total:                                     8.328 (MW) /     66.621 (MB)

	Size of irrep 0 of tijab amplitudes:       0.067 (MW) /      0.537 (MB)
	Size of irrep 1 of tijab amplitudes:       0.018 (MW) /      0.148 (MB)
	Size of irrep 2 of tijab amplitudes:       0.041 (MW) /      0.326 (MB)
	Size of irrep 3 of tijab amplitudes:       0.041 (MW) /      0.326 (MB)
	Total:                                     0.167 (MW) /      1.337 (MB)

	Nuclear Rep. energy          =      4.37618737316774
	SCF energy                   =    -75.41800031858550
	One-electron energy          =    -36.44253136431759
	Two-electron energy          =     16.84938011956612
	Reference energy             =    -75.41800031858772

*** tstop() called on n412-045.vsc4.prov at Fri Jan 22 03:54:25 2021
Module time:
	user time   =      21.60 seconds =       0.36 minutes
	system time =      15.18 seconds =       0.25 minutes
	total time  =         77 seconds =       1.28 minutes
Total time:
	user time   =     136.89 seconds =       2.28 minutes
	system time =      22.06 seconds =       0.37 minutes
	total time  =        141 seconds =       2.35 minutes
            **************************
            *                        *
            *        CCENERGY        *
            *                        *
            **************************

    Nuclear Rep. energy (wfn)     =    4.376187373167741
    SCF energy          (wfn)     =  -75.418000318585499
    Reference energy    (file100) =  -75.418000318587715

    Input parameters:
    -----------------
    Wave function   =     CCSD_T
    Reference wfn   =     RHF
    Brueckner       =     No
    Memory (Mbytes) =     250000.0
    Maxiter         =     50
    R_Convergence   =     1.0e-07
    E_Convergence   =     1.0e-06
    Restart         =     Yes
    DIIS            =     Yes
    AO Basis        =     NONE
    ABCD            =     NEW
    Cache Level     =     2
    Cache Type      =     LOW
    Print Level     =     1
    Num. of threads =     48
    # Amps to Print =     10
    Print MP2 Amps? =     No
    Analyze T2 Amps =     No
    Print Pair Ener =     No
    Local CC        =     No
    SCS-MP2         =     False
    SCSN-MP2        =     False
    SCS-CCSD        =     False

MP2 correlation energy -0.3155046010905329
                Solving CC Amplitude Equations
                ------------------------------
  Iter             Energy              RMS        T1Diag      D1Diag    New D1Diag    D2Diag
  ----     ---------------------    ---------   ----------  ----------  ----------   --------
     0        -0.315504601090533    0.000e+00    0.000000    0.000000    0.000000    0.138088
     1        -0.294448803132400    7.344e-02    0.020134    0.037888    0.037888    0.127748
     2        -0.302455911444169    4.156e-02    0.015905    0.029657    0.029657    0.133858
     3        -0.305332758903225    1.237e-02    0.018985    0.035922    0.035922    0.137076
     4        -0.305521190858928    5.070e-03    0.021236    0.040390    0.040390    0.138324
     5        -0.305374394680305    2.052e-03    0.021725    0.041423    0.041423    0.138276
     6        -0.305373549546334    1.149e-03    0.022140    0.042305    0.042305    0.138273
     7        -0.305382921271370    3.949e-04    0.022264    0.042574    0.042574    0.138287
     8        -0.305371357673576    1.456e-04    0.022284    0.042622    0.042622    0.138261
     9        -0.305366611311437    4.116e-05    0.022289    0.042635    0.042635    0.138257
    10        -0.305369421601435    1.814e-05    0.022291    0.042639    0.042639    0.138259
    11        -0.305368581571630    7.255e-06    0.022292    0.042642    0.042642    0.138258
    12        -0.305368534431859    3.410e-06    0.022291    0.042640    0.042640    0.138258
    13        -0.305368597926386    1.155e-06    0.022291    0.042640    0.042640    0.138258
    14        -0.305368540547489    4.070e-07    0.022291    0.042640    0.042640    0.138258
    15        -0.305368533747186    2.111e-07    0.022291    0.042640    0.042640    0.138258
    16        -0.305368541904445    8.840e-08    0.022291    0.042640    0.042640    0.138258

    Iterations converged.


    Largest TIA Amplitudes:
              2 104        -0.0344128208
              3 153        -0.0344128167
              2 105        -0.0197333136
              3 154        -0.0197333092
              3 155        -0.0111923804
              2 106        -0.0111923703
              1  18        -0.0067833697
              2 115         0.0064124901
              3 164         0.0064124847
              1   1         0.0060456896

    Largest TIjAb Amplitudes:
      1   1  10  10        -0.0268905195
      2   2 108 108        -0.0196203054
      3   3 157 157        -0.0196203015
      2   2 104 104        -0.0191812505
      3   3 153 153        -0.0191811994
      1   1   4  10         0.0191305809
      1   1  10   4         0.0191305809
      1   1   6   6        -0.0179027304
      1   1   6  10        -0.0173812315
      1   1  10   6        -0.0173812315

    SCF energy       (wfn)                    =  -75.418000318585499
    Reference energy (file100)                =  -75.418000318587715

    Opposite-spin MP2 correlation energy      =   -0.238167173823760
    Same-spin MP2 correlation energy          =   -0.077337427266773
    Singles MP2 correlation energy            =   -0.000000000000000
    MP2 correlation energy                    =   -0.315504601090533
      * MP2 total energy                      =  -75.733504919678253

    Opposite-spin CCSD correlation energy     =   -0.240522706268679
    Same-spin CCSD correlation energy         =   -0.064845835635766
    Singles CCSD correlation energy           =    0.000000000000000
    CCSD correlation energy                   =   -0.305368541904445
      * CCSD total energy                     =  -75.723368860492158

            **************************
            *                        *
            *        CCTRIPLES       *
            *                        *
            **************************


    Wave function   =    CCSD_T
    Reference wfn   =      RHF

    Nuclear Rep. energy (wfn)                =    4.376187373167741
    SCF energy          (wfn)                =  -75.418000318585499
    Reference energy    (file100)            =  -75.418000318587715
    CCSD energy         (file100)            =   -0.305368541904445
    Total CCSD energy   (file100)            =  -75.723368860492158

    Number of ijk index combinations:               20
    Memory available in words        :     31250000000
    ~Words needed per explicit thread:         1620896
    Number of threads for explicit ijk threading:   48

    (T) energy                                =   -0.013787908479636
      * CCSD(T) total energy                  =  -75.737156768971801


    Psi4 stopped on: Friday, 22 January 2021 03:55AM
    Psi4 wall time for execution: 0:03:23.84

*** Psi4 exiting successfully. Buy a developer a beer!
