
    -----------------------------------------------------------------------
          Psi4: An Open-Source Ab Initio Electronic Structure Package
                               Psi4 1.4a3.dev88 

                         Git: Rev {master} 262e345 


    D. G. A. Smith, L. A. Burns, A. C. Simmonett, R. M. Parrish,
    M. C. Schieber, R. Galvelis, P. Kraus, H. Kruse, R. Di Remigio,
    A. Alenaizan, A. M. James, S. Lehtola, J. P. Misiewicz, M. Scheurer,
    R. A. Shaw, J. B. Schriber, Y. Xie, Z. L. Glick, D. A. Sirianni,
    J. S. O'Brien, J. M. Waldrop, A. Kumar, E. G. Hohenstein,
    B. P. Pritchard, B. R. Brooks, H. F. Schaefer III, A. Yu. Sokolov,
    K. Patkowski, A. E. DePrince III, U. Bozkaya, R. A. King,
    F. A. Evangelista, J. M. Turney, T. D. Crawford, C. D. Sherrill,
    J. Chem. Phys. 152(18) 184108 (2020). https://doi.org/10.1063/5.0006002

                            Additional Code Authors
    E. T. Seidl, C. L. Janssen, E. F. Valeev, M. L. Leininger,
    J. F. Gonthier, R. M. Richard, H. R. McAlexander, M. Saitow, X. Wang,
    P. Verma, and M. H. Lechner

             Previous Authors, Complete List of Code Contributors,
                       and Citations for Specific Modules
    https://github.com/psi4/psi4/blob/master/codemeta.json
    https://github.com/psi4/psi4/graphs/contributors
    http://psicode.org/psi4manual/master/introduction.html#citing-psifour

    -----------------------------------------------------------------------


    Psi4 started on: Thursday, 21 January 2021 02:02PM

    Process ID: 232819
    Host:       n411-011.vsc4.prov
    PSIDATADIR: /home/fs71337/gallo4/psi4/eri-6/psi4/build/stage/share/psi4
    Memory:     500.0 MiB
    Threads:    48
    
  ==> Input File <==

--------------------------------------------------------------------------
# Any line starting with the # character is a comment line
memory 250000 mb
molecule molecule{
0 4
P          0.0000000000        0.0000000000        0.0000000000
}

set {
  reference uhf
  basis aug-cc-pV(6+d)Z
  scf_type OUT_OF_CORE
  freeze_core true
}

energy('ccsd(t)')
--------------------------------------------------------------------------

  Memory set to 232.831 GiB by Python driver.

Scratch directory: /binfl/lv71337/airmler/temp/

*** tstart() called on n411-011.vsc4.prov
*** at Thu Jan 21 14:02:36 2021

   => Loading Basis Set <=

    Name: AUG-CC-PV(6+D)Z
    Role: ORBITAL
    Keyword: BASIS
    atoms 1 entry P          line  1025 file /home/fs71337/gallo4/psi4/eri-6/psi4/build/stage/share/psi4/basis/aug-cc-pv_6pd_z.gbs 


         ---------------------------------------------------------
                                   SCF
               by Justin Turney, Rob Parrish, Andy Simmonett
                          and Daniel G. A. Smith
                              UHF Reference
                       48 Threads, 238418 MiB Core
         ---------------------------------------------------------

  ==> Geometry <==

    Molecular point group: d2h
    Geometry (in Angstrom), charge = 0, multiplicity = 4:

       Center              X                  Y                   Z               Mass       
    ------------   -----------------  -----------------  -----------------  -----------------
         P            0.000000000000     0.000000000000     0.000000000000    30.973761998420

  Running in d2h symmetry.

  Rotational constants: A = ************  B = ************  C = ************ [cm^-1]
  Rotational constants: A = ************  B = ************  C = ************ [MHz]
  Nuclear repulsion =    0.000000000000000

  Charge       = 0
  Multiplicity = 4
  Electrons    = 15
  Nalpha       = 9
  Nbeta        = 6

  ==> Algorithm <==

  SCF Algorithm Type is OUT_OF_CORE.
  DIIS enabled.
  MOM disabled.
  Fractional occupation disabled.
  Guess Type is CORE.
  Energy threshold   = 1.00e-08
  Density threshold  = 1.00e-08
  Integral threshold = 1.00e-12

  ==> Primary Basis <==

  Basis Set: AUG-CC-PV(6+D)Z
    Blend: AUG-CC-PV(6+D)Z
    Number of shells: 38
    Number of basis function: 198
    Number of Cartesian functions: 304
    Spherical Harmonics?: true
    Max angular momentum: 6

  ==> Integral Setup <==

  ==> DiskJK: Disk-Based J/K Matrices <==

    J tasked:                  Yes
    K tasked:                  Yes
    wK tasked:                  No
    Memory [MiB]:           178813
    Schwarz Cutoff:          1E-12

  Minimum eigenvalue in the overlap matrix is 2.8628444795E-05.
  Reciprocal condition number of the overlap matrix is 5.9646654065E-06.
    Using symmetric orthogonalization.

  ==> Pre-Iterations <==

  SCF Guess: Core (One-Electron) Hamiltonian.

   -------------------------------------------------------
    Irrep   Nso     Nmo     Nalpha   Nbeta   Ndocc  Nsocc
   -------------------------------------------------------
     Ag        43      43       4       3       3       1
     B1g       21      21       1       0       0       1
     B2g       21      21       1       0       0       1
     B3g       21      21       0       0       0       0
     Au        11      11       0       0       0       0
     B1u       27      27       1       1       1       0
     B2u       27      27       1       1       1       0
     B3u       27      27       1       1       1       0
   -------------------------------------------------------
    Total     198     198       9       6       6       3
   -------------------------------------------------------

  ==> Iterations <==

                        Total Energy        Delta E     RMS |[F,P]|

    Occupation by irrep:
             Ag   B1g   B2g   B3g    Au   B1u   B2u   B3u 
    DOCC [     3,    0,    0,    0,    0,    1,    1,    1 ]
    SOCC [     0,    0,    0,    0,    0,    1,    1,    1 ]

   @UHF iter   1:  -293.06617094594316   -2.93066e+02   3.15220e-01 DIIS
   @UHF iter   2:  -296.61501350348004   -3.54884e+00   1.47960e-01 DIIS
   @UHF iter   3:  -337.11878239195539   -4.05038e+01   6.47795e-02 DIIS
   @UHF iter   4:  -340.58736920919216   -3.46859e+00   6.85086e-03 DIIS
   @UHF iter   5:  -340.71536380577044   -1.27995e-01   1.06153e-03 DIIS
   @UHF iter   6:  -340.71860686236283   -3.24306e-03   2.87817e-04 DIIS
   @UHF iter   7:  -340.71919766967824   -5.90807e-04   7.74045e-05 DIIS
   @UHF iter   8:  -340.71924999939841   -5.23297e-05   9.39489e-06 DIIS
   @UHF iter   9:  -340.71925057030114   -5.70903e-07   1.60939e-06 DIIS
   @UHF iter  10:  -340.71925058830192   -1.80008e-08   9.99108e-08 DIIS
   @UHF iter  11:  -340.71925058836342   -6.15046e-11   1.16229e-08 DIIS
   @UHF iter  12:  -340.71925058836467   -1.25056e-12   2.27919e-09 DIIS
  Energy and wave function converged.


  ==> Post-Iterations <==

   @Spin Contamination Metric:   6.860752638E-04
   @S^2 Expected:                3.750000000E+00
   @S^2 Observed:                3.750686075E+00
   @S   Expected:                1.500000000E+00
   @S   Observed:                1.500000000E+00

    Orbital Energies [Eh]
    ---------------------

    Alpha Occupied:                                                       

       1Ag   -79.980217     2Ag    -7.521753     1B3u   -5.421440  
       1B1u   -5.421440     1B2u   -5.421440     3Ag    -0.836221  
       2B3u   -0.392105     2B1u   -0.392105     2B2u   -0.392105  

    Alpha Virtual:                                                        

       3B3u    0.052863     3B1u    0.052863     3B2u    0.052863  
       4Ag     0.055149     5Ag     0.139994     1B3g    0.139994  
       1B1g    0.139994     1B2g    0.139994     6Ag     0.139994  
       4B3u    0.236084     4B1u    0.236084     4B2u    0.236084  
       7Ag     0.312350     5B3u    0.341107     5B1u    0.341107  
       5B2u    0.341107     6B3u    0.341107     1Au     0.341107  
       6B2u    0.341107     6B1u    0.341107     8Ag     0.360702  
       2B2g    0.360702     2B1g    0.360702     9Ag     0.360702  
       2B3g    0.360702    10Ag     0.706657     3B2g    0.706657  
       3B1g    0.706657    11Ag     0.706657     3B3g    0.706657  
       4B1g    0.706657     4B2g    0.706657    12Ag     0.706657  
       4B3g    0.706657     7B3u    0.769845     7B1u    0.769845  
       7B2u    0.769845    13Ag     0.893063     5B2g    0.893063  
       5B1g    0.893063     5B3g    0.893063    14Ag     0.893063  
       8B3u    0.915265     8B1u    0.915265     8B2u    0.915265  
       9B3u    0.915265     2Au     0.915265     9B2u    0.915265  
       9B1u    0.915265    15Ag     1.120249    10B3u    1.623860  
      10B1u    1.623860    10B2u    1.623860     3Au     1.623860  
      11B3u    1.623860    11B1u    1.623860    11B2u    1.623860  
       4Au     1.623860    12B3u    1.623860    12B2u    1.623860  
      12B1u    1.623860    16Ag     1.745483     6B2g    1.745483  
       6B1g    1.745483     6B3g    1.745483    17Ag     1.745483  
       7B1g    1.745483     7B2g    1.745483    18Ag     1.745483  
       7B3g    1.745483    13B3u    2.019765    13B1u    2.019765  
      13B2u    2.019765     5Au     2.019765    14B3u    2.019765  
      14B1u    2.019765    14B2u    2.019765    19Ag     2.072464  
       8B2g    2.072464     8B1g    2.072464     8B3g    2.072464  
      20Ag     2.072464    15B3u    2.197942    15B1u    2.197942  
      15B2u    2.197942    21Ag     3.408961     9B3g    3.408961  
       9B2g    3.408961     9B1g    3.408961    22Ag     3.408961  
      10B3g    3.408961    10B2g    3.408961    10B1g    3.408961  
      11B3g    3.408961    23Ag     3.408961    11B1g    3.408961  
      11B2g    3.408961    24Ag     3.408961    25Ag     3.425968  
      26Ag     3.614750    12B3g    3.614750    12B2g    3.614750  
      12B1g    3.614750    13B3g    3.614750    27Ag     3.614750  
      13B1g    3.614750    13B2g    3.614750    28Ag     3.614750  
      16B2u    3.715036    16B1u    3.715036    16B3u    3.715036  
       6Au     3.715036    17B1u    3.715036    17B2u    3.715036  
       7Au     3.715036    17B3u    3.715036    18B2u    3.715036  
      18B1u    3.715036    18B3u    3.715036    19B1u    4.292147  
      19B2u    4.292147     8Au     4.292147    19B3u    4.292147  
      20B2u    4.292147    20B1u    4.292147    20B3u    4.292147  
      14B3g    4.443512    29Ag     4.443512    14B1g    4.443512  
      14B2g    4.443512    30Ag     4.443512    21B3u    6.196637  
      21B1u    6.196637    21B2u    6.196637    31Ag     7.112051  
      15B3g    7.112051    15B1g    7.112051    15B2g    7.112051  
      16B3g    7.112051    32Ag     7.112051    16B1g    7.112051  
      16B2g    7.112051    33Ag     7.112051    34Ag     7.510190  
      17B3g    7.510190    17B1g    7.510190    17B2g    7.510190  
      35Ag     7.510190    18B3g    7.510190    18B2g    7.510190  
      18B1g    7.510190    36Ag     7.510190    19B3g    7.510190  
      19B1g    7.510190    19B2g    7.510190    37Ag     7.510190  
      22B2u    7.890723    22B1u    7.890723    22B3u    7.890723  
       9Au     7.890723    23B2u    7.890723    23B1u    7.890723  
      23B3u    7.890723    10Au     7.890723    24B2u    7.890723  
      24B1u    7.890723    24B3u    7.890723    25B1u    9.045325  
      25B2u    9.045325    25B3u    9.045325    11Au     9.045325  
      26B2u    9.045325    26B1u    9.045325    26B3u    9.045325  
      20B3g    9.252007    38Ag     9.252007    20B1g    9.252007  
      20B2g    9.252007    39Ag     9.252007    40Ag    10.484358  
      27B3u   25.759107    27B1u   25.759107    27B2u   25.759107  
      21B3g   25.874499    41Ag    25.874499    21B1g   25.874499  
      21B2g   25.874499    42Ag    25.874499    43Ag   209.125439  

    Beta Occupied:                                                        

       1Ag   -79.958555     2Ag    -7.499775     1B2u   -5.379896  
       1B1u   -5.379896     1B3u   -5.379896     3Ag    -0.556173  

    Beta Virtual:                                                         

       2B2u    0.025961     2B1u    0.025961     2B3u    0.025961  
       4Ag     0.064393     3B2u    0.080178     3B1u    0.080178  
       3B3u    0.080178     5Ag     0.154350     1B2g    0.154350  
       1B1g    0.154350     1B3g    0.154350     6Ag     0.154350  
       4B2u    0.282474     4B1u    0.282474     4B3u    0.282474  
       7Ag     0.343957     5B3u    0.347760     5B1u    0.347760  
       5B2u    0.347760     1Au     0.347760     6B3u    0.347760  
       6B1u    0.347760     6B2u    0.347760     2B3g    0.444171  
       8Ag     0.444171     2B1g    0.444171     2B2g    0.444171  
       9Ag     0.444171    10Ag     0.713666     3B2g    0.713666  
       3B1g    0.713666     3B3g    0.713666    11Ag     0.713666  
       4B2g    0.713666     4B1g    0.713666     4B3g    0.713666  
      12Ag     0.713666     7B2u    0.829516     7B1u    0.829516  
       7B3u    0.829516     8B1u    0.952728     8B2u    0.952728  
       2Au     0.952728     8B3u    0.952728     9B2u    0.952728  
       9B1u    0.952728     9B3u    0.952728     5B3g    0.969058  
      13Ag     0.969058     5B1g    0.969058     5B2g    0.969058  
      14Ag     0.969058    15Ag     1.167078    10B3u    1.636086  
      10B1u    1.636086    10B2u    1.636086     3Au     1.636086  
      11B3u    1.636086    11B1u    1.636086    11B2u    1.636086  
       4Au     1.636086    12B3u    1.636086    12B2u    1.636086  
      12B1u    1.636086    16Ag     1.772384     6B3g    1.772384  
       6B2g    1.772384     6B1g    1.772384     7B3g    1.772384  
      17Ag     1.772384     7B1g    1.772384     7B2g    1.772384  
      18Ag     1.772384    13B1u    2.074486    13B2u    2.074486  
       5Au     2.074486    13B3u    2.074486    14B2u    2.074486  
      14B1u    2.074486    14B3u    2.074486     8B3g    2.108635  
      19Ag     2.108635     8B1g    2.108635     8B2g    2.108635  
      20Ag     2.108635    15B2u    2.251472    15B1u    2.251472  
      15B3u    2.251472    21Ag     3.426116     9B3g    3.426116  
       9B2g    3.426116     9B1g    3.426116    22Ag     3.426116  
      10B3g    3.426116    10B2g    3.426116    10B1g    3.426116  
      11B3g    3.426116    23Ag     3.426116    11B1g    3.426116  
      11B2g    3.426116    24Ag     3.426116    25Ag     3.464692  
      26Ag     3.651985    12B3g    3.651985    12B2g    3.651985  
      12B1g    3.651985    27Ag     3.651985    13B3g    3.651985  
      13B1g    3.651985    13B2g    3.651985    28Ag     3.651985  
      16B2u    3.742068    16B1u    3.742068    16B3u    3.742068  
       6Au     3.742068    17B1u    3.742068    17B2u    3.742068  
       7Au     3.742068    17B3u    3.742068    18B2u    3.742068  
      18B1u    3.742068    18B3u    3.742068    19B1u    4.329574  
      19B2u    4.329574    19B3u    4.329574     8Au     4.329574  
      20B2u    4.329574    20B1u    4.329574    20B3u    4.329574  
      29Ag     4.467831    14B3g    4.467831    14B1g    4.467831  
      14B2g    4.467831    30Ag     4.467831    21B2u    6.231596  
      21B1u    6.231596    21B3u    6.231596    31Ag     7.138664  
      15B3g    7.138664    15B1g    7.138664    15B2g    7.138664  
      32Ag     7.138664    16B3g    7.138664    16B1g    7.138664  
      16B2g    7.138664    33Ag     7.138664    34Ag     7.533951  
      17B3g    7.533951    17B1g    7.533951    17B2g    7.533951  
      35Ag     7.533951    18B3g    7.533951    18B1g    7.533951  
      18B2g    7.533951    36Ag     7.533951    19B3g    7.533951  
      19B1g    7.533951    19B2g    7.533951    37Ag     7.533951  
      22B1u    7.917288    22B2u    7.917288    22B3u    7.917288  
       9Au     7.917288    23B2u    7.917288    23B1u    7.917288  
      23B3u    7.917288    10Au     7.917288    24B2u    7.917288  
      24B1u    7.917288    24B3u    7.917288    25B2u    9.058702  
      25B1u    9.058702    25B3u    9.058702    11Au     9.058702  
      26B2u    9.058702    26B1u    9.058702    26B3u    9.058702  
      38Ag     9.271971    20B3g    9.271971    20B1g    9.271971  
      20B2g    9.271971    39Ag     9.271971    40Ag    10.507094  
      27B1u   25.784073    27B2u   25.784073    27B3u   25.784073  
      21B3g   25.897449    41Ag    25.897449    21B1g   25.897449  
      21B2g   25.897449    42Ag    25.897449    43Ag   209.133395  

    Final Occupation by Irrep:
             Ag   B1g   B2g   B3g    Au   B1u   B2u   B3u 
    DOCC [     3,    0,    0,    0,    0,    1,    1,    1 ]
    SOCC [     0,    0,    0,    0,    0,    1,    1,    1 ]

  @UHF Final Energy:  -340.71925058836467

   => Energetics <=

    Nuclear Repulsion Energy =              0.0000000000000000
    One-Electron Energy =                -471.5054854047418189
    Two-Electron Energy =                 130.7862348163772026
    Total Energy =                       -340.7192505883646163

  UHF NO Occupations:
  HONO-2 :    2B3u 1.0000000
  HONO-1 :    2B2u 1.0000000
  HONO-0 :    2B1u 1.0000000
  LUNO+0 :    4 Ag 0.0003246
  LUNO+1 :    3B3u 0.0000059
  LUNO+2 :    3B1u 0.0000059
  LUNO+3 :    3B2u 0.0000059


Computation Completed


Properties will be evaluated at   0.000000,   0.000000,   0.000000 [a0]

Properties computed using the SCF density matrix

  Nuclear Dipole Moment: [e a0]
     X:     0.0000      Y:     0.0000      Z:     0.0000

  Electronic Dipole Moment: [e a0]
     X:     0.0000      Y:     0.0000      Z:     0.0000

  Dipole Moment: [e a0]
     X:     0.0000      Y:     0.0000      Z:     0.0000     Total:     0.0000

  Dipole Moment: [D]
     X:     0.0000      Y:     0.0000      Z:     0.0000     Total:     0.0000


*** tstop() called on n411-011.vsc4.prov at Thu Jan 21 14:04:39 2021
Module time:
	user time   =     130.20 seconds =       2.17 minutes
	system time =       5.35 seconds =       0.09 minutes
	total time  =        123 seconds =       2.05 minutes
Total time:
	user time   =     130.20 seconds =       2.17 minutes
	system time =       5.35 seconds =       0.09 minutes
	total time  =        123 seconds =       2.05 minutes

*** tstart() called on n411-011.vsc4.prov
*** at Thu Jan 21 14:04:40 2021


	Wfn Parameters:
	--------------------
	Wavefunction         = CCSD_T
	Number of irreps     = 8
	Number of MOs        = 198
	Number of active MOs = 193
	AO-Basis             = NONE
	Semicanonical        = false
	Reference            = UHF
	Print Level          = 1

	IRREP	# MOs	# FZDC	# DOCC	# SOCC	# VIRT	# FZVR
	-----	-----	------	------	------	------	------
	 Ag	   43	    2	    1	    0	    40	    0
	 B1g	   21	    0	    0	    0	    21	    0
	 B2g	   21	    0	    0	    0	    21	    0
	 B3g	   21	    0	    0	    0	    21	    0
	 Au	   11	    0	    0	    0	    11	    0
	 B1u	   27	    1	    0	    1	    25	    0
	 B2u	   27	    1	    0	    1	    25	    0
	 B3u	   27	    1	    0	    1	    25	    0
	Transforming integrals...
	IWL integrals will be deleted.
	(OO|OO)...
	Presorting SO-basis two-electron integrals.
	Sorting File: SO Ints (nn|nn) nbuckets = 1
	Constructing frozen core operators
	Starting AA/AB first half-transformation.
	Sorting AA/AB half-transformed integrals.
	Starting BB first half-transformation.
	Sorting BB half-transformed integrals.
	First half integral transformation complete.
	Starting AA second half-transformation.
	Starting AB second half-transformation.
	Starting BB second half-transformation.
	Two-electron integral transformation complete.
	(OO|OV)...
	Starting AA second half-transformation.
	Starting AB second half-transformation.
	Starting BB second half-transformation.
	Two-electron integral transformation complete.
	(OO|VV)...
	Starting AA second half-transformation.
	Starting AB second half-transformation.
	Starting BB second half-transformation.
	Two-electron integral transformation complete.
	(OV|OO)...
	Starting AA/AB first half-transformation.
	Sorting AA/AB half-transformed integrals.
	Starting BB first half-transformation.
	Sorting BB half-transformed integrals.
	First half integral transformation complete.
	Starting AA second half-transformation.
	Starting AB second half-transformation.
	Starting BB second half-transformation.
	Two-electron integral transformation complete.
	(OV|OV)...
	Starting AA second half-transformation.
	Starting AB second half-transformation.
	Starting BB second half-transformation.
	Two-electron integral transformation complete.
	(OV|VV)...
	Starting AA second half-transformation.
	Starting AB second half-transformation.
	Starting BB second half-transformation.
	Two-electron integral transformation complete.
	(VV|OO)...
	Starting AA/AB first half-transformation.
	Sorting AA/AB half-transformed integrals.
	Starting BB first half-transformation.
	Sorting BB half-transformed integrals.
	First half integral transformation complete.
	Starting AA second half-transformation.
	Starting AB second half-transformation.
	Starting BB second half-transformation.
	Two-electron integral transformation complete.
	(VV|OV)...
	Starting AA second half-transformation.
	Starting AB second half-transformation.
	Starting BB second half-transformation.
	Two-electron integral transformation complete.
	(VV|VV)...
	Starting AA second half-transformation.
	Starting AB second half-transformation.
	Starting BB second half-transformation.
	Two-electron integral transformation complete.
	Frozen core energy     =   -334.36251757762733

	Size of irrep 0 of <AB|CD> integrals:      5.593 (MW) /     44.746 (MB)
	Size of irrep 1 of <AB|CD> integrals:      4.757 (MW) /     38.054 (MB)
	Size of irrep 2 of <AB|CD> integrals:      4.757 (MW) /     38.054 (MB)
	Size of irrep 3 of <AB|CD> integrals:      4.757 (MW) /     38.054 (MB)
	Size of irrep 4 of <AB|CD> integrals:      4.060 (MW) /     32.482 (MB)
	Size of irrep 5 of <AB|CD> integrals:      5.203 (MW) /     41.624 (MB)
	Size of irrep 6 of <AB|CD> integrals:      5.203 (MW) /     41.624 (MB)
	Size of irrep 7 of <AB|CD> integrals:      5.203 (MW) /     41.624 (MB)
	Total:                                    39.533 (MW) /    316.261 (MB)

	Size of irrep 0 of <ab|cd> integrals:      5.954 (MW) /     47.629 (MB)
	Size of irrep 1 of <ab|cd> integrals:      5.031 (MW) /     40.248 (MB)
	Size of irrep 2 of <ab|cd> integrals:      5.031 (MW) /     40.248 (MB)
	Size of irrep 3 of <ab|cd> integrals:      5.031 (MW) /     40.248 (MB)
	Size of irrep 4 of <ab|cd> integrals:      4.318 (MW) /     34.545 (MB)
	Size of irrep 5 of <ab|cd> integrals:      5.584 (MW) /     44.670 (MB)
	Size of irrep 6 of <ab|cd> integrals:      5.584 (MW) /     44.670 (MB)
	Size of irrep 7 of <ab|cd> integrals:      5.584 (MW) /     44.670 (MB)
	Total:                                    42.116 (MW) /    336.929 (MB)

	Size of irrep 0 of <Ab|Cd> integrals:     24.940 (MW) /    199.520 (MB)
	Size of irrep 1 of <Ab|Cd> integrals:     19.563 (MW) /    156.503 (MB)
	Size of irrep 2 of <Ab|Cd> integrals:     19.563 (MW) /    156.503 (MB)
	Size of irrep 3 of <Ab|Cd> integrals:     19.563 (MW) /    156.503 (MB)
	Size of irrep 4 of <Ab|Cd> integrals:     16.753 (MW) /    134.021 (MB)
	Size of irrep 5 of <Ab|Cd> integrals:     21.567 (MW) /    172.534 (MB)
	Size of irrep 6 of <Ab|Cd> integrals:     21.567 (MW) /    172.534 (MB)
	Size of irrep 7 of <Ab|Cd> integrals:     21.567 (MW) /    172.534 (MB)
	Total:                                   165.082 (MW) /   1320.653 (MB)

	Size of irrep 0 of <IA|BC> integrals:      0.566 (MW) /      4.525 (MB)
	Size of irrep 1 of <IA|BC> integrals:      0.358 (MW) /      2.861 (MB)
	Size of irrep 2 of <IA|BC> integrals:      0.358 (MW) /      2.861 (MB)
	Size of irrep 3 of <IA|BC> integrals:      0.358 (MW) /      2.861 (MB)
	Size of irrep 4 of <IA|BC> integrals:      0.298 (MW) /      2.386 (MB)
	Size of irrep 5 of <IA|BC> integrals:      0.488 (MW) /      3.905 (MB)
	Size of irrep 6 of <IA|BC> integrals:      0.488 (MW) /      3.905 (MB)
	Size of irrep 7 of <IA|BC> integrals:      0.488 (MW) /      3.905 (MB)
	Total:                                     3.401 (MW) /     27.211 (MB)

	Size of irrep 0 of <ia|bc> integrals:      0.203 (MW) /      1.623 (MB)
	Size of irrep 1 of <ia|bc> integrals:      0.094 (MW) /      0.754 (MB)
	Size of irrep 2 of <ia|bc> integrals:      0.094 (MW) /      0.754 (MB)
	Size of irrep 3 of <ia|bc> integrals:      0.094 (MW) /      0.754 (MB)
	Size of irrep 4 of <ia|bc> integrals:      0.046 (MW) /      0.366 (MB)
	Size of irrep 5 of <ia|bc> integrals:      0.123 (MW) /      0.983 (MB)
	Size of irrep 6 of <ia|bc> integrals:      0.123 (MW) /      0.983 (MB)
	Size of irrep 7 of <ia|bc> integrals:      0.123 (MW) /      0.983 (MB)
	Total:                                     0.900 (MW) /      7.199 (MB)

	Size of irrep 0 of <Ia|Bc> integrals:      0.589 (MW) /      4.714 (MB)
	Size of irrep 1 of <Ia|Bc> integrals:      0.372 (MW) /      2.972 (MB)
	Size of irrep 2 of <Ia|Bc> integrals:      0.372 (MW) /      2.972 (MB)
	Size of irrep 3 of <Ia|Bc> integrals:      0.372 (MW) /      2.972 (MB)
	Size of irrep 4 of <Ia|Bc> integrals:      0.303 (MW) /      2.423 (MB)
	Size of irrep 5 of <Ia|Bc> integrals:      0.502 (MW) /      4.012 (MB)
	Size of irrep 6 of <Ia|Bc> integrals:      0.502 (MW) /      4.012 (MB)
	Size of irrep 7 of <Ia|Bc> integrals:      0.502 (MW) /      4.012 (MB)
	Total:                                     3.511 (MW) /     28.091 (MB)

	Size of irrep 0 of <iA|bC> integrals:      0.200 (MW) /      1.598 (MB)
	Size of irrep 1 of <iA|bC> integrals:      0.093 (MW) /      0.743 (MB)
	Size of irrep 2 of <iA|bC> integrals:      0.093 (MW) /      0.743 (MB)
	Size of irrep 3 of <iA|bC> integrals:      0.093 (MW) /      0.743 (MB)
	Size of irrep 4 of <iA|bC> integrals:      0.045 (MW) /      0.360 (MB)
	Size of irrep 5 of <iA|bC> integrals:      0.116 (MW) /      0.929 (MB)
	Size of irrep 6 of <iA|bC> integrals:      0.116 (MW) /      0.929 (MB)
	Size of irrep 7 of <iA|bC> integrals:      0.116 (MW) /      0.929 (MB)
	Total:                                     0.872 (MW) /      6.974 (MB)

	Size of irrep 0 of tIjAb amplitudes:       0.005 (MW) /      0.040 (MB)
	Size of irrep 1 of tIjAb amplitudes:       0.000 (MW) /      0.000 (MB)
	Size of irrep 2 of tIjAb amplitudes:       0.000 (MW) /      0.000 (MB)
	Size of irrep 3 of tIjAb amplitudes:       0.000 (MW) /      0.000 (MB)
	Size of irrep 4 of tIjAb amplitudes:       0.000 (MW) /      0.000 (MB)
	Size of irrep 5 of tIjAb amplitudes:       0.005 (MW) /      0.037 (MB)
	Size of irrep 6 of tIjAb amplitudes:       0.005 (MW) /      0.037 (MB)
	Size of irrep 7 of tIjAb amplitudes:       0.005 (MW) /      0.037 (MB)
	Total:                                     0.019 (MW) /      0.151 (MB)

	Nuclear Rep. energy          =      0.00000000000000
	SCF energy                   =   -340.71925058836467
	One-electron energy          =    -10.14475729346201
	Two-electron (AA) energy     =      2.05118426365594
	Two-electron (BB) energy     =      0.00000000000000
	Two-electron (AB) energy     =      1.73684001906895
	Two-electron energy          =      3.78802428272489
	Reference energy             =   -340.71925058836445

*** tstop() called on n411-011.vsc4.prov at Thu Jan 21 14:05:49 2021
Module time:
	user time   =      22.16 seconds =       0.37 minutes
	system time =      10.31 seconds =       0.17 minutes
	total time  =         69 seconds =       1.15 minutes
Total time:
	user time   =     152.36 seconds =       2.54 minutes
	system time =      15.66 seconds =       0.26 minutes
	total time  =        193 seconds =       3.22 minutes
            **************************
            *                        *
            *        CCENERGY        *
            *                        *
            **************************

    Nuclear Rep. energy (wfn)     =    0.000000000000000
    SCF energy          (wfn)     = -340.719250588364673
    Reference energy    (file100) = -340.719250588364446

    Input parameters:
    -----------------
    Wave function   =     CCSD_T
    Reference wfn   =     UHF
    Brueckner       =     No
    Memory (Mbytes) =     250000.0
    Maxiter         =     50
    R_Convergence   =     1.0e-07
    E_Convergence   =     1.0e-06
    Restart         =     Yes
    DIIS            =     Yes
    AO Basis        =     NONE
    ABCD            =     NEW
    Cache Level     =     2
    Cache Type      =     LRU
    Print Level     =     1
    Num. of threads =     48
    # Amps to Print =     10
    Print MP2 Amps? =     No
    Analyze T2 Amps =     No
    Print Pair Ener =     No
    Local CC        =     No
    SCS-MP2         =     False
    SCSN-MP2        =     False
    SCS-CCSD        =     False

MP2 correlation energy -0.0932134669648044
                Solving CC Amplitude Equations
                ------------------------------
  Iter             Energy              RMS        T1Diag      D1Diag    New D1Diag    D2Diag
  ----     ---------------------    ---------   ----------  ----------  ----------   --------
     0        -0.093213466964804    0.000e+00    0.000000    0.000000    0.000000    0.000000
     1        -0.103065786483970    4.069e-02    0.005743    0.000000    0.000000    0.000000
     2        -0.106951129160364    1.276e-02    0.007396    0.000000    0.000000    0.000000
     3        -0.107000832140351    2.375e-03    0.007660    0.000000    0.000000    0.000000
     4        -0.107044376142683    6.316e-04    0.007657    0.000000    0.000000    0.000000
     5        -0.107039500952797    1.328e-04    0.007649    0.000000    0.000000    0.000000
     6        -0.107038612306863    2.832e-05    0.007648    0.000000    0.000000    0.000000
     7        -0.107038963834145    1.004e-05    0.007647    0.000000    0.000000    0.000000
     8        -0.107038980385078    2.742e-06    0.007647    0.000000    0.000000    0.000000
     9        -0.107038934369751    5.679e-07    0.007647    0.000000    0.000000    0.000000
    10        -0.107038937411632    1.441e-07    0.007647    0.000000    0.000000    0.000000
    11        -0.107038938736208    3.020e-08    0.007647    0.000000    0.000000    0.000000

    Iterations converged.


    Largest TIA Amplitudes:
              0   3         0.0056925250
              2 143        -0.0041032239
              1 118        -0.0041032238
              3 168        -0.0041032224
              2 140         0.0039769028
              1 115         0.0039769027
              3 165         0.0039768992
              0  11        -0.0038824316
              0   0        -0.0032453438
              2 139        -0.0014855126

    Largest Tia Amplitudes:
              0   3        -0.0080473598
              0   0         0.0075731737
              0  21         0.0014373145
              0  11         0.0012507648
              0  36        -0.0003581573
              0  39        -0.0000000740

    Largest TIJAB Amplitudes:
      2   1  83   5        -0.0324176546
      3   1  62   4        -0.0282609594
      3   2  41   4        -0.0278880676
      2   1  83   1        -0.0178125562
      2   1  82   5        -0.0178125422
      3   2  41   5         0.0165317610
      2   1  86   5        -0.0164759348
      2   1  83  10        -0.0164759259
      2   1  62  41         0.0162099006
      3   2  83  62         0.0162098995

    Largest TIjAb Amplitudes:
      3   0   4 167        -0.0346968936
      3   0   4 166         0.0345975884
      2   0   5 141        -0.0302479456
      2   0   5 140         0.0301613822
      2   0  41 167         0.0300503811
      1   0  62 167         0.0300503811
      2   0  83 115         0.0300503788
      1   0  83 141         0.0300503788
      3   0  62 115         0.0300503783
      3   0  41 141         0.0300503783

    SCF energy       (wfn)                    = -340.719250588364673
    Reference energy (file100)                = -340.719250588364446

    Opposite-spin MP2 correlation energy      =   -0.068847309557842
    Same-spin MP2 correlation energy          =   -0.024366157406963
    Singles MP2 correlation energy            =   -0.000000000000000
    MP2 correlation energy                    =   -0.093213466964804
      * MP2 total energy                      = -340.812464055329258

    Opposite-spin CCSD correlation energy     =   -0.080551545823591
    Same-spin CCSD correlation energy         =   -0.026487392912615
    Singles CCSD correlation energy           =   -0.000000000000002
    CCSD correlation energy                   =   -0.107038938736208
      * CCSD total energy                     = -340.826289527100641

            **************************
            *                        *
            *        CCTRIPLES       *
            *                        *
            **************************


    Wave function   =    CCSD_T
    Reference wfn   =      UHF

    Nuclear Rep. energy (wfn)                =    0.000000000000000
    SCF energy          (wfn)                = -340.719250588364673
    Reference energy    (file100)            = -340.719250588364446
    CCSD energy         (file100)            =   -0.107038938736208
    Total CCSD energy   (file100)            = -340.826289527100641

    Number of ijk index combinations:
    Spin Case AAA:                                   4
    Spin Case BBB:                                   0
    Spin Case AAB:                                   6
    Spin Case ABB:                                   0
    AAA (T) energy                             =   -0.000378856065781
    BBB (T) energy                             =    0.000000000000000
    AAB (T) energy                             =   -0.004511800033773
    ABB (T) energy                             =    0.000000000000000
    (T) energy                                   =   -0.004890656099554
      * CCSD(T) total energy                     = -340.831180183200217


    Psi4 stopped on: Thursday, 21 January 2021 02:06PM
    Psi4 wall time for execution: 0:04:00.55

*** Psi4 exiting successfully. Buy a developer a beer!
