
    -----------------------------------------------------------------------
          Psi4: An Open-Source Ab Initio Electronic Structure Package
                               Psi4 1.4a3.dev88 

                         Git: Rev {master} 262e345 


    D. G. A. Smith, L. A. Burns, A. C. Simmonett, R. M. Parrish,
    M. C. Schieber, R. Galvelis, P. Kraus, H. Kruse, R. Di Remigio,
    A. Alenaizan, A. M. James, S. Lehtola, J. P. Misiewicz, M. Scheurer,
    R. A. Shaw, J. B. Schriber, Y. Xie, Z. L. Glick, D. A. Sirianni,
    J. S. O'Brien, J. M. Waldrop, A. Kumar, E. G. Hohenstein,
    B. P. Pritchard, B. R. Brooks, H. F. Schaefer III, A. Yu. Sokolov,
    K. Patkowski, A. E. DePrince III, U. Bozkaya, R. A. King,
    F. A. Evangelista, J. M. Turney, T. D. Crawford, C. D. Sherrill,
    J. Chem. Phys. 152(18) 184108 (2020). https://doi.org/10.1063/5.0006002

                            Additional Code Authors
    E. T. Seidl, C. L. Janssen, E. F. Valeev, M. L. Leininger,
    J. F. Gonthier, R. M. Richard, H. R. McAlexander, M. Saitow, X. Wang,
    P. Verma, and M. H. Lechner

             Previous Authors, Complete List of Code Contributors,
                       and Citations for Specific Modules
    https://github.com/psi4/psi4/blob/master/codemeta.json
    https://github.com/psi4/psi4/graphs/contributors
    http://psicode.org/psi4manual/master/introduction.html#citing-psifour

    -----------------------------------------------------------------------


    Psi4 started on: Wednesday, 20 January 2021 06:56PM

    Process ID: 178192
    Host:       n412-037.vsc4.prov
    PSIDATADIR: /home/fs71337/gallo4/psi4/psi4/build/stage/share/psi4
    Memory:     500.0 MiB
    Threads:    48
    
  ==> Input File <==

--------------------------------------------------------------------------
# Any line starting with the # character is a comment line
memory 250000 mb
molecule molecule{
1 2
Cl         0.0000000000        0.0000000000        0.5316695235
F          0.0000000000        0.0000000000       -0.9921507411
}

set {
  reference uhf
  basis aug-cc-pv(q+d)z
  scf_type OUT_OF_CORE
  freeze_core true
}

energy('ccsd(t)')
--------------------------------------------------------------------------

  Memory set to 232.831 GiB by Python driver.

Scratch directory: /binfl/lv71337/airmler/temp/

*** tstart() called on n412-037.vsc4.prov
*** at Wed Jan 20 18:56:57 2021

   => Loading Basis Set <=

    Name: AUG-CC-PV(Q+D)Z
    Role: ORBITAL
    Keyword: BASIS
    atoms 1 entry CL         line  1262 file /home/fs71337/gallo4/psi4/psi4/build/stage/share/psi4/basis/aug-cc-pv_qpd_z.gbs 
    atoms 2 entry F          line   511 file /home/fs71337/gallo4/psi4/psi4/build/stage/share/psi4/basis/aug-cc-pv_qpd_z.gbs 


         ---------------------------------------------------------
                                   SCF
               by Justin Turney, Rob Parrish, Andy Simmonett
                          and Daniel G. A. Smith
                              UHF Reference
                       48 Threads, 238418 MiB Core
         ---------------------------------------------------------

  ==> Geometry <==

    Molecular point group: c2v
    Full point group: C_inf_v

    Geometry (in Angstrom), charge = 1, multiplicity = 2:

       Center              X                  Y                   Z               Mass       
    ------------   -----------------  -----------------  -----------------  -----------------
         CL           0.000000000000     0.000000000000     0.536439203388    34.968852682000
         F            0.000000000000     0.000000000000    -0.987381061212    18.998403162730

  Running in c2v symmetry.

  Rotational constants: A = ************  B =      0.58974  C =      0.58974 [cm^-1]
  Rotational constants: A = ************  B =  17679.97156  C =  17679.97156 [MHz]
  Nuclear repulsion =   53.132324798005577

  Charge       = 1
  Multiplicity = 2
  Electrons    = 25
  Nalpha       = 13
  Nbeta        = 12

  ==> Algorithm <==

  SCF Algorithm Type is OUT_OF_CORE.
  DIIS enabled.
  MOM disabled.
  Fractional occupation disabled.
  Guess Type is SAD.
  Energy threshold   = 1.00e-08
  Density threshold  = 1.00e-08
  Integral threshold = 1.00e-12

  ==> Primary Basis <==

  Basis Set: AUG-CC-PV(Q+D)Z
    Blend: AUG-CC-PV(Q+D)Z
    Number of shells: 43
    Number of basis function: 169
    Number of Cartesian functions: 220
    Spherical Harmonics?: true
    Max angular momentum: 4

  ==> Integral Setup <==

  ==> DiskJK: Disk-Based J/K Matrices <==

    J tasked:                  Yes
    K tasked:                  Yes
    wK tasked:                  No
    Memory [MiB]:           178813
    Schwarz Cutoff:          1E-12

  Minimum eigenvalue in the overlap matrix is 2.2417616695E-04.
  Reciprocal condition number of the overlap matrix is 4.0910547050E-05.
    Using symmetric orthogonalization.

  ==> Pre-Iterations <==

  SCF Guess: Superposition of Atomic Densities via on-the-fly atomic UHF (no occupation information).


 WARNING: Atomic UHF is not converging! Try casting from a smaller basis or call Rob at CCMST.

 WARNING: Atomic UHF is not converging! Try casting from a smaller basis or call Rob at CCMST.
   -------------------------
    Irrep   Nso     Nmo    
   -------------------------
     A1        66      66 
     A2        23      23 
     B1        40      40 
     B2        40      40 
   -------------------------
    Total     169     169
   -------------------------

  ==> Iterations <==

                        Total Energy        Delta E     RMS |[F,P]|

   @UHF iter SAD:  -395.27922100477724   -3.95279e+02   0.00000e+00 
    Occupation by irrep:
             A1    A2    B1    B2 
    DOCC [     8,    0,    2,    2 ]
    SOCC [     0,    0,    1,    0 ]

   @UHF iter   1:  -555.47000706934557   -1.60191e+02   3.22708e-02 DIIS
    Occupation by irrep:
             A1    A2    B1    B2 
    DOCC [     7,    0,    2,    3 ]
    SOCC [     0,    0,    1,    0 ]

   @UHF iter   2:  -546.68377566216213    8.78623e+00   4.12958e-02 DIIS
   @UHF iter   3:  -557.71320367138162   -1.10294e+01   1.49761e-02 DIIS
   @UHF iter   4:  -558.39639207411187   -6.83188e-01   4.44074e-03 DIIS
   @UHF iter   5:  -558.48394906772376   -8.75570e-02   7.28719e-04 DIIS
   @UHF iter   6:  -558.48668490491207   -2.73584e-03   4.44669e-04 DIIS
   @UHF iter   7:  -558.48729864544407   -6.13741e-04   1.16953e-04 DIIS
   @UHF iter   8:  -558.48738350019892   -8.48548e-05   2.76317e-05 DIIS
   @UHF iter   9:  -558.48739016937702   -6.66918e-06   1.29019e-05 DIIS
   @UHF iter  10:  -558.48739283096040   -2.66158e-06   7.60493e-06 DIIS
   @UHF iter  11:  -558.48739414807358   -1.31711e-06   3.94728e-06 DIIS
   @UHF iter  12:  -558.48739466433096   -5.16257e-07   1.57208e-06 DIIS
   @UHF iter  13:  -558.48739471699128   -5.26603e-08   7.16377e-07 DIIS
   @UHF iter  14:  -558.48739472921079   -1.22195e-08   3.30653e-07 DIIS
   @UHF iter  15:  -558.48739473204296   -2.83217e-09   1.07876e-07 DIIS
   @UHF iter  16:  -558.48739473226055   -2.17597e-10   2.86545e-08 DIIS
   @UHF iter  17:  -558.48739473227192   -1.13687e-11   6.79323e-09 DIIS
  Energy and wave function converged.


  ==> Post-Iterations <==

   @Spin Contamination Metric:   1.484670113E-02
   @S^2 Expected:                7.500000000E-01
   @S^2 Observed:                7.648467011E-01
   @S   Expected:                5.000000000E-01
   @S   Observed:                5.000000000E-01

    Orbital Energies [Eh]
    ---------------------

    Alpha Occupied:                                                       

       1A1  -105.389208     2A1   -26.730537     3A1   -11.098510  
       1B1    -8.583072     4A1    -8.560680     1B2    -8.557342  
       5A1    -2.046762     6A1    -1.522227     2B1    -1.131706  
       2B2    -1.103687     7A1    -1.090544     3B1    -0.929668  
       3B2    -0.862885  

    Alpha Virtual:                                                        

       8A1    -0.250799     9A1    -0.115519     4B1    -0.080415  
       4B2    -0.074069    10A1    -0.059008    11A1    -0.006921  
       1A2    -0.006344    12A1     0.005947     5B1     0.015244  
       5B2     0.021692     6B1     0.084092     6B2     0.097419  
      13A1     0.131920    14A1     0.144223     7B1     0.191634  
       7B2     0.208792    15A1     0.221420    16A1     0.278229  
       2A2     0.278282     8B1     0.315263     8B2     0.342246  
      17A1     0.376104    18A1     0.420143     3A2     0.420344  
      19A1     0.512005     9B1     0.524194     9B2     0.524214  
      10B1     0.569338    10B2     0.574461    20A1     0.645412  
      11B1     0.655149    11B2     0.669293    21A1     0.689097  
       4A2     0.689223    22A1     0.749123    12B1     0.843962  
      12B2     0.859134    23A1     0.898695    24A1     1.152036  
       5A2     1.188839    25A1     1.192582    13B1     1.243581  
      13B2     1.281600    26A1     1.286112    14B1     1.419497  
      14B2     1.419654     6A2     1.455967    27A1     1.456395  
      15B1     1.476459    15B2     1.507383     7A2     1.513835  
      28A1     1.513837    16B1     1.525493    16B2     1.548454  
      17B1     1.655826    17B2     1.655941    29A1     1.734808  
       8A2     1.742912    30A1     1.766976    18B1     1.857736  
      18B2     1.857815    31A1     1.859786     9A2     1.886896  
      19B1     1.888417    32A1     1.888540    19B2     1.913994  
      33A1     2.098054    20B1     2.206983    20B2     2.221236  
      34A1     2.243558    10A2     2.371020    35A1     2.372041  
      36A1     2.570717    21B1     2.579524    21B2     2.591911  
      37A1     2.818492    22B1     3.279256    38A1     3.283688  
      11A2     3.287083    22B2     3.307197    39A1     3.355807  
      23B1     3.679026    23B2     3.709079    40A1     3.995557  
      24B1     3.996740    24B2     4.026761    12A2     4.031621  
      41A1     4.040097    25B1     4.196743    25B2     4.196770  
      26B1     4.227686    26B2     4.227819    13A2     4.262909  
      42A1     4.262913    43A1     4.305253    14A2     4.307669  
      44A1     4.398754    15A2     4.398754    45A1     4.459175  
      27B1     4.597405    27B2     4.597991    28B1     4.623211  
      28B2     4.653836    46A1     5.033832    29B1     5.213900  
      47A1     5.223783    16A2     5.224435    30B1     5.232672  
      29B2     5.232673    30B2     5.239780    48A1     5.286331  
      49A1     5.457825    17A2     5.514348    50A1     5.514659  
      31B1     5.623929    18A2     5.634888    51A1     5.635019  
      31B2     5.648399    52A1     5.776340    32B1     6.182533  
      32B2     6.204310    33B1     6.748708    33B2     6.772162  
      53A1     6.864346    54A1     7.971443    55A1    10.878695  
      19A2    10.879075    34B1    11.042866    34B2    11.070792  
      56A1    11.420172    35B1    13.011749    35B2    13.025938  
      57A1    13.288793    20A2    13.288793    36B1    13.338739  
      36B2    13.338739    58A1    13.561436    21A2    13.561746  
      59A1    13.673179    37B1    13.695308    37B2    13.704940  
      60A1    14.416637    38B1    15.481488    38B2    15.481489  
      61A1    15.619051    22A2    15.619075    39B1    15.797327  
      39B2    15.808998    62A1    16.110142    63A1    16.410282  
      23A2    16.410327    40B1    16.926655    40B2    16.938883  
      64A1    17.045025    65A1    25.192814    66A1    54.554123  

    Beta Occupied:                                                        

       1A1  -105.377070     2A1   -26.721878     3A1   -11.086003  
       4A1    -8.555214     1B2    -8.550922     1B1    -8.530222  
       5A1    -2.022080     6A1    -1.420009     2B2    -1.094382  
       7A1    -1.069950     2B1    -1.028848     3B2    -0.843331  

    Beta Virtual:                                                         

       3B1    -0.383973     8A1    -0.227996     9A1    -0.112783  
       4B2    -0.073506     4B1    -0.071646    10A1    -0.056959  
      11A1     0.006639     1A2     0.015278    12A1     0.016213  
       5B2     0.021959     5B1     0.023124     6B2     0.097841  
       6B1     0.104198    13A1     0.132991    14A1     0.147891  
       7B2     0.210889     7B1     0.221364    15A1     0.224302  
       2A2     0.325495    16A1     0.325979     8B2     0.343484  
       8B1     0.364159    17A1     0.382113     3A2     0.424568  
      18A1     0.425007    19A1     0.524277     9B2     0.531749  
       9B1     0.531756    10B2     0.575391    10B1     0.579898  
      20A1     0.649431    11B1     0.664813    11B2     0.669473  
       4A2     0.693310    21A1     0.693458    22A1     0.753278  
      12B1     0.858934    12B2     0.861146    23A1     0.910418  
      24A1     1.161717     5A2     1.225433    25A1     1.225620  
      13B2     1.283891    26A1     1.288544    13B1     1.289429  
      14B2     1.422954    14B1     1.422985     6A2     1.462515  
      27A1     1.462815    15B2     1.511849    15B1     1.512692  
       7A2     1.523182    28A1     1.523182    16B1     1.546982  
      16B2     1.550646    17B1     1.687185    17B2     1.687187  
      29A1     1.753583     8A2     1.755890    30A1     1.767550  
      18B1     1.860735    18B2     1.860743    31A1     1.868188  
       9A2     1.894230    32A1     1.894446    19B1     1.907367  
      19B2     1.914880    33A1     2.104860    20B1     2.216784  
      20B2     2.222200    34A1     2.249036    10A2     2.376022  
      35A1     2.376480    36A1     2.588462    21B1     2.589999  
      21B2     2.593022    37A1     2.826052    22B1     3.301050  
      38A1     3.304741    11A2     3.306121    22B2     3.309487  
      39A1     3.360100    23B1     3.702256    23B2     3.712675  
      40A1     4.011723    24B1     4.017721    24B2     4.030109  
      12A2     4.043332    41A1     4.045779    25B1     4.213714  
      25B2     4.213717    26B1     4.260155    26B2     4.260156  
      42A1     4.290481    13A2     4.290481    43A1     4.328095  
      14A2     4.328606    44A1     4.399825    15A2     4.399825  
      45A1     4.466885    27B1     4.603580    27B2     4.603633  
      28B1     4.639277    28B2     4.653740    46A1     5.038866  
      47A1     5.232438    16A2     5.232681    29B1     5.237484  
      29B2     5.237690    30B1     5.237699    30B2     5.242551  
      48A1     5.288920    49A1     5.462102    17A2     5.521341  
      50A1     5.521435    31B1     5.644467    18A2     5.644773  
      51A1     5.644878    31B2     5.650746    52A1     5.780534  
      32B1     6.203132    32B2     6.207400    33B1     6.765811  
      33B2     6.774792    53A1     6.871353    54A1     7.976313  
      55A1    10.894139    19A2    10.894263    34B1    11.058214  
      34B2    11.072997    56A1    11.427091    35B2    13.029687  
      35B1    13.031405    57A1    13.294384    20A2    13.294384  
      36B1    13.342746    36B2    13.342746    58A1    13.564623  
      21A2    13.564760    59A1    13.675272    37B1    13.699891  
      37B2    13.705774    60A1    14.420732    38B1    15.492392  
      38B2    15.492392    61A1    15.626440    22A2    15.626441  
      39B1    15.806093    39B2    15.810881    62A1    16.113743  
      23A2    16.424352    63A1    16.424355    40B1    16.939405  
      40B2    16.941365    64A1    17.050271    65A1    25.205814  
      66A1    54.559241  

    Final Occupation by Irrep:
             A1    A2    B1    B2 
    DOCC [     7,    0,    2,    3 ]
    SOCC [     0,    0,    1,    0 ]

  @UHF Final Energy:  -558.48739473227192

   => Energetics <=

    Nuclear Repulsion Energy =             53.1323247980055768
    One-Electron Energy =                -869.3327040810597737
    Two-Electron Energy =                 257.7129845507822665
    Total Energy =                       -558.4873947322719232

  UHF NO Occupations:
  HONO-2 :    2 B1 1.9987242
  HONO-1 :    7 A1 1.9943138
  HONO-0 :    3 B1 1.0000000
  LUNO+0 :    8 A1 0.0056862
  LUNO+1 :    4 B1 0.0012758
  LUNO+2 :    4 B2 0.0003346
  LUNO+3 :    9 A1 0.0001019


Computation Completed


Properties will be evaluated at   0.000000,   0.000000,   0.000000 [a0]

Properties computed using the SCF density matrix

  Nuclear Dipole Moment: [e a0]
     X:     0.0000      Y:     0.0000      Z:     0.4404

  Electronic Dipole Moment: [e a0]
     X:     0.0000      Y:     0.0000      Z:     0.4395

  Dipole Moment: [e a0]
     X:     0.0000      Y:     0.0000      Z:     0.8798     Total:     0.8798

  Dipole Moment: [D]
     X:     0.0000      Y:     0.0000      Z:     2.2363     Total:     2.2363


*** tstop() called on n412-037.vsc4.prov at Wed Jan 20 18:57:38 2021
Module time:
	user time   =      94.28 seconds =       1.57 minutes
	system time =       4.02 seconds =       0.07 minutes
	total time  =         41 seconds =       0.68 minutes
Total time:
	user time   =      94.28 seconds =       1.57 minutes
	system time =       4.02 seconds =       0.07 minutes
	total time  =         41 seconds =       0.68 minutes

*** tstart() called on n412-037.vsc4.prov
*** at Wed Jan 20 18:57:38 2021


	Wfn Parameters:
	--------------------
	Wavefunction         = CCSD_T
	Number of irreps     = 4
	Number of MOs        = 169
	Number of active MOs = 163
	AO-Basis             = NONE
	Semicanonical        = false
	Reference            = UHF
	Print Level          = 1

	IRREP	# MOs	# FZDC	# DOCC	# SOCC	# VIRT	# FZVR
	-----	-----	------	------	------	------	------
	 A1	   66	    4	    3	    0	    59	    0
	 A2	   23	    0	    0	    0	    23	    0
	 B1	   40	    1	    1	    1	    37	    0
	 B2	   40	    1	    2	    0	    37	    0
	Transforming integrals...
	IWL integrals will be deleted.
	(OO|OO)...
	Presorting SO-basis two-electron integrals.
	Sorting File: SO Ints (nn|nn) nbuckets = 1
	Constructing frozen core operators
	Starting AA/AB first half-transformation.
	Sorting AA/AB half-transformed integrals.
	Starting BB first half-transformation.
	Sorting BB half-transformed integrals.
	First half integral transformation complete.
	Starting AA second half-transformation.
	Starting AB second half-transformation.
	Starting BB second half-transformation.
	Two-electron integral transformation complete.
	(OO|OV)...
	Starting AA second half-transformation.
	Starting AB second half-transformation.
	Starting BB second half-transformation.
	Two-electron integral transformation complete.
	(OO|VV)...
	Starting AA second half-transformation.
	Starting AB second half-transformation.
	Starting BB second half-transformation.
	Two-electron integral transformation complete.
	(OV|OO)...
	Starting AA/AB first half-transformation.
	Sorting AA/AB half-transformed integrals.
	Starting BB first half-transformation.
	Sorting BB half-transformed integrals.
	First half integral transformation complete.
	Starting AA second half-transformation.
	Starting AB second half-transformation.
	Starting BB second half-transformation.
	Two-electron integral transformation complete.
	(OV|OV)...
	Starting AA second half-transformation.
	Starting AB second half-transformation.
	Starting BB second half-transformation.
	Two-electron integral transformation complete.
	(OV|VV)...
	Starting AA second half-transformation.
	Starting AB second half-transformation.
	Starting BB second half-transformation.
	Two-electron integral transformation complete.
	(VV|OO)...
	Starting AA/AB first half-transformation.
	Sorting AA/AB half-transformed integrals.
	Starting BB first half-transformation.
	Sorting BB half-transformed integrals.
	First half integral transformation complete.
	Starting AA second half-transformation.
	Starting AB second half-transformation.
	Starting BB second half-transformation.
	Two-electron integral transformation complete.
	(VV|OV)...
	Starting AA second half-transformation.
	Starting AB second half-transformation.
	Starting BB second half-transformation.
	Two-electron integral transformation complete.
	(VV|VV)...
	Starting AA second half-transformation.
	Starting AB second half-transformation.
	Starting BB second half-transformation.
	Two-electron integral transformation complete.
	Frozen core energy     =   -556.34764526746130

	Size of irrep 0 of <AB|CD> integrals:     10.864 (MW) /     86.909 (MB)
	Size of irrep 1 of <AB|CD> integrals:      7.431 (MW) /     59.449 (MB)
	Size of irrep 2 of <AB|CD> integrals:      9.205 (MW) /     73.641 (MB)
	Size of irrep 3 of <AB|CD> integrals:      9.205 (MW) /     73.641 (MB)
	Total:                                    36.705 (MW) /    293.640 (MB)

	Size of irrep 0 of <ab|cd> integrals:     11.109 (MW) /     88.871 (MB)
	Size of irrep 1 of <ab|cd> integrals:      7.634 (MW) /     61.073 (MB)
	Size of irrep 2 of <ab|cd> integrals:      9.567 (MW) /     76.533 (MB)
	Size of irrep 3 of <ab|cd> integrals:      9.345 (MW) /     74.762 (MB)
	Total:                                    37.655 (MW) /    301.240 (MB)

	Size of irrep 0 of <Ab|Cd> integrals:     46.036 (MW) /    368.290 (MB)
	Size of irrep 1 of <Ab|Cd> integrals:     30.129 (MW) /    241.033 (MB)
	Size of irrep 2 of <Ab|Cd> integrals:     37.540 (MW) /    300.321 (MB)
	Size of irrep 3 of <Ab|Cd> integrals:     37.100 (MW) /    296.802 (MB)
	Total:                                   150.806 (MW) /   1206.446 (MB)

	Size of irrep 0 of <IA|BC> integrals:      2.193 (MW) /     17.545 (MB)
	Size of irrep 1 of <IA|BC> integrals:      1.183 (MW) /      9.465 (MB)
	Size of irrep 2 of <IA|BC> integrals:      1.669 (MW) /     13.350 (MB)
	Size of irrep 3 of <IA|BC> integrals:      1.669 (MW) /     13.350 (MB)
	Total:                                     6.714 (MW) /     53.709 (MB)

	Size of irrep 0 of <ia|bc> integrals:      1.972 (MW) /     15.775 (MB)
	Size of irrep 1 of <ia|bc> integrals:      1.006 (MW) /      8.046 (MB)
	Size of irrep 2 of <ia|bc> integrals:      1.355 (MW) /     10.838 (MB)
	Size of irrep 3 of <ia|bc> integrals:      1.541 (MW) /     12.326 (MB)
	Total:                                     5.873 (MW) /     46.984 (MB)

	Size of irrep 0 of <Ia|Bc> integrals:      2.219 (MW) /     17.750 (MB)
	Size of irrep 1 of <Ia|Bc> integrals:      1.202 (MW) /      9.617 (MB)
	Size of irrep 2 of <Ia|Bc> integrals:      1.703 (MW) /     13.626 (MB)
	Size of irrep 3 of <Ia|Bc> integrals:      1.675 (MW) /     13.400 (MB)
	Total:                                     6.799 (MW) /     54.393 (MB)

	Size of irrep 0 of <iA|bC> integrals:      1.954 (MW) /     15.633 (MB)
	Size of irrep 1 of <iA|bC> integrals:      0.988 (MW) /      7.904 (MB)
	Size of irrep 2 of <iA|bC> integrals:      1.323 (MW) /     10.587 (MB)
	Size of irrep 3 of <iA|bC> integrals:      1.535 (MW) /     12.279 (MB)
	Total:                                     5.800 (MW) /     46.404 (MB)

	Size of irrep 0 of tIjAb amplitudes:       0.102 (MW) /      0.814 (MB)
	Size of irrep 1 of tIjAb amplitudes:       0.033 (MW) /      0.263 (MB)
	Size of irrep 2 of tIjAb amplitudes:       0.055 (MW) /      0.441 (MB)
	Size of irrep 3 of tIjAb amplitudes:       0.073 (MW) /      0.585 (MB)
	Total:                                     0.263 (MW) /      2.104 (MB)

	Nuclear Rep. energy          =     53.13232479800558
	SCF energy                   =   -558.48739473227192
	One-electron energy          =    -94.37807042032590
	Two-electron (AA) energy     =      9.38828663565211
	Two-electron (BB) energy     =      6.99456085068048
	Two-electron (AB) energy     =     22.72314867117884
	Two-electron energy          =     39.10599615751143
	Reference energy             =   -558.48739473227022

*** tstop() called on n412-037.vsc4.prov at Wed Jan 20 18:58:45 2021
Module time:
	user time   =      22.56 seconds =       0.38 minutes
	system time =       9.58 seconds =       0.16 minutes
	total time  =         67 seconds =       1.12 minutes
Total time:
	user time   =     116.84 seconds =       1.95 minutes
	system time =      13.60 seconds =       0.23 minutes
	total time  =        108 seconds =       1.80 minutes
            **************************
            *                        *
            *        CCENERGY        *
            *                        *
            **************************

    Nuclear Rep. energy (wfn)     =   53.132324798005577
    SCF energy          (wfn)     = -558.487394732271923
    Reference energy    (file100) = -558.487394732270218

    Input parameters:
    -----------------
    Wave function   =     CCSD_T
    Reference wfn   =     UHF
    Brueckner       =     No
    Memory (Mbytes) =     250000.0
    Maxiter         =     50
    R_Convergence   =     1.0e-07
    E_Convergence   =     1.0e-06
    Restart         =     Yes
    DIIS            =     Yes
    AO Basis        =     NONE
    ABCD            =     NEW
    Cache Level     =     2
    Cache Type      =     LRU
    Print Level     =     1
    Num. of threads =     48
    # Amps to Print =     10
    Print MP2 Amps? =     No
    Analyze T2 Amps =     No
    Print Pair Ener =     No
    Local CC        =     No
    SCS-MP2         =     False
    SCSN-MP2        =     False
    SCS-CCSD        =     False

MP2 correlation energy -0.4571025753444753
                Solving CC Amplitude Equations
                ------------------------------
  Iter             Energy              RMS        T1Diag      D1Diag    New D1Diag    D2Diag
  ----     ---------------------    ---------   ----------  ----------  ----------   --------
     0        -0.457102575344475    0.000e+00    0.000000    0.000000    0.000000    0.000000
     1        -0.456342152627106    9.661e-02    0.022192    0.000000    0.000000    0.000000
     2        -0.469528270064642    3.399e-02    0.022153    0.000000    0.000000    0.000000
     3        -0.474020899587286    2.501e-02    0.029524    0.000000    0.000000    0.000000
     4        -0.473727261713504    1.160e-02    0.034276    0.000000    0.000000    0.000000
     5        -0.473959518403538    6.816e-03    0.038637    0.000000    0.000000    0.000000
     6        -0.474055738286577    1.810e-03    0.039543    0.000000    0.000000    0.000000
     7        -0.474052731550214    5.638e-04    0.039748    0.000000    0.000000    0.000000
     8        -0.474058116099695    2.012e-04    0.039746    0.000000    0.000000    0.000000
     9        -0.474059277807705    8.087e-05    0.039768    0.000000    0.000000    0.000000
    10        -0.474056425843259    3.036e-05    0.039763    0.000000    0.000000    0.000000
    11        -0.474057405871893    1.225e-05    0.039763    0.000000    0.000000    0.000000
    12        -0.474057255014166    5.495e-06    0.039765    0.000000    0.000000    0.000000
    13        -0.474057469709505    2.313e-06    0.039764    0.000000    0.000000    0.000000
    14        -0.474057552348407    6.490e-07    0.039764    0.000000    0.000000    0.000000
    15        -0.474057516250141    2.253e-07    0.039764    0.000000    0.000000    0.000000
    16        -0.474057519434741    8.929e-08    0.039764    0.000000    0.000000    0.000000

    Iterations converged.


    Largest TIA Amplitudes:
              2   0        -0.0152513685
              2  11        -0.0124830803
              3  83        -0.0118121487
              3  86         0.0116468134
              5 120        -0.0101179455
              5 123         0.0097628119
              3  84        -0.0096823278
              5 121        -0.0087090233
              2  15         0.0082172320
              2  16         0.0079036472

    Largest Tia Amplitudes:
              3  82        -0.1281888767
              1   0         0.0182460298
              3  86        -0.0137870688
              3  83         0.0132630705
              1   8        -0.0126868844
              4 124         0.0111065645
              1   4         0.0107591849
              4 121        -0.0104275911
              4 122        -0.0099356110
              3  85        -0.0094352906

    Largest TIJAB Amplitudes:
      6   2 123   0         0.0202987938
      4   2  86   0        -0.0195448293
      6   4  60   8         0.0176569129
      6   4  59   8         0.0152808520
      6   4  60   3        -0.0144111943
      4   2  84   0         0.0138782673
      6   2 121   0        -0.0136598932
      6   4  59   3        -0.0133485509
      4   2  83   0         0.0115664862
      6   4 123  86         0.0103691307

    Largest Tijab Amplitudes:
      3   2  82   0        -0.0438605268
      5   2 124   0         0.0200764482
      3   2  82   2        -0.0153215007
      3   2  82   6        -0.0145832183
      5   3 124  82         0.0137218050
      5   2 122   0        -0.0136881395
      3   2  82  11         0.0125891346
      3   2  82  15        -0.0121535704
      5   1  82  60         0.0117304170
      3   2  82   7        -0.0095090094

    Largest TIjAb Amplitudes:
      2   2   0   0        -0.0694704274
      2   3   0  82        -0.0504447088
      6   5   0   0        -0.0342858287
      6   1  60  82        -0.0256463424
      4   1   8  82         0.0248262905
      2   2   0   2        -0.0245029806
      1   1   0   0        -0.0235557802
      6   1  59  82        -0.0217370579
      6   5 123 124        -0.0215419134
      2   2   2   0        -0.0215078532

    SCF energy       (wfn)                    = -558.487394732271923
    Reference energy (file100)                = -558.487394732270218

    Opposite-spin MP2 correlation energy      =   -0.345718222414438
    Same-spin MP2 correlation energy          =   -0.111384352930037
    Singles MP2 correlation energy            =   -0.000000000000000
    MP2 correlation energy                    =   -0.457102575344475
      * MP2 total energy                      = -558.944497307614711

    Opposite-spin CCSD correlation energy     =   -0.371242325593161
    Same-spin CCSD correlation energy         =   -0.102815193841580
    Singles CCSD correlation energy           =   -0.000000000000001
    CCSD correlation energy                   =   -0.474057519434741
      * CCSD total energy                     = -558.961452251704941

            **************************
            *                        *
            *        CCTRIPLES       *
            *                        *
            **************************


    Wave function   =    CCSD_T
    Reference wfn   =      UHF

    Nuclear Rep. energy (wfn)                =   53.132324798005577
    SCF energy          (wfn)                = -558.487394732271923
    Reference energy    (file100)            = -558.487394732270218
    CCSD energy         (file100)            =   -0.474057519434741
    Total CCSD energy   (file100)            = -558.961452251704941

    Number of ijk index combinations:
    Spin Case AAA:                                  35
    Spin Case BBB:                                  20
    Spin Case AAB:                                 126
    Spin Case ABB:                                 105
    AAA (T) energy                             =   -0.000476512359957
    BBB (T) energy                             =   -0.000541289742531
    AAB (T) energy                             =   -0.009800444126574
    ABB (T) energy                             =   -0.009268559224587
    (T) energy                                   =   -0.020086805453651
      * CCSD(T) total energy                     = -558.981539057158557


    Psi4 stopped on: Wednesday, 20 January 2021 07:01PM
    Psi4 wall time for execution: 0:04:02.41

*** Psi4 exiting successfully. Buy a developer a beer!
