
    -----------------------------------------------------------------------
          Psi4: An Open-Source Ab Initio Electronic Structure Package
                               Psi4 1.4a3.dev88 

                         Git: Rev {master} 262e345 


    D. G. A. Smith, L. A. Burns, A. C. Simmonett, R. M. Parrish,
    M. C. Schieber, R. Galvelis, P. Kraus, H. Kruse, R. Di Remigio,
    A. Alenaizan, A. M. James, S. Lehtola, J. P. Misiewicz, M. Scheurer,
    R. A. Shaw, J. B. Schriber, Y. Xie, Z. L. Glick, D. A. Sirianni,
    J. S. O'Brien, J. M. Waldrop, A. Kumar, E. G. Hohenstein,
    B. P. Pritchard, B. R. Brooks, H. F. Schaefer III, A. Yu. Sokolov,
    K. Patkowski, A. E. DePrince III, U. Bozkaya, R. A. King,
    F. A. Evangelista, J. M. Turney, T. D. Crawford, C. D. Sherrill,
    J. Chem. Phys. 152(18) 184108 (2020). https://doi.org/10.1063/5.0006002

                            Additional Code Authors
    E. T. Seidl, C. L. Janssen, E. F. Valeev, M. L. Leininger,
    J. F. Gonthier, R. M. Richard, H. R. McAlexander, M. Saitow, X. Wang,
    P. Verma, and M. H. Lechner

             Previous Authors, Complete List of Code Contributors,
                       and Citations for Specific Modules
    https://github.com/psi4/psi4/blob/master/codemeta.json
    https://github.com/psi4/psi4/graphs/contributors
    http://psicode.org/psi4manual/master/introduction.html#citing-psifour

    -----------------------------------------------------------------------


    Psi4 started on: Tuesday, 26 January 2021 06:13PM

    Process ID: 398099
    Host:       n412-039.vsc4.prov
    PSIDATADIR: /home/fs71337/gallo4/psi4/eri-6/psi4/build/stage/share/psi4
    Memory:     500.0 MiB
    Threads:    48
    
  ==> Input File <==

--------------------------------------------------------------------------
# Any line starting with the # character is a comment line
memory 250000 mb
molecule molecule{
1 3
F          0.0000000000        0.0000000000        0.0000000000
}

set {
  reference uhf
  basis aug-cc-pV(d+d)Z
  scf_type OUT_OF_CORE
  freeze_core true
}

energy('ccsd(t)')
--------------------------------------------------------------------------

  Memory set to 232.831 GiB by Python driver.

Scratch directory: /binfl/lv71337/airmler/temp/

*** tstart() called on n412-039.vsc4.prov
*** at Tue Jan 26 18:13:18 2021

   => Loading Basis Set <=

    Name: AUG-CC-PV(D+D)Z
    Role: ORBITAL
    Keyword: BASIS
    atoms 1 entry F          line   318 file /home/fs71337/gallo4/psi4/eri-6/psi4/build/stage/share/psi4/basis/aug-cc-pv_dpd_z.gbs 


         ---------------------------------------------------------
                                   SCF
               by Justin Turney, Rob Parrish, Andy Simmonett
                          and Daniel G. A. Smith
                              UHF Reference
                       48 Threads, 238418 MiB Core
         ---------------------------------------------------------

  ==> Geometry <==

    Molecular point group: d2h
    Geometry (in Angstrom), charge = 1, multiplicity = 3:

       Center              X                  Y                   Z               Mass       
    ------------   -----------------  -----------------  -----------------  -----------------
         F            0.000000000000     0.000000000000     0.000000000000    18.998403162730

  Running in d2h symmetry.

  Rotational constants: A = ************  B = ************  C = ************ [cm^-1]
  Rotational constants: A = ************  B = ************  C = ************ [MHz]
  Nuclear repulsion =    0.000000000000000

  Charge       = 1
  Multiplicity = 3
  Electrons    = 8
  Nalpha       = 5
  Nbeta        = 3

  ==> Algorithm <==

  SCF Algorithm Type is OUT_OF_CORE.
  DIIS enabled.
  MOM disabled.
  Fractional occupation disabled.
  Guess Type is CORE.
  Energy threshold   = 1.00e-08
  Density threshold  = 1.00e-08
  Integral threshold = 1.00e-12

  ==> Primary Basis <==

  Basis Set: AUG-CC-PV(D+D)Z
    Blend: AUG-CC-PV(D+D)Z
    Number of shells: 9
    Number of basis function: 23
    Number of Cartesian functions: 25
    Spherical Harmonics?: true
    Max angular momentum: 2

  ==> Integral Setup <==

  ==> DiskJK: Disk-Based J/K Matrices <==

    J tasked:                  Yes
    K tasked:                  Yes
    wK tasked:                  No
    Memory [MiB]:           178813
    Schwarz Cutoff:          1E-12

  Minimum eigenvalue in the overlap matrix is 9.7441601769E-02.
  Reciprocal condition number of the overlap matrix is 4.4315832532E-02.
    Using symmetric orthogonalization.

  ==> Pre-Iterations <==

  SCF Guess: Core (One-Electron) Hamiltonian.

   -------------------------------------------------------
    Irrep   Nso     Nmo     Nalpha   Nbeta   Ndocc  Nsocc
   -------------------------------------------------------
     Ag         8       8       2       2       2       0
     B1g        2       2       0       0       0       0
     B2g        2       2       0       0       0       0
     B3g        2       2       0       0       0       0
     Au         0       0       0       0       0       0
     B1u        3       3       1       1       1       0
     B2u        3       3       1       0       0       1
     B3u        3       3       1       0       0       1
   -------------------------------------------------------
    Total      23      23       5       3       3       2
   -------------------------------------------------------

  ==> Iterations <==

                        Total Energy        Delta E     RMS |[F,P]|

   @UHF iter   1:   -96.22185953153512   -9.62219e+01   2.24078e-01 DIIS
   @UHF iter   2:   -98.75197578853900   -2.53012e+00   3.87388e-02 DIIS
   @UHF iter   3:   -98.80101878086583   -4.90430e-02   4.08256e-03 DIIS
   @UHF iter   4:   -98.80164809939654   -6.29319e-04   5.11781e-04 DIIS
   @UHF iter   5:   -98.80166372475023   -1.56254e-05   1.37917e-04 DIIS
   @UHF iter   6:   -98.80166495250062   -1.22775e-06   3.64545e-05 DIIS
   @UHF iter   7:   -98.80166505376012   -1.01260e-07   2.72205e-06 DIIS
   @UHF iter   8:   -98.80166505424135   -4.81236e-10   2.50559e-07 DIIS
   @UHF iter   9:   -98.80166505424515   -3.79430e-12   1.82254e-08 DIIS
   @UHF iter  10:   -98.80166505424521   -5.68434e-14   1.67066e-09 DIIS
  Energy and wave function converged.


  ==> Post-Iterations <==

   @Spin Contamination Metric:   4.825520007E-03
   @S^2 Expected:                2.000000000E+00
   @S^2 Observed:                2.004825520E+00
   @S   Expected:                1.000000000E+00
   @S   Observed:                1.000000000E+00

    Orbital Energies [Eh]
    ---------------------

    Alpha Occupied:                                                       

       1Ag   -27.209191     2Ag    -2.406326     1B2u   -1.536371  
       1B3u   -1.536371     1B1u   -1.416426  

    Alpha Virtual:                                                        

       3Ag    -0.107430     2B2u   -0.054061     2B3u   -0.054061  
       2B1u   -0.042131     1B1g    0.789638     4Ag     0.789638  
       1B2g    0.823697     1B3g    0.823697     5Ag     0.835128  
       3B2u    1.002037     3B3u    1.002037     3B1u    1.062680  
       6Ag     1.619176     2B1g    4.014633     7Ag     4.014633  
       2B2g    4.089688     2B3g    4.089688     8Ag     4.116104  

    Beta Occupied:                                                        

       1Ag   -27.100309     2Ag    -2.001892     1B1u   -1.307652  

    Beta Virtual:                                                         

       1B2u   -0.500035     1B3u   -0.500035     3Ag    -0.089505  
       2B1u   -0.037722     2B2u   -0.017071     2B3u   -0.017071  
       4Ag     0.866027     1B2g    0.867847     1B3g    0.867847  
       5Ag     0.875774     1B1g    0.875774     3B1u    1.101621  
       3B2u    1.205441     3B3u    1.205441     6Ag     1.720718  
       7Ag     4.219572     2B2g    4.227315     2B3g    4.227315  
       2B1g    4.254448     8Ag     4.254448  

    Final Occupation by Irrep:
             Ag   B1g   B2g   B3g    Au   B1u   B2u   B3u 
    DOCC [     2,    0,    0,    0,    0,    1,    0,    0 ]
    SOCC [     0,    0,    0,    0,    0,    0,    1,    1 ]

  @UHF Final Energy:   -98.80166505424521

   => Energetics <=

    Nuclear Repulsion Energy =              0.0000000000000000
    One-Electron Energy =                -133.0887931793718053
    Two-Electron Energy =                  34.2871281251266069
    Total Energy =                        -98.8016650542452055

  UHF NO Occupations:
  HONO-2 :    2 Ag 1.9981002
  HONO-1 :    1B2u 1.0000000
  HONO-0 :    1B3u 1.0000000
  LUNO+0 :    3 Ag 0.0018998
  LUNO+1 :    2B1u 0.0005143
  LUNO+2 :    4 Ag 0.0000007
  LUNO+3 :    5 Ag 0.0000000


Computation Completed


Properties will be evaluated at   0.000000,   0.000000,   0.000000 [a0]

Properties computed using the SCF density matrix

  Nuclear Dipole Moment: [e a0]
     X:     0.0000      Y:     0.0000      Z:     0.0000

  Electronic Dipole Moment: [e a0]
     X:     0.0000      Y:     0.0000      Z:     0.0000

  Dipole Moment: [e a0]
     X:     0.0000      Y:     0.0000      Z:     0.0000     Total:     0.0000

  Dipole Moment: [D]
     X:     0.0000      Y:     0.0000      Z:     0.0000     Total:     0.0000


*** tstop() called on n412-039.vsc4.prov at Tue Jan 26 18:13:18 2021
Module time:
	user time   =       5.28 seconds =       0.09 minutes
	system time =       0.20 seconds =       0.00 minutes
	total time  =          0 seconds =       0.00 minutes
Total time:
	user time   =       5.28 seconds =       0.09 minutes
	system time =       0.20 seconds =       0.00 minutes
	total time  =          0 seconds =       0.00 minutes

*** tstart() called on n412-039.vsc4.prov
*** at Tue Jan 26 18:13:18 2021


	Wfn Parameters:
	--------------------
	Wavefunction         = CCSD_T
	Number of irreps     = 8
	Number of MOs        = 23
	Number of active MOs = 22
	AO-Basis             = NONE
	Semicanonical        = false
	Reference            = UHF
	Print Level          = 1

	IRREP	# MOs	# FZDC	# DOCC	# SOCC	# VIRT	# FZVR
	-----	-----	------	------	------	------	------
	 Ag	   8	    1	    1	    0	    6	    0
	 B1g	   2	    0	    0	    0	    2	    0
	 B2g	   2	    0	    0	    0	    2	    0
	 B3g	   2	    0	    0	    0	    2	    0
	 Au	   0	    0	    0	    0	    0	    0
	 B1u	   3	    0	    1	    0	    2	    0
	 B2u	   3	    0	    0	    1	    2	    0
	 B3u	   3	    0	    0	    1	    2	    0
	Transforming integrals...
	IWL integrals will be deleted.
	(OO|OO)...
	Presorting SO-basis two-electron integrals.
	Sorting File: SO Ints (nn|nn) nbuckets = 1
	Constructing frozen core operators
	Starting AA/AB first half-transformation.
	Sorting AA/AB half-transformed integrals.
	Starting BB first half-transformation.
	Sorting BB half-transformed integrals.
	First half integral transformation complete.
	Starting AA second half-transformation.
	Starting AB second half-transformation.
	Starting BB second half-transformation.
	Two-electron integral transformation complete.
	(OO|OV)...
	Starting AA second half-transformation.
	Starting AB second half-transformation.
	Starting BB second half-transformation.
	Two-electron integral transformation complete.
	(OO|VV)...
	Starting AA second half-transformation.
	Starting AB second half-transformation.
	Starting BB second half-transformation.
	Two-electron integral transformation complete.
	(OV|OO)...
	Starting AA/AB first half-transformation.
	Sorting AA/AB half-transformed integrals.
	Starting BB first half-transformation.
	Sorting BB half-transformed integrals.
	First half integral transformation complete.
	Starting AA second half-transformation.
	Starting AB second half-transformation.
	Starting BB second half-transformation.
	Two-electron integral transformation complete.
	(OV|OV)...
	Starting AA second half-transformation.
	Starting AB second half-transformation.
	Starting BB second half-transformation.
	Two-electron integral transformation complete.
	(OV|VV)...
	Starting AA second half-transformation.
	Starting AB second half-transformation.
	Starting BB second half-transformation.
	Two-electron integral transformation complete.
	(VV|OO)...
	Starting AA/AB first half-transformation.
	Sorting AA/AB half-transformed integrals.
	Starting BB first half-transformation.
	Sorting BB half-transformed integrals.
	First half integral transformation complete.
	Starting AA second half-transformation.
	Starting AB second half-transformation.
	Starting BB second half-transformation.
	Two-electron integral transformation complete.
	(VV|OV)...
	Starting AA second half-transformation.
	Starting AB second half-transformation.
	Starting BB second half-transformation.
	Two-electron integral transformation complete.
	(VV|VV)...
	Starting AA second half-transformation.
	Starting AB second half-transformation.
	Starting BB second half-transformation.
	Two-electron integral transformation complete.
	Frozen core energy     =    -75.47765180564964

	Size of irrep 0 of <AB|CD> integrals:      0.000 (MW) /      0.004 (MB)
	Size of irrep 1 of <AB|CD> integrals:      0.000 (MW) /      0.003 (MB)
	Size of irrep 2 of <AB|CD> integrals:      0.000 (MW) /      0.003 (MB)
	Size of irrep 3 of <AB|CD> integrals:      0.000 (MW) /      0.003 (MB)
	Size of irrep 4 of <AB|CD> integrals:      0.000 (MW) /      0.001 (MB)
	Size of irrep 5 of <AB|CD> integrals:      0.000 (MW) /      0.003 (MB)
	Size of irrep 6 of <AB|CD> integrals:      0.000 (MW) /      0.003 (MB)
	Size of irrep 7 of <AB|CD> integrals:      0.000 (MW) /      0.003 (MB)
	Total:                                     0.003 (MW) /      0.024 (MB)

	Size of irrep 0 of <ab|cd> integrals:      0.001 (MW) /      0.005 (MB)
	Size of irrep 1 of <ab|cd> integrals:      0.001 (MW) /      0.005 (MB)
	Size of irrep 2 of <ab|cd> integrals:      0.000 (MW) /      0.004 (MB)
	Size of irrep 3 of <ab|cd> integrals:      0.000 (MW) /      0.004 (MB)
	Size of irrep 4 of <ab|cd> integrals:      0.000 (MW) /      0.002 (MB)
	Size of irrep 5 of <ab|cd> integrals:      0.001 (MW) /      0.005 (MB)
	Size of irrep 6 of <ab|cd> integrals:      0.001 (MW) /      0.006 (MB)
	Size of irrep 7 of <ab|cd> integrals:      0.001 (MW) /      0.006 (MB)
	Total:                                     0.005 (MW) /      0.037 (MB)

	Size of irrep 0 of <Ab|Cd> integrals:      0.004 (MW) /      0.033 (MB)
	Size of irrep 1 of <Ab|Cd> integrals:      0.002 (MW) /      0.015 (MB)
	Size of irrep 2 of <Ab|Cd> integrals:      0.002 (MW) /      0.014 (MB)
	Size of irrep 3 of <Ab|Cd> integrals:      0.002 (MW) /      0.014 (MB)
	Size of irrep 4 of <Ab|Cd> integrals:      0.001 (MW) /      0.006 (MB)
	Size of irrep 5 of <Ab|Cd> integrals:      0.002 (MW) /      0.015 (MB)
	Size of irrep 6 of <Ab|Cd> integrals:      0.002 (MW) /      0.018 (MB)
	Size of irrep 7 of <Ab|Cd> integrals:      0.002 (MW) /      0.018 (MB)
	Total:                                     0.017 (MW) /      0.135 (MB)

	Size of irrep 0 of <IA|BC> integrals:      0.001 (MW) /      0.006 (MB)
	Size of irrep 1 of <IA|BC> integrals:      0.000 (MW) /      0.002 (MB)
	Size of irrep 2 of <IA|BC> integrals:      0.000 (MW) /      0.002 (MB)
	Size of irrep 3 of <IA|BC> integrals:      0.000 (MW) /      0.002 (MB)
	Size of irrep 4 of <IA|BC> integrals:      0.000 (MW) /      0.001 (MB)
	Size of irrep 5 of <IA|BC> integrals:      0.000 (MW) /      0.004 (MB)
	Size of irrep 6 of <IA|BC> integrals:      0.000 (MW) /      0.004 (MB)
	Size of irrep 7 of <IA|BC> integrals:      0.000 (MW) /      0.004 (MB)
	Total:                                     0.003 (MW) /      0.024 (MB)

	Size of irrep 0 of <ia|bc> integrals:      0.001 (MW) /      0.004 (MB)
	Size of irrep 1 of <ia|bc> integrals:      0.000 (MW) /      0.001 (MB)
	Size of irrep 2 of <ia|bc> integrals:      0.000 (MW) /      0.002 (MB)
	Size of irrep 3 of <ia|bc> integrals:      0.000 (MW) /      0.002 (MB)
	Size of irrep 4 of <ia|bc> integrals:      0.000 (MW) /      0.001 (MB)
	Size of irrep 5 of <ia|bc> integrals:      0.000 (MW) /      0.003 (MB)
	Size of irrep 6 of <ia|bc> integrals:      0.000 (MW) /      0.002 (MB)
	Size of irrep 7 of <ia|bc> integrals:      0.000 (MW) /      0.002 (MB)
	Total:                                     0.002 (MW) /      0.017 (MB)

	Size of irrep 0 of <Ia|Bc> integrals:      0.001 (MW) /      0.007 (MB)
	Size of irrep 1 of <Ia|Bc> integrals:      0.000 (MW) /      0.003 (MB)
	Size of irrep 2 of <Ia|Bc> integrals:      0.000 (MW) /      0.002 (MB)
	Size of irrep 3 of <Ia|Bc> integrals:      0.000 (MW) /      0.002 (MB)
	Size of irrep 4 of <Ia|Bc> integrals:      0.000 (MW) /      0.001 (MB)
	Size of irrep 5 of <Ia|Bc> integrals:      0.001 (MW) /      0.004 (MB)
	Size of irrep 6 of <Ia|Bc> integrals:      0.001 (MW) /      0.005 (MB)
	Size of irrep 7 of <Ia|Bc> integrals:      0.001 (MW) /      0.005 (MB)
	Total:                                     0.004 (MW) /      0.030 (MB)

	Size of irrep 0 of <iA|bC> integrals:      0.001 (MW) /      0.004 (MB)
	Size of irrep 1 of <iA|bC> integrals:      0.000 (MW) /      0.001 (MB)
	Size of irrep 2 of <iA|bC> integrals:      0.000 (MW) /      0.001 (MB)
	Size of irrep 3 of <iA|bC> integrals:      0.000 (MW) /      0.001 (MB)
	Size of irrep 4 of <iA|bC> integrals:      0.000 (MW) /      0.000 (MB)
	Size of irrep 5 of <iA|bC> integrals:      0.000 (MW) /      0.003 (MB)
	Size of irrep 6 of <iA|bC> integrals:      0.000 (MW) /      0.002 (MB)
	Size of irrep 7 of <iA|bC> integrals:      0.000 (MW) /      0.002 (MB)
	Total:                                     0.002 (MW) /      0.014 (MB)

	Size of irrep 0 of tIjAb amplitudes:       0.000 (MW) /      0.001 (MB)
	Size of irrep 1 of tIjAb amplitudes:       0.000 (MW) /      0.000 (MB)
	Size of irrep 2 of tIjAb amplitudes:       0.000 (MW) /      0.000 (MB)
	Size of irrep 3 of tIjAb amplitudes:       0.000 (MW) /      0.000 (MB)
	Size of irrep 4 of tIjAb amplitudes:       0.000 (MW) /      0.000 (MB)
	Size of irrep 5 of tIjAb amplitudes:       0.000 (MW) /      0.001 (MB)
	Size of irrep 6 of tIjAb amplitudes:       0.000 (MW) /      0.000 (MB)
	Size of irrep 7 of tIjAb amplitudes:       0.000 (MW) /      0.000 (MB)
	Total:                                     0.000 (MW) /      0.003 (MB)

	Nuclear Rep. energy          =      0.00000000000000
	SCF energy                   =    -98.80166505424521
	One-electron energy          =    -36.44298984634244
	Two-electron (AA) energy     =      4.89807624036341
	Two-electron (BB) energy     =      0.72694012888881
	Two-electron (AB) energy     =      7.49396022849468
	Two-electron energy          =     13.11897659774690
	Reference energy             =    -98.80166505424519

*** tstop() called on n412-039.vsc4.prov at Tue Jan 26 18:13:19 2021
Module time:
	user time   =       0.02 seconds =       0.00 minutes
	system time =       0.07 seconds =       0.00 minutes
	total time  =          1 seconds =       0.02 minutes
Total time:
	user time   =       5.30 seconds =       0.09 minutes
	system time =       0.27 seconds =       0.00 minutes
	total time  =          1 seconds =       0.02 minutes
            **************************
            *                        *
            *        CCENERGY        *
            *                        *
            **************************

    Nuclear Rep. energy (wfn)     =    0.000000000000000
    SCF energy          (wfn)     =  -98.801665054245206
    Reference energy    (file100) =  -98.801665054245191

    Input parameters:
    -----------------
    Wave function   =     CCSD_T
    Reference wfn   =     UHF
    Brueckner       =     No
    Memory (Mbytes) =     250000.0
    Maxiter         =     50
    R_Convergence   =     1.0e-07
    E_Convergence   =     1.0e-06
    Restart         =     Yes
    DIIS            =     Yes
    AO Basis        =     NONE
    ABCD            =     NEW
    Cache Level     =     2
    Cache Type      =     LRU
    Print Level     =     1
    Num. of threads =     48
    # Amps to Print =     10
    Print MP2 Amps? =     No
    Analyze T2 Amps =     No
    Print Pair Ener =     No
    Local CC        =     No
    SCS-MP2         =     False
    SCSN-MP2        =     False
    SCS-CCSD        =     False

MP2 correlation energy -0.1031668166251612
                Solving CC Amplitude Equations
                ------------------------------
  Iter             Energy              RMS        T1Diag      D1Diag    New D1Diag    D2Diag
  ----     ---------------------    ---------   ----------  ----------  ----------   --------
     0        -0.103166816625161    0.000e+00    0.000000    0.000000    0.000000    0.000000
     1        -0.115003722569355    2.417e-02    0.005530    0.000000    0.000000    0.000000
     2        -0.118028594671096    7.351e-03    0.007123    0.000000    0.000000    0.000000
     3        -0.118221599931505    2.047e-03    0.007491    0.000000    0.000000    0.000000
     4        -0.118209202848737    6.757e-04    0.007474    0.000000    0.000000    0.000000
     5        -0.118219178470444    2.030e-04    0.007472    0.000000    0.000000    0.000000
     6        -0.118219780440236    4.302e-05    0.007470    0.000000    0.000000    0.000000
     7        -0.118219570057936    9.709e-06    0.007470    0.000000    0.000000    0.000000
     8        -0.118219560233815    2.260e-06    0.007471    0.000000    0.000000    0.000000
     9        -0.118219547431928    3.428e-07    0.007471    0.000000    0.000000    0.000000
    10        -0.118219545924598    7.166e-08    0.007471    0.000000    0.000000    0.000000

    Iterations converged.


    Largest TIA Amplitudes:
              1  12        -0.0067816983
              1  13        -0.0058521569
              2  14        -0.0057149314
              3  16        -0.0057149314
              0   0        -0.0049279476
              2  15        -0.0047645025
              3  17        -0.0047645025
              0   3        -0.0021722663
              0   2         0.0020398408
              0   5         0.0005987239

    Largest Tia Amplitudes:
              1  12        -0.0066078093
              0   1        -0.0055969537
              0   4         0.0038805050
              1  13        -0.0038578992
              0   3         0.0021385938
              0   0         0.0009310254

    Largest TIJAB Amplitudes:
      3   1  17  13        -0.0198885612
      2   1  15  13        -0.0198885612
      3   2  17  15        -0.0197048228
      1   0  13   3        -0.0112195215
      2   0  15   3        -0.0111074117
      3   0  17   3        -0.0111074117
      3   2   7   4         0.0110884497
      3   2   6   1         0.0110281952
      3   1   8   2        -0.0105406430
      2   1  10   2        -0.0105406430

    Largest Tijab Amplitudes:
      1   0  14  10        -0.0126490461
      1   0  17   8        -0.0126490461
      1   0  13   3        -0.0106926000
      1   0  14  11         0.0086248419
      1   0  17   9         0.0086248419
      1   0  13   0         0.0064860259
      1   0  12   3        -0.0047934536
      1   0  12   0         0.0035914489
      1   0  15  10        -0.0032225450
      1   0  18   8        -0.0032225450

    Largest TIjAb Amplitudes:
      1   1  13  13        -0.0345656910
      3   1  17  13        -0.0251690373
      2   1  15  13        -0.0251690373
      2   0   1  14         0.0234003597
      2   0   6  17        -0.0234003597
      3   0   1  17        -0.0234003597
      3   0   6  14        -0.0234003597
      1   0   8  17        -0.0226244424
      1   0  10  14        -0.0226244424
      0   1   3  13        -0.0195558639

    SCF energy       (wfn)                    =  -98.801665054245206
    Reference energy (file100)                =  -98.801665054245191

    Opposite-spin MP2 correlation energy      =   -0.077871755564971
    Same-spin MP2 correlation energy          =   -0.025295061060190
    Singles MP2 correlation energy            =   -0.000000000000000
    MP2 correlation energy                    =   -0.103166816625161
      * MP2 total energy                      =  -98.904831870870353

    Opposite-spin CCSD correlation energy     =   -0.091958337360469
    Same-spin CCSD correlation energy         =   -0.026261208564128
    Singles CCSD correlation energy           =   -0.000000000000000
    CCSD correlation energy                   =   -0.118219545924598
      * CCSD total energy                     =  -98.919884600169794

            **************************
            *                        *
            *        CCTRIPLES       *
            *                        *
            **************************


    Wave function   =    CCSD_T
    Reference wfn   =      UHF

    Nuclear Rep. energy (wfn)                =    0.000000000000000
    SCF energy          (wfn)                =  -98.801665054245206
    Reference energy    (file100)            =  -98.801665054245191
    CCSD energy         (file100)            =   -0.118219545924598
    Total CCSD energy   (file100)            =  -98.919884600169794

    Number of ijk index combinations:
    Spin Case AAA:                                   4
    Spin Case BBB:                                   0
    Spin Case AAB:                                  12
    Spin Case ABB:                                   4
    AAA (T) energy                             =   -0.000070222982175
    BBB (T) energy                             =    0.000000000000000
    AAB (T) energy                             =   -0.000878519102625
    ABB (T) energy                             =   -0.000272102366815
    (T) energy                                   =   -0.001220844451615
      * CCSD(T) total energy                     =  -98.921105444621404


    Psi4 stopped on: Tuesday, 26 January 2021 06:13PM
    Psi4 wall time for execution: 0:00:03.46

*** Psi4 exiting successfully. Buy a developer a beer!
