
    -----------------------------------------------------------------------
          Psi4: An Open-Source Ab Initio Electronic Structure Package
                               Psi4 1.4a3.dev88 

                         Git: Rev {master} 262e345 


    D. G. A. Smith, L. A. Burns, A. C. Simmonett, R. M. Parrish,
    M. C. Schieber, R. Galvelis, P. Kraus, H. Kruse, R. Di Remigio,
    A. Alenaizan, A. M. James, S. Lehtola, J. P. Misiewicz, M. Scheurer,
    R. A. Shaw, J. B. Schriber, Y. Xie, Z. L. Glick, D. A. Sirianni,
    J. S. O'Brien, J. M. Waldrop, A. Kumar, E. G. Hohenstein,
    B. P. Pritchard, B. R. Brooks, H. F. Schaefer III, A. Yu. Sokolov,
    K. Patkowski, A. E. DePrince III, U. Bozkaya, R. A. King,
    F. A. Evangelista, J. M. Turney, T. D. Crawford, C. D. Sherrill,
    J. Chem. Phys. 152(18) 184108 (2020). https://doi.org/10.1063/5.0006002

                            Additional Code Authors
    E. T. Seidl, C. L. Janssen, E. F. Valeev, M. L. Leininger,
    J. F. Gonthier, R. M. Richard, H. R. McAlexander, M. Saitow, X. Wang,
    P. Verma, and M. H. Lechner

             Previous Authors, Complete List of Code Contributors,
                       and Citations for Specific Modules
    https://github.com/psi4/psi4/blob/master/codemeta.json
    https://github.com/psi4/psi4/graphs/contributors
    http://psicode.org/psi4manual/master/introduction.html#citing-psifour

    -----------------------------------------------------------------------


    Psi4 started on: Thursday, 21 January 2021 01:07PM

    Process ID: 226134
    Host:       n411-011.vsc4.prov
    PSIDATADIR: /home/fs71337/gallo4/psi4/eri-6/psi4/build/stage/share/psi4
    Memory:     500.0 MiB
    Threads:    48
    
  ==> Input File <==

--------------------------------------------------------------------------
# Any line starting with the # character is a comment line
memory 250000 mb
molecule molecule{
1 3
F          0.0000000000        0.0000000000        0.0000000000
}

set {
  reference uhf
  basis aug-cc-pV(6+d)Z
  scf_type OUT_OF_CORE
  freeze_core true
}

energy('ccsd(t)')
--------------------------------------------------------------------------

  Memory set to 232.831 GiB by Python driver.

Scratch directory: /binfl/lv71337/airmler/temp/

*** tstart() called on n411-011.vsc4.prov
*** at Thu Jan 21 13:07:19 2021

   => Loading Basis Set <=

    Name: AUG-CC-PV(6+D)Z
    Role: ORBITAL
    Keyword: BASIS
    atoms 1 entry F          line   555 file /home/fs71337/gallo4/psi4/eri-6/psi4/build/stage/share/psi4/basis/aug-cc-pv_6pd_z.gbs 


         ---------------------------------------------------------
                                   SCF
               by Justin Turney, Rob Parrish, Andy Simmonett
                          and Daniel G. A. Smith
                              UHF Reference
                       48 Threads, 238418 MiB Core
         ---------------------------------------------------------

  ==> Geometry <==

    Molecular point group: d2h
    Geometry (in Angstrom), charge = 1, multiplicity = 3:

       Center              X                  Y                   Z               Mass       
    ------------   -----------------  -----------------  -----------------  -----------------
         F            0.000000000000     0.000000000000     0.000000000000    18.998403162730

  Running in d2h symmetry.

  Rotational constants: A = ************  B = ************  C = ************ [cm^-1]
  Rotational constants: A = ************  B = ************  C = ************ [MHz]
  Nuclear repulsion =    0.000000000000000

  Charge       = 1
  Multiplicity = 3
  Electrons    = 8
  Nalpha       = 5
  Nbeta        = 3

  ==> Algorithm <==

  SCF Algorithm Type is OUT_OF_CORE.
  DIIS enabled.
  MOM disabled.
  Fractional occupation disabled.
  Guess Type is CORE.
  Energy threshold   = 1.00e-08
  Density threshold  = 1.00e-08
  Integral threshold = 1.00e-12

  ==> Primary Basis <==

  Basis Set: AUG-CC-PV(6+D)Z
    Blend: AUG-CC-PV(6+D)Z
    Number of shells: 35
    Number of basis function: 189
    Number of Cartesian functions: 294
    Spherical Harmonics?: true
    Max angular momentum: 6

  ==> Integral Setup <==

  ==> DiskJK: Disk-Based J/K Matrices <==

    J tasked:                  Yes
    K tasked:                  Yes
    wK tasked:                  No
    Memory [MiB]:           178813
    Schwarz Cutoff:          1E-12

  Minimum eigenvalue in the overlap matrix is 6.3548632907E-04.
  Reciprocal condition number of the overlap matrix is 1.4500566346E-04.
    Using symmetric orthogonalization.

  ==> Pre-Iterations <==

  SCF Guess: Core (One-Electron) Hamiltonian.

   -------------------------------------------------------
    Irrep   Nso     Nmo     Nalpha   Nbeta   Ndocc  Nsocc
   -------------------------------------------------------
     Ag        40      40       2       2       2       0
     B1g       20      20       0       0       0       0
     B2g       20      20       0       0       0       0
     B3g       20      20       0       0       0       0
     Au        11      11       0       0       0       0
     B1u       26      26       1       0       0       1
     B2u       26      26       1       1       1       0
     B3u       26      26       1       0       0       1
   -------------------------------------------------------
    Total     189     189       5       3       3       2
   -------------------------------------------------------

  ==> Iterations <==

                        Total Energy        Delta E     RMS |[F,P]|

   @UHF iter   1:   -90.80085923303787   -9.08009e+01   1.22054e-01 DIIS
   @UHF iter   2:   -97.46252886692075   -6.66167e+00   2.98079e-02 DIIS
   @UHF iter   3:   -98.79748050729611   -1.33495e+00   6.88951e-03 DIIS
   @UHF iter   4:   -98.84055793414440   -4.30774e-02   5.80036e-04 DIIS
   @UHF iter   5:   -98.84113504087384   -5.77107e-04   6.10203e-05 DIIS
   @UHF iter   6:   -98.84114482859843   -9.78772e-06   9.34605e-06 DIIS
   @UHF iter   7:   -98.84114503676950   -2.08171e-07   2.02275e-06 DIIS
   @UHF iter   8:   -98.84114505055119   -1.37817e-08   3.08747e-07 DIIS
   @UHF iter   9:   -98.84114505079286   -2.41670e-10   2.98609e-08 DIIS
   @UHF iter  10:   -98.84114505079430   -1.43530e-12   3.91810e-09 DIIS
  Energy and wave function converged.


  ==> Post-Iterations <==

   @Spin Contamination Metric:   5.323044648E-03
   @S^2 Expected:                2.000000000E+00
   @S^2 Observed:                2.005323045E+00
   @S   Expected:                1.000000000E+00
   @S   Observed:                1.000000000E+00

    Orbital Energies [Eh]
    ---------------------

    Alpha Occupied:                                                       

       1Ag   -27.193508     2Ag    -2.400767     1B1u   -1.537226  
       1B3u   -1.537226     1B2u   -1.415629  

    Alpha Virtual:                                                        

       3Ag    -0.147595     2B3u   -0.097292     2B1u   -0.097292  
       2B2u   -0.091471     3B3u    0.149242     3B1u    0.149242  
       4Ag     0.153413     1B2g    0.153413     1B1g    0.161499  
       1B3g    0.161499     3B2u    0.163045     5Ag     0.164228  
       6Ag     0.355348     4B1u    0.747470     4B3u    0.747470  
       4B2u    0.755295     1Au     0.755295     5B1u    0.759947  
       5B3u    0.759947     5B2u    0.761516     2B2g    0.915621  
       7Ag     0.915621     6B1u    0.927865     6B3u    0.927865  
       2B3g    0.941534     2B1g    0.941534     8Ag     0.950634  
       6B2u    0.963091     9Ag     2.079113    10Ag     2.164789  
       3B2g    2.164789     3B1g    2.175683     3B3g    2.175683  
      11Ag     2.183563     4B2g    2.183563     4B1g    2.188334  
       4B3g    2.188334    12Ag     2.189932     7B3u    2.579724  
       7B1u    2.579724     2Au     2.602989     7B2u    2.602989  
       8B3u    2.616806     8B1u    2.616806     8B2u    2.621445  
      13Ag     2.709879     5B2g    2.709879     5B3g    2.759443  
       5B1g    2.759443    14Ag     2.776886     9B1u    3.107308  
       9B3u    3.107308     9B2u    3.173475    10B1u    5.253010  
      10B3u    5.253010    10B2u    5.268409     3Au     5.268409  
      11B1u    5.280477    11B3u    5.280477     4Au     5.289146  
      11B2u    5.289146    12B1u    5.294367    12B3u    5.294367  
      12B2u    5.296111    15Ag     6.221074     6B2g    6.221074  
       6B1g    6.248438     6B3g    6.248438    16Ag     6.268178  
       7B2g    6.268178     7B1g    6.280110     7B3g    6.280110  
      17Ag     6.284104    13B3u    6.628841    13B1u    6.628841  
       5Au     6.673801    13B2u    6.673801    14B3u    6.700846  
      14B1u    6.700846    14B2u    6.709889    18Ag     6.967294  
       8B2g    6.967294     8B1g    7.036513     8B3g    7.036513  
      19Ag     7.060373    20Ag     7.332978    15B1u    8.775861  
      15B3u    8.775861    15B2u    8.868399    21Ag    11.444041  
       9B2g   11.444041     9B3g   11.464757     9B1g   11.464757  
      10B2g   11.481798    22Ag    11.481798    10B1g   11.495110  
      10B3g   11.495110    23Ag    11.504649    11B2g   11.504649  
      11B1g   11.510385    11B3g   11.510385    24Ag    11.512299  
      16B1u   13.280989    16B3u   13.280989    16B2u   13.312076  
       6Au    13.312076    17B1u   13.336425    17B3u   13.336425  
      17B2u   13.353910     7Au    13.353910    18B1u   13.364439  
      18B3u   13.364439    18B2u   13.367954    12B2g   15.628936  
      25Ag    15.628936    12B1g   15.675811    12B3g   15.675811  
      13B2g   15.709481    26Ag    15.709481    13B1g   15.729767  
      13B3g   15.729767    27Ag    15.736544    19B3u   15.886430  
      19B1u   15.886430    19B2u   15.948529     8Au    15.948529  
      20B1u   15.986013    20B3u   15.986013    20B2u   15.998547  
      28Ag    17.335297    14B2g   17.335297    14B1g   17.414649  
      14B3g   17.414649    29Ag    17.441717    30Ag    24.318857  
      21B3u   27.010854    21B1u   27.010854    21B2u   27.094128  
      15B2g   28.502088    31Ag    28.502088    15B1g   28.537122  
      15B3g   28.537122    16B2g   28.565911    32Ag    28.565911  
      16B1g   28.588381    16B3g   28.588381    17B2g   28.604473  
      33Ag    28.604473    17B1g   28.614145    17B3g   28.614145  
      34Ag    28.617372    22B1u   34.115461    22B3u   34.115461  
      22B2u   34.161411     9Au    34.161411    23B3u   34.197300  
      23B1u   34.197300    10Au    34.223016    23B2u   34.223016  
      24B1u   34.238478    24B3u   34.238478    24B2u   34.243638  
      25B3u   38.323293    25B1u   38.323293    25B2u   38.386759  
      11Au    38.386759    26B3u   38.425009    26B1u   38.425009  
      26B2u   38.437789    18B2g   39.359441    35Ag    39.359441  
      18B1g   39.414611    18B3g   39.414611    19B2g   39.454166  
      36Ag    39.454166    19B1g   39.477960    19B3g   39.477960  
      37Ag    39.485902    38Ag    43.104319    20B2g   43.104319  
      20B1g   43.174795    20B3g   43.174795    39Ag    43.198584  
      40Ag   126.390656  

    Beta Occupied:                                                        

       1Ag   -27.088064     2Ag    -1.993931     1B2u   -1.310644  

    Beta Virtual:                                                         

       1B1u   -0.493528     1B3u   -0.493528     3Ag    -0.137600  
       2B2u   -0.089777     2B3u   -0.081491     2B1u   -0.081491  
       4Ag     0.162377     1B2g    0.162377     1B3g    0.165533  
       1B1g    0.165533     5Ag     0.166728     3B2u    0.169103  
       3B3u    0.195480     3B1u    0.195480     6Ag     0.385004  
       4B3u    0.751845     4B1u    0.751845     1Au     0.757923  
       4B2u    0.757923     5B3u    0.761560     5B1u    0.761560  
       5B2u    0.762772     7Ag     0.972981     2B3g    0.974132  
       2B1g    0.974132     2B2g    0.979619     8Ag     0.979619  
       6B2u    0.980777     6B1u    1.028872     6B3u    1.028872  
       9Ag     2.147884     3B2g    2.171518    10Ag     2.171518  
       3B1g    2.180427     3B3g    2.180427    11Ag     2.186816  
       4B2g    2.186816     4B1g    2.190656     4B3g    2.190656  
      12Ag     2.191937     7B3u    2.614573     7B1u    2.614573  
       2Au     2.625908     7B2u    2.625908     8B3u    2.632614  
       8B1u    2.632614     8B2u    2.634837    13Ag     2.836155  
       5B3g    2.840277     5B1g    2.840277    14Ag     2.856078  
       5B2g    2.856078     9B2u    3.205032     9B1u    3.244247  
       9B3u    3.244247    10B1u    5.264938    10B3u    5.264938  
      10B2u    5.277647     3Au     5.277647    11B1u    5.287574  
      11B3u    5.287574     4Au     5.294689    11B2u    5.294689  
      12B1u    5.298966    12B3u    5.298966    12B2u    5.300394  
      15Ag     6.257931     6B2g    6.257931     6B1g    6.275985  
       6B3g    6.275985    16Ag     6.288855     7B2g    6.288855  
       7B1g    6.296559     7B3g    6.296559    17Ag     6.299123  
      13B3u    6.717952    13B1u    6.717952     5Au     6.735619  
      13B2u    6.735619    14B1u    6.746116    14B3u    6.746116  
      14B2u    6.749599    18Ag     7.136397     8B1g    7.137990  
       8B3g    7.137990    19Ag     7.141408     8B2g    7.141408  
      20Ag     7.426830    15B2u    8.909022    15B1u    8.913315  
      15B3u    8.913315    21Ag    11.463530     9B2g   11.463530  
       9B3g   11.480771     9B1g   11.480771    10B2g   11.494929  
      22Ag    11.494929    10B1g   11.505973    10B3g   11.505973  
      23Ag    11.513879    11B2g   11.513879    11B1g   11.518630  
      11B3g   11.518630    24Ag    11.520215    16B1u   13.320916  
      16B3u   13.320916    16B2u   13.344110     6Au    13.344110  
      17B1u   13.362222    17B3u   13.362222    17B2u   13.375197  
       7Au    13.375197    18B1u   13.382998    18B3u   13.382998  
      18B2u   13.385600    12B2g   15.706865    25Ag    15.706865  
      12B1g   15.735955    12B3g   15.735955    13B2g   15.756719  
      26Ag    15.756719    13B1g   15.769170    13B3g   15.769170  
      27Ag    15.773318    19B3u   16.003270    19B1u   16.003270  
      19B2u   16.032052     8Au    16.032052    20B1u   16.049318  
      20B3u   16.049318    20B2u   16.055072    28Ag    17.479421  
      14B2g   17.479421    14B1g   17.501511    14B3g   17.501511  
      29Ag    17.509008    30Ag    24.393403    21B3u   27.107396  
      21B1u   27.107396    21B2u   27.126388    15B2g   28.546696  
      31Ag    28.546696    15B3g   28.574627    15B1g   28.574627  
      16B2g   28.597555    32Ag    28.597555    16B1g   28.615435  
      16B3g   28.615435    17B2g   28.628232    33Ag    28.628232  
      17B1g   28.635920    17B3g   28.635920    34Ag    28.638485  
      22B1u   34.183453    22B3u   34.183453    22B2u   34.217112  
       9Au    34.217112    23B3u   34.243369    23B1u   34.243369  
      10Au    34.262165    23B2u   34.262165    24B1u   34.273460  
      24B3u   34.273460    24B2u   34.277227    25B3u   38.421690  
      25B1u   38.421690    25B2u   38.458109    11Au    38.458109  
      26B3u   38.480015    26B1u   38.480015    26B2u   38.487326  
      35Ag    39.445268    18B2g   39.445268    18B1g   39.481962  
      18B3g   39.481962    36Ag    39.508224    19B2g   39.508224  
      19B1g   39.524001    19B3g   39.524001    37Ag    39.529263  
      38Ag    43.195323    20B2g   43.195323    20B1g   43.230698  
      20B3g   43.230698    39Ag    43.242593    40Ag   126.417201  

    Final Occupation by Irrep:
             Ag   B1g   B2g   B3g    Au   B1u   B2u   B3u 
    DOCC [     2,    0,    0,    0,    0,    0,    1,    0 ]
    SOCC [     0,    0,    0,    0,    0,    1,    0,    1 ]

  @UHF Final Energy:   -98.84114505079430

   => Energetics <=

    Nuclear Repulsion Energy =              0.0000000000000000
    One-Electron Energy =                -133.2052946791210104
    Two-Electron Energy =                  34.3641496283267216
    Total Energy =                        -98.8411450507942959

  UHF NO Occupations:
  HONO-2 :    2 Ag 1.9979037
  HONO-1 :    1B1u 1.0000000
  HONO-0 :    1B3u 1.0000000
  LUNO+0 :    3 Ag 0.0020963
  LUNO+1 :    2B2u 0.0005649
  LUNO+2 :    4 Ag 0.0000027
  LUNO+3 :    5 Ag 0.0000000


Computation Completed


Properties will be evaluated at   0.000000,   0.000000,   0.000000 [a0]

Properties computed using the SCF density matrix

  Nuclear Dipole Moment: [e a0]
     X:     0.0000      Y:     0.0000      Z:     0.0000

  Electronic Dipole Moment: [e a0]
     X:     0.0000      Y:     0.0000      Z:     0.0000

  Dipole Moment: [e a0]
     X:     0.0000      Y:     0.0000      Z:     0.0000     Total:     0.0000

  Dipole Moment: [D]
     X:     0.0000      Y:     0.0000      Z:     0.0000     Total:     0.0000


*** tstop() called on n411-011.vsc4.prov at Thu Jan 21 13:09:02 2021
Module time:
	user time   =     109.98 seconds =       1.83 minutes
	system time =       3.11 seconds =       0.05 minutes
	total time  =        103 seconds =       1.72 minutes
Total time:
	user time   =     109.98 seconds =       1.83 minutes
	system time =       3.11 seconds =       0.05 minutes
	total time  =        103 seconds =       1.72 minutes

*** tstart() called on n411-011.vsc4.prov
*** at Thu Jan 21 13:09:02 2021


	Wfn Parameters:
	--------------------
	Wavefunction         = CCSD_T
	Number of irreps     = 8
	Number of MOs        = 189
	Number of active MOs = 188
	AO-Basis             = NONE
	Semicanonical        = false
	Reference            = UHF
	Print Level          = 1

	IRREP	# MOs	# FZDC	# DOCC	# SOCC	# VIRT	# FZVR
	-----	-----	------	------	------	------	------
	 Ag	   40	    1	    1	    0	    38	    0
	 B1g	   20	    0	    0	    0	    20	    0
	 B2g	   20	    0	    0	    0	    20	    0
	 B3g	   20	    0	    0	    0	    20	    0
	 Au	   11	    0	    0	    0	    11	    0
	 B1u	   26	    0	    0	    1	    25	    0
	 B2u	   26	    0	    1	    0	    25	    0
	 B3u	   26	    0	    0	    1	    25	    0
	Transforming integrals...
	IWL integrals will be deleted.
	(OO|OO)...
	Presorting SO-basis two-electron integrals.
	Sorting File: SO Ints (nn|nn) nbuckets = 1
	Constructing frozen core operators
	Starting AA/AB first half-transformation.
	Sorting AA/AB half-transformed integrals.
	Starting BB first half-transformation.
	Sorting BB half-transformed integrals.
	First half integral transformation complete.
	Starting AA second half-transformation.
	Starting AB second half-transformation.
	Starting BB second half-transformation.
	Two-electron integral transformation complete.
	(OO|OV)...
	Starting AA second half-transformation.
	Starting AB second half-transformation.
	Starting BB second half-transformation.
	Two-electron integral transformation complete.
	(OO|VV)...
	Starting AA second half-transformation.
	Starting AB second half-transformation.
	Starting BB second half-transformation.
	Two-electron integral transformation complete.
	(OV|OO)...
	Starting AA/AB first half-transformation.
	Sorting AA/AB half-transformed integrals.
	Starting BB first half-transformation.
	Sorting BB half-transformed integrals.
	First half integral transformation complete.
	Starting AA second half-transformation.
	Starting AB second half-transformation.
	Starting BB second half-transformation.
	Two-electron integral transformation complete.
	(OV|OV)...
	Starting AA second half-transformation.
	Starting AB second half-transformation.
	Starting BB second half-transformation.
	Two-electron integral transformation complete.
	(OV|VV)...
	Starting AA second half-transformation.
	Starting AB second half-transformation.
	Starting BB second half-transformation.
	Two-electron integral transformation complete.
	(VV|OO)...
	Starting AA/AB first half-transformation.
	Sorting AA/AB half-transformed integrals.
	Starting BB first half-transformation.
	Sorting BB half-transformed integrals.
	First half integral transformation complete.
	Starting AA second half-transformation.
	Starting AB second half-transformation.
	Starting BB second half-transformation.
	Two-electron integral transformation complete.
	(VV|OV)...
	Starting AA second half-transformation.
	Starting AB second half-transformation.
	Starting BB second half-transformation.
	Two-electron integral transformation complete.
	(VV|VV)...
	Starting AA second half-transformation.
	Starting AB second half-transformation.
	Starting BB second half-transformation.
	Two-electron integral transformation complete.
	Frozen core energy     =    -75.47987594365854

	Size of irrep 0 of <AB|CD> integrals:      4.964 (MW) /     39.712 (MB)
	Size of irrep 1 of <AB|CD> integrals:      4.244 (MW) /     33.949 (MB)
	Size of irrep 2 of <AB|CD> integrals:      4.244 (MW) /     33.949 (MB)
	Size of irrep 3 of <AB|CD> integrals:      4.244 (MW) /     33.949 (MB)
	Size of irrep 4 of <AB|CD> integrals:      3.679 (MW) /     29.430 (MB)
	Size of irrep 5 of <AB|CD> integrals:      4.709 (MW) /     37.671 (MB)
	Size of irrep 6 of <AB|CD> integrals:      4.709 (MW) /     37.671 (MB)
	Size of irrep 7 of <AB|CD> integrals:      4.709 (MW) /     37.671 (MB)
	Total:                                    35.500 (MW) /    284.002 (MB)

	Size of irrep 0 of <ab|cd> integrals:      5.189 (MW) /     41.514 (MB)
	Size of irrep 1 of <ab|cd> integrals:      4.393 (MW) /     35.146 (MB)
	Size of irrep 2 of <ab|cd> integrals:      4.456 (MW) /     35.651 (MB)
	Size of irrep 3 of <ab|cd> integrals:      4.393 (MW) /     35.146 (MB)
	Size of irrep 4 of <ab|cd> integrals:      3.834 (MW) /     30.670 (MB)
	Size of irrep 5 of <ab|cd> integrals:      4.964 (MW) /     39.712 (MB)
	Size of irrep 6 of <ab|cd> integrals:      4.884 (MW) /     39.073 (MB)
	Size of irrep 7 of <ab|cd> integrals:      4.964 (MW) /     39.712 (MB)
	Total:                                    37.078 (MW) /    296.623 (MB)

	Size of irrep 0 of <Ab|Cd> integrals:     21.996 (MW) /    175.969 (MB)
	Size of irrep 1 of <Ab|Cd> integrals:     17.272 (MW) /    138.179 (MB)
	Size of irrep 2 of <Ab|Cd> integrals:     17.389 (MW) /    139.111 (MB)
	Size of irrep 3 of <Ab|Cd> integrals:     17.272 (MW) /    138.179 (MB)
	Size of irrep 4 of <Ab|Cd> integrals:     15.023 (MW) /    120.187 (MB)
	Size of irrep 5 of <Ab|Cd> integrals:     19.342 (MW) /    154.739 (MB)
	Size of irrep 6 of <Ab|Cd> integrals:     19.184 (MW) /    153.475 (MB)
	Size of irrep 7 of <Ab|Cd> integrals:     19.342 (MW) /    154.739 (MB)
	Total:                                   146.822 (MW) /   1174.578 (MB)

	Size of irrep 0 of <IA|BC> integrals:      0.524 (MW) /      4.195 (MB)
	Size of irrep 1 of <IA|BC> integrals:      0.334 (MW) /      2.670 (MB)
	Size of irrep 2 of <IA|BC> integrals:      0.334 (MW) /      2.670 (MB)
	Size of irrep 3 of <IA|BC> integrals:      0.334 (MW) /      2.670 (MB)
	Size of irrep 4 of <IA|BC> integrals:      0.272 (MW) /      2.179 (MB)
	Size of irrep 5 of <IA|BC> integrals:      0.447 (MW) /      3.576 (MB)
	Size of irrep 6 of <IA|BC> integrals:      0.447 (MW) /      3.576 (MB)
	Size of irrep 7 of <IA|BC> integrals:      0.447 (MW) /      3.576 (MB)
	Total:                                     3.139 (MW) /     25.111 (MB)

	Size of irrep 0 of <ia|bc> integrals:      0.299 (MW) /      2.390 (MB)
	Size of irrep 1 of <ia|bc> integrals:      0.193 (MW) /      1.543 (MB)
	Size of irrep 2 of <ia|bc> integrals:      0.131 (MW) /      1.047 (MB)
	Size of irrep 3 of <ia|bc> integrals:      0.193 (MW) /      1.543 (MB)
	Size of irrep 4 of <ia|bc> integrals:      0.121 (MW) /      0.971 (MB)
	Size of irrep 5 of <ia|bc> integrals:      0.205 (MW) /      1.640 (MB)
	Size of irrep 6 of <ia|bc> integrals:      0.278 (MW) /      2.228 (MB)
	Size of irrep 7 of <ia|bc> integrals:      0.205 (MW) /      1.640 (MB)
	Total:                                     1.625 (MW) /     13.001 (MB)

	Size of irrep 0 of <Ia|Bc> integrals:      0.539 (MW) /      4.315 (MB)
	Size of irrep 1 of <Ia|Bc> integrals:      0.341 (MW) /      2.726 (MB)
	Size of irrep 2 of <Ia|Bc> integrals:      0.346 (MW) /      2.769 (MB)
	Size of irrep 3 of <Ia|Bc> integrals:      0.341 (MW) /      2.726 (MB)
	Size of irrep 4 of <Ia|Bc> integrals:      0.275 (MW) /      2.202 (MB)
	Size of irrep 5 of <Ia|Bc> integrals:      0.457 (MW) /      3.659 (MB)
	Size of irrep 6 of <Ia|Bc> integrals:      0.451 (MW) /      3.609 (MB)
	Size of irrep 7 of <Ia|Bc> integrals:      0.457 (MW) /      3.659 (MB)
	Total:                                     3.208 (MW) /     25.665 (MB)

	Size of irrep 0 of <iA|bC> integrals:      0.295 (MW) /      2.364 (MB)
	Size of irrep 1 of <iA|bC> integrals:      0.187 (MW) /      1.496 (MB)
	Size of irrep 2 of <iA|bC> integrals:      0.129 (MW) /      1.034 (MB)
	Size of irrep 3 of <iA|bC> integrals:      0.187 (MW) /      1.496 (MB)
	Size of irrep 4 of <iA|bC> integrals:      0.120 (MW) /      0.961 (MB)
	Size of irrep 5 of <iA|bC> integrals:      0.198 (MW) /      1.583 (MB)
	Size of irrep 6 of <iA|bC> integrals:      0.276 (MW) /      2.208 (MB)
	Size of irrep 7 of <iA|bC> integrals:      0.198 (MW) /      1.583 (MB)
	Total:                                     1.591 (MW) /     12.726 (MB)

	Size of irrep 0 of tIjAb amplitudes:       0.009 (MW) /      0.075 (MB)
	Size of irrep 1 of tIjAb amplitudes:       0.004 (MW) /      0.033 (MB)
	Size of irrep 2 of tIjAb amplitudes:       0.000 (MW) /      0.000 (MB)
	Size of irrep 3 of tIjAb amplitudes:       0.004 (MW) /      0.033 (MB)
	Size of irrep 4 of tIjAb amplitudes:       0.000 (MW) /      0.000 (MB)
	Size of irrep 5 of tIjAb amplitudes:       0.004 (MW) /      0.035 (MB)
	Size of irrep 6 of tIjAb amplitudes:       0.009 (MW) /      0.070 (MB)
	Size of irrep 7 of tIjAb amplitudes:       0.004 (MW) /      0.035 (MB)
	Total:                                     0.035 (MW) /      0.282 (MB)

	Nuclear Rep. energy          =      0.00000000000000
	SCF energy                   =    -98.84114505079430
	One-electron energy          =    -36.52711528082718
	Two-electron (AA) energy     =      4.91499795369071
	Two-electron (BB) energy     =      0.72927018159186
	Two-electron (AB) energy     =      7.52157803840861
	Two-electron energy          =     13.16584617369119
	Reference energy             =    -98.84114505079452

*** tstop() called on n411-011.vsc4.prov at Thu Jan 21 13:10:08 2021
Module time:
	user time   =      17.05 seconds =       0.28 minutes
	system time =      12.06 seconds =       0.20 minutes
	total time  =         66 seconds =       1.10 minutes
Total time:
	user time   =     127.04 seconds =       2.12 minutes
	system time =      15.17 seconds =       0.25 minutes
	total time  =        169 seconds =       2.82 minutes
            **************************
            *                        *
            *        CCENERGY        *
            *                        *
            **************************

    Nuclear Rep. energy (wfn)     =    0.000000000000000
    SCF energy          (wfn)     =  -98.841145050794296
    Reference energy    (file100) =  -98.841145050794523

    Input parameters:
    -----------------
    Wave function   =     CCSD_T
    Reference wfn   =     UHF
    Brueckner       =     No
    Memory (Mbytes) =     250000.0
    Maxiter         =     50
    R_Convergence   =     1.0e-07
    E_Convergence   =     1.0e-06
    Restart         =     Yes
    DIIS            =     Yes
    AO Basis        =     NONE
    ABCD            =     NEW
    Cache Level     =     2
    Cache Type      =     LRU
    Print Level     =     1
    Num. of threads =     48
    # Amps to Print =     10
    Print MP2 Amps? =     No
    Analyze T2 Amps =     No
    Print Pair Ener =     No
    Local CC        =     No
    SCS-MP2         =     False
    SCSN-MP2        =     False
    SCS-CCSD        =     False

MP2 correlation energy -0.1690427377171347
                Solving CC Amplitude Equations
                ------------------------------
  Iter             Energy              RMS        T1Diag      D1Diag    New D1Diag    D2Diag
  ----     ---------------------    ---------   ----------  ----------  ----------   --------
     0        -0.169042737717135    0.000e+00    0.000000    0.000000    0.000000    0.000000
     1        -0.178464603978050    1.989e-02    0.003748    0.000000    0.000000    0.000000
     2        -0.181290809251113    6.614e-03    0.005205    0.000000    0.000000    0.000000
     3        -0.181324473846687    1.706e-03    0.005536    0.000000    0.000000    0.000000
     4        -0.181322903895231    5.786e-04    0.005562    0.000000    0.000000    0.000000
     5        -0.181331259080629    1.702e-04    0.005556    0.000000    0.000000    0.000000
     6        -0.181331473857763    4.064e-05    0.005552    0.000000    0.000000    0.000000
     7        -0.181331575140487    1.064e-05    0.005552    0.000000    0.000000    0.000000
     8        -0.181331514358411    2.452e-06    0.005552    0.000000    0.000000    0.000000
     9        -0.181331487725549    5.514e-07    0.005552    0.000000    0.000000    0.000000
    10        -0.181331497159669    1.367e-07    0.005552    0.000000    0.000000    0.000000
    11        -0.181331496686758    3.966e-08    0.005552    0.000000    0.000000    0.000000

    Iterations converged.


    Largest TIA Amplitudes:
              1 110        -0.0032221825
              3 160        -0.0032221825
              0   0        -0.0030590363
              2 135        -0.0030137275
              0   3         0.0029339630
              1 109        -0.0026113510
              3 159        -0.0026113510
              0   5         0.0024218505
              2 134        -0.0023861779
              0  11        -0.0016350373

    Largest Tia Amplitudes:
              0   4        -0.0052142776
              0  10         0.0045867363
              0   6         0.0029895691
              1 142         0.0026506525
              0   3        -0.0025982840
              0   2         0.0025521809
              0  15         0.0017933737
              0  17        -0.0017266407
              1 148         0.0015046165
              0   0         0.0014855280

    Largest TIJAB Amplitudes:
      3   2 163 138        -0.0097822324
      2   1 138 113        -0.0097822324
      3   1 163 113        -0.0096446879
      3   1  62  10        -0.0090625351
      3   2  42  11        -0.0082463681
      2   1  82  11         0.0082463681
      3   1  59   4        -0.0078198505
      3   2 166 138        -0.0075135461
      2   1 138 116        -0.0075135461
      3   1  59  10         0.0074813871

    Largest Tijab Amplitudes:
      1   0 109  79         0.0103958935
      1   0 160  39         0.0103958935
      1   0 109  82        -0.0091140403
      1   0 160  42        -0.0091140403
      1   0 139   3         0.0053504477
      1   0 139   6        -0.0053495335
      1   0 109  78        -0.0052312238
      1   0 160  38        -0.0052312238
      1   0 142   6        -0.0045133476
      1   0 109  85         0.0042422574

    Largest TIjAb Amplitudes:
      1   0   4 109        -0.0191338170
      1   0  59 160        -0.0191338170
      3   0   4 160         0.0191338170
      3   0  59 109        -0.0191338170
      1   0  10 109         0.0188247719
      1   0  62 160         0.0188247719
      3   0  10 160        -0.0188247719
      3   0  62 109         0.0188247719
      2   0  39 160        -0.0185967336
      2   0  79 109        -0.0185967336

    SCF energy       (wfn)                    =  -98.841145050794296
    Reference energy (file100)                =  -98.841145050794523

    Opposite-spin MP2 correlation energy      =   -0.130347774396959
    Same-spin MP2 correlation energy          =   -0.038694963320176
    Singles MP2 correlation energy            =   -0.000000000000000
    MP2 correlation energy                    =   -0.169042737717135
      * MP2 total energy                      =  -99.010187788511658

    Opposite-spin CCSD correlation energy     =   -0.142063816411149
    Same-spin CCSD correlation energy         =   -0.039267680275609
    Singles CCSD correlation energy           =    0.000000000000000
    CCSD correlation energy                   =   -0.181331496686758
      * CCSD total energy                     =  -99.022476547481276

            **************************
            *                        *
            *        CCTRIPLES       *
            *                        *
            **************************


    Wave function   =    CCSD_T
    Reference wfn   =      UHF

    Nuclear Rep. energy (wfn)                =    0.000000000000000
    SCF energy          (wfn)                =  -98.841145050794296
    Reference energy    (file100)            =  -98.841145050794523
    CCSD energy         (file100)            =   -0.181331496686758
    Total CCSD energy   (file100)            =  -99.022476547481276

    Number of ijk index combinations:
    Spin Case AAA:                                   4
    Spin Case BBB:                                   0
    Spin Case AAB:                                  12
    Spin Case ABB:                                   4
    AAA (T) energy                             =   -0.000147778612610
    BBB (T) energy                             =    0.000000000000000
    AAB (T) energy                             =   -0.002029315599308
    ABB (T) energy                             =   -0.000612388119588
    (T) energy                                   =   -0.002789482331506
      * CCSD(T) total energy                     =  -99.025266029812784


    Psi4 stopped on: Thursday, 21 January 2021 01:10PM
    Psi4 wall time for execution: 0:03:40.08

*** Psi4 exiting successfully. Buy a developer a beer!
