
    -----------------------------------------------------------------------
          Psi4: An Open-Source Ab Initio Electronic Structure Package
                               Psi4 1.4a3.dev88 

                         Git: Rev {master} 262e345 


    D. G. A. Smith, L. A. Burns, A. C. Simmonett, R. M. Parrish,
    M. C. Schieber, R. Galvelis, P. Kraus, H. Kruse, R. Di Remigio,
    A. Alenaizan, A. M. James, S. Lehtola, J. P. Misiewicz, M. Scheurer,
    R. A. Shaw, J. B. Schriber, Y. Xie, Z. L. Glick, D. A. Sirianni,
    J. S. O'Brien, J. M. Waldrop, A. Kumar, E. G. Hohenstein,
    B. P. Pritchard, B. R. Brooks, H. F. Schaefer III, A. Yu. Sokolov,
    K. Patkowski, A. E. DePrince III, U. Bozkaya, R. A. King,
    F. A. Evangelista, J. M. Turney, T. D. Crawford, C. D. Sherrill,
    J. Chem. Phys. 152(18) 184108 (2020). https://doi.org/10.1063/5.0006002

                            Additional Code Authors
    E. T. Seidl, C. L. Janssen, E. F. Valeev, M. L. Leininger,
    J. F. Gonthier, R. M. Richard, H. R. McAlexander, M. Saitow, X. Wang,
    P. Verma, and M. H. Lechner

             Previous Authors, Complete List of Code Contributors,
                       and Citations for Specific Modules
    https://github.com/psi4/psi4/blob/master/codemeta.json
    https://github.com/psi4/psi4/graphs/contributors
    http://psicode.org/psi4manual/master/introduction.html#citing-psifour

    -----------------------------------------------------------------------


    Psi4 started on: Saturday, 23 January 2021 08:08AM

    Process ID: 436792
    Host:       n412-047.vsc4.prov
    PSIDATADIR: /home/fs71337/gallo4/psi4/eri-6/psi4/build/stage/share/psi4
    Memory:     500.0 MiB
    Threads:    48
    
  ==> Input File <==

--------------------------------------------------------------------------
# Any line starting with the # character is a comment line
memory 250000 mb
molecule molecule{
0 1
N          0.0000000000        0.0000000000       -0.5570422157
N          0.0000000000        0.0000000000        0.5570422157
}

set {
  reference rhf
  basis aug-cc-pV(6+d)Z
  scf_type OUT_OF_CORE
  freeze_core true
}

energy('ccsd(t)')
--------------------------------------------------------------------------

  Memory set to 232.831 GiB by Python driver.

Scratch directory: /binfl/lv71337/airmler/temp/

*** tstart() called on n412-047.vsc4.prov
*** at Sat Jan 23 08:08:29 2021

   => Loading Basis Set <=

    Name: AUG-CC-PV(6+D)Z
    Role: ORBITAL
    Keyword: BASIS
    atoms 1-2 entry N          line   363 file /home/fs71337/gallo4/psi4/eri-6/psi4/build/stage/share/psi4/basis/aug-cc-pv_6pd_z.gbs 


         ---------------------------------------------------------
                                   SCF
               by Justin Turney, Rob Parrish, Andy Simmonett
                          and Daniel G. A. Smith
                              RHF Reference
                       48 Threads, 238418 MiB Core
         ---------------------------------------------------------

  ==> Geometry <==

    Molecular point group: d2h
    Full point group: D_inf_h

    Geometry (in Angstrom), charge = 0, multiplicity = 1:

       Center              X                  Y                   Z               Mass       
    ------------   -----------------  -----------------  -----------------  -----------------
         N            0.000000000000     0.000000000000    -0.557042215700    14.003074004430
         N            0.000000000000     0.000000000000     0.557042215700    14.003074004430

  Running in d2h symmetry.

  Rotational constants: A = ************  B =      1.93984  C =      1.93984 [cm^-1]
  Rotational constants: A = ************  B =  58155.07236  C =  58155.07236 [MHz]
  Nuclear repulsion =   23.274432881398223

  Charge       = 0
  Multiplicity = 1
  Electrons    = 14
  Nalpha       = 7
  Nbeta        = 7

  ==> Algorithm <==

  SCF Algorithm Type is OUT_OF_CORE.
  DIIS enabled.
  MOM disabled.
  Fractional occupation disabled.
  Guess Type is SAD.
  Energy threshold   = 1.00e-08
  Density threshold  = 1.00e-08
  Integral threshold = 1.00e-12

  ==> Primary Basis <==

  Basis Set: AUG-CC-PV(6+D)Z
    Blend: AUG-CC-PV(6+D)Z
    Number of shells: 70
    Number of basis function: 378
    Number of Cartesian functions: 588
    Spherical Harmonics?: true
    Max angular momentum: 6

  ==> Integral Setup <==

  ==> DiskJK: Disk-Based J/K Matrices <==

    J tasked:                  Yes
    K tasked:                  Yes
    wK tasked:                  No
    Memory [MiB]:           178813
    Schwarz Cutoff:          1E-12

  Minimum eigenvalue in the overlap matrix is 2.4363805087E-06.
  Reciprocal condition number of the overlap matrix is 3.2784075281E-07.
    Using symmetric orthogonalization.

  ==> Pre-Iterations <==

  SCF Guess: Superposition of Atomic Densities via on-the-fly atomic UHF (no occupation information).


 WARNING: Atomic UHF is not converging! Try casting from a smaller basis or call Rob at CCMST.
   -------------------------
    Irrep   Nso     Nmo    
   -------------------------
     Ag        66      66 
     B1g       31      31 
     B2g       46      46 
     B3g       46      46 
     Au        31      31 
     B1u       66      66 
     B2u       46      46 
     B3u       46      46 
   -------------------------
    Total     378     378
   -------------------------

  ==> Iterations <==

                        Total Energy        Delta E     RMS |[F,P]|

   @RHF iter SAD:   146.27317504282053    1.46273e+02   0.00000e+00 
   @RHF iter   1:  -105.60347646996881   -2.51877e+02   2.82402e-02 DIIS
   @RHF iter   2:  -107.99761053220581   -2.39413e+00   9.81944e-03 DIIS
   @RHF iter   3:  -108.94280686073290   -9.45196e-01   2.51694e-03 DIIS
   @RHF iter   4:  -108.98791788990013   -4.51110e-02   2.73270e-04 DIIS
   @RHF iter   5:  -108.98900873234530   -1.09084e-03   4.54643e-05 DIIS
   @RHF iter   6:  -108.98904593150640   -3.71992e-05   7.02497e-06 DIIS
   @RHF iter   7:  -108.98904666569040   -7.34184e-07   1.18850e-06 DIIS
   @RHF iter   8:  -108.98904668138204   -1.56916e-08   1.23587e-07 DIIS
   @RHF iter   9:  -108.98904668157185   -1.89814e-10   1.07366e-08 DIIS
   @RHF iter  10:  -108.98904668157421   -2.35900e-12   9.79474e-10 DIIS
  Energy and wave function converged.


  ==> Post-Iterations <==

    Orbital Energies [Eh]
    ---------------------

    Doubly Occupied:                                                      

       1Ag   -15.688945     1B1u  -15.685722     2Ag    -1.459122  
       2B1u   -0.784525     3Ag    -0.633002     1B3u   -0.607310  
       1B2u   -0.607310  

    Virtual:                                                              

       3B1u    0.049601     4Ag     0.069000     2B3u    0.070091  
       2B2u    0.070091     1B2g    0.088043     1B3g    0.088043  
       5Ag     0.096748     2B2g    0.151290     2B3g    0.151290  
       4B1u    0.164949     1B1g    0.248966     6Ag     0.248966  
       7Ag     0.261225     3B3u    0.286246     3B2u    0.286246  
       5B1u    0.299962     1Au     0.302123     6B1u    0.302123  
       4B3u    0.326342     4B2u    0.326342     3B2g    0.328330  
       3B3g    0.328330     8Ag     0.337366     7B1u    0.386108  
       4B2g    0.440260     4B3g    0.440260     9Ag     0.560751  
       5B2u    0.586311     5B3u    0.586311     8B1u    0.658863  
       2Au     0.678947     9B1u    0.678947     6B3u    0.687638  
       6B2u    0.687638     2B1g    0.699672    10Ag     0.699672  
      11Ag     0.703222     5B3g    0.722052     5B2g    0.722052  
      10B1u    0.755229     6B3g    0.760974     6B2g    0.760974  
      12Ag     0.765734     3B1g    0.765734    11B1u    0.892930  
       7B3u    0.898943     7B2u    0.898943    13Ag     0.902735  
       7B2g    1.065230     7B3g    1.065230     8B3u    1.090498  
       8B2u    1.090498     3Au     1.135420    12B1u    1.135420  
      13B1u    1.241164    14Ag     1.360514    14B1u    1.393942  
       8B2g    1.420943     8B3g    1.420943    15Ag     1.540095  
       4B1g    1.540095    16Ag     1.548736     9B3u    1.675753  
       9B2u    1.675753    17Ag     1.700074     5B1g    1.700074  
       9B2g    1.729274     9B3g    1.729274    10B3u    1.764728  
      10B2u    1.764728    15B1u    1.775365     4Au     1.803200  
      16B1u    1.803200    11B3u    1.822438    11B2u    1.822438  
       5Au     1.827518    17B1u    1.827518    18Ag     1.835528  
       6B1g    1.835528    12B3u    1.918620    12B2u    1.918620  
      19Ag     1.976326    10B2g    2.016615    10B3g    2.016615  
       6Au     2.037818    18B1u    2.037818    20Ag     2.248727  
      19B1u    2.278317    11B2g    2.309500    11B3g    2.309500  
      12B2g    2.314199    12B3g    2.314199    21Ag     2.315715  
       7B1g    2.315715    13B3u    2.369621    13B2u    2.369621  
      20B1u    2.401933    22Ag     2.430400    13B2g    2.560954  
      13B3g    2.560954    14B3u    2.932808    14B2u    2.932808  
       7Au     3.146253    21B1u    3.146253    22B1u    3.232604  
      15B2u    3.274749    15B3u    3.274749     8B1g    3.529631  
      23Ag     3.529631    14B2g    3.667688    14B3g    3.667688  
      15B2g    3.708597    15B3g    3.708597    24Ag     3.759901  
      25Ag     3.835647    26Ag     3.886346     9B1g    3.886346  
      16B3u    3.892735    16B2u    3.892735    23B1u    3.929112  
      16B2g    3.947425    16B3g    3.947425    24B1u    4.055460  
       8Au     4.055460     9Au     4.064774    25B1u    4.064774  
      26B1u    4.075963    27Ag     4.084682    10B1g    4.084682  
      17B2g    4.094303    17B3g    4.094303    17B3u    4.120091  
      17B2u    4.120091    28Ag     4.169528    29Ag     4.205920  
      11B1g    4.205920    18B2u    4.206339    18B3u    4.206339  
      19B3u    4.304811    19B2u    4.304811    10Au     4.345690  
      27B1u    4.345690    18B2g    4.413511    18B3g    4.413511  
      20B3u    4.488815    20B2u    4.488815    12B1g    4.601200  
      30Ag     4.601200    28B1u    4.614558    29B1u    4.758869  
      11Au     4.758869    21B3u    4.803968    21B2u    4.803968  
      31Ag     4.913740    19B2g    5.297488    19B3g    5.297488  
      12Au     5.486163    30B1u    5.486163    32Ag     5.510768  
      20B2g    5.688333    20B3g    5.688333    31B1u    5.876639  
      13B1g    5.931171    33Ag     5.931171    22B3u    5.933871  
      22B2u    5.933871    21B2g    6.146996    21B3g    6.146996  
      22B2g    6.330423    22B3g    6.330423    32B1u    6.507899  
      34Ag     6.645020    14B1g    6.966196    35Ag     6.966196  
      23B2u    6.989260    23B3u    6.989260    13Au     7.050505  
      33B1u    7.050505    14Au     7.444133    34B1u    7.444133  
      35B1u    7.578208    24B2u    7.687718    24B3u    7.687718  
      15B1g    7.702192    36Ag     7.702192    16B1g    8.040782  
      37Ag     8.040782    38Ag     8.104275    23B2g    8.179896  
      23B3g    8.179896    25B2u    8.194073    25B3u    8.194073  
      24B2g    8.269427    24B3g    8.269427    39Ag     8.302593  
      17B1g    8.302593    25B2g    8.326544    25B3g    8.326544  
      26B3u    8.378588    26B2u    8.378588    26B2g    8.447400  
      26B3g    8.447400    40Ag     8.453480    36B1u    8.496794  
      15Au     8.496794    27B2g    8.590115    27B3g    8.590115  
      27B3u    8.624803    27B2u    8.624803    37B1u    8.646417  
      41Ag     8.672915    18B1g    8.672915    38B1u    8.696052  
      16Au     8.696052    28B2u    8.756483    28B3u    8.756483  
      29B3u    8.778902    29B2u    8.778902    42Ag     8.911625  
      17Au     9.249222    39B1u    9.249222    28B2g    9.332603  
      28B3g    9.332603    40B1u    9.377537    30B3u    9.422180  
      30B2u    9.422180    31B2u    9.775462    31B3u    9.775462  
      41B1u   10.009027    18Au    10.035090    42B1u   10.035090  
      19B1g   10.100496    43Ag    10.100496    20B1g   10.347361  
      44Ag    10.347361    19Au    10.370327    43B1u   10.370327  
      45Ag    10.736994    32B3u   10.781496    32B2u   10.781496  
      29B2g   10.874427    29B3g   10.874427    30B2g   11.133153  
      30B3g   11.133153    46Ag    11.136298    21B1g   11.136298  
      20Au    11.431072    44B1u   11.431072    21Au    11.612212  
      45B1u   11.612212    31B2g   11.660448    31B3g   11.660448  
      47Ag    12.166735    46B1u   12.197979    32B3g   12.360549  
      32B2g   12.360549    33B2u   12.483453    33B3u   12.483453  
      33B2g   12.540817    33B3g   12.540817    47B1u   13.061288  
      48Ag    13.161224    49Ag    13.341144    22B1g   13.341144  
      34B2u   14.927159    34B3u   14.927159    22Au    15.055761  
      48B1u   15.055761    34B3g   15.758398    34B2g   15.758398  
      49B1u   16.073395    23B1g   16.764837    50Ag    16.764837  
      35B2u   16.974420    35B3u   16.974420    36B3u   17.106472  
      36B2u   17.106472    24B1g   17.159096    51Ag    17.159096  
      23Au    17.377643    50B1u   17.377643    25B1g   17.725442  
      52Ag    17.725442    35B2g   17.881465    35B3g   17.881465  
      53Ag    17.975232    51B1u   18.144077    54Ag    18.235333  
      37B2u   18.254366    37B3u   18.254366    24Au    18.551313  
      52B1u   18.551313    38B2u   18.592444    38B3u   18.592444  
      36B3g   18.688263    36B2g   18.688263    25Au    18.911961  
      53B1u   18.911961    37B2g   19.174517    37B3g   19.174517  
      39B2u   19.890639    39B3u   19.890639    54B1u   19.932034  
      40B3u   20.102735    40B2u   20.102735    38B3g   20.162461  
      38B2g   20.162461    26B1g   20.181741    55Ag    20.181741  
      39B2g   20.269608    39B3g   20.269608    27B1g   20.483556  
      56Ag    20.483556    57Ag    20.504242    41B3u   20.517024  
      41B2u   20.517024    26Au    20.706954    55B1u   20.706954  
      40B2g   20.888908    40B3g   20.888908    42B2u   20.901833  
      42B3u   20.901833    56B1u   21.639532    27Au    21.751652  
      57B1u   21.751652    58Ag    21.995962    59Ag    22.094982  
      28B1g   22.094982    41B2g   22.547492    41B3g   22.547492  
      60Ag    22.647801    42B3g   22.653066    42B2g   22.653066  
      43B2u   23.455529    43B3u   23.455529    58B1u   23.660737  
      61Ag    23.813686    29B1g   23.813686    44B3u   23.993891  
      44B2u   23.993891    59B1u   24.029972    28Au    24.029972  
      29Au    24.302243    60B1u   24.302243    43B3g   24.670296  
      43B2g   24.670296    30B1g   24.869792    62Ag    24.869792  
      44B2g   25.043250    44B3g   25.043250    61B1u   25.954885  
      63Ag    26.010227    30Au    26.529286    62B1u   26.529286  
      45B2u   27.264178    45B3u   27.264178    45B3g   28.115085  
      45B2g   28.115085    64Ag    28.501572    31B1g   28.501572  
      63B1u   29.287066    46B2u   29.890004    46B3u   29.890004  
      31Au    30.118066    64B1u   30.118066    65Ag    32.917699  
      46B3g   33.271490    46B2g   33.271490    65B1u   34.553494  
      66Ag    82.631083    66B1u   83.970732  

    Final Occupation by Irrep:
             Ag   B1g   B2g   B3g    Au   B1u   B2u   B3u 
    DOCC [     3,    0,    0,    0,    0,    2,    1,    1 ]

  @RHF Final Energy:  -108.98904668157421

   => Energetics <=

    Nuclear Repulsion Energy =             23.2744328813982229
    One-Electron Energy =                -193.5950859895684175
    Two-Electron Energy =                  61.3316064265959966
    Total Energy =                       -108.9890466815742087

Computation Completed


Properties will be evaluated at   0.000000,   0.000000,   0.000000 [a0]

Properties computed using the SCF density matrix

  Nuclear Dipole Moment: [e a0]
     X:     0.0000      Y:     0.0000      Z:    -0.0000

  Electronic Dipole Moment: [e a0]
     X:     0.0000      Y:     0.0000      Z:     0.0000

  Dipole Moment: [e a0]
     X:     0.0000      Y:     0.0000      Z:    -0.0000     Total:     0.0000

  Dipole Moment: [D]
     X:     0.0000      Y:     0.0000      Z:    -0.0000     Total:     0.0000


*** tstop() called on n412-047.vsc4.prov at Sat Jan 23 08:18:06 2021
Module time:
	user time   =     529.84 seconds =       8.83 minutes
	system time =      26.92 seconds =       0.45 minutes
	total time  =        577 seconds =       9.62 minutes
Total time:
	user time   =     529.84 seconds =       8.83 minutes
	system time =      26.92 seconds =       0.45 minutes
	total time  =        577 seconds =       9.62 minutes

*** tstart() called on n412-047.vsc4.prov
*** at Sat Jan 23 08:18:06 2021


	Wfn Parameters:
	--------------------
	Wavefunction         = CCSD_T
	Number of irreps     = 8
	Number of MOs        = 378
	Number of active MOs = 376
	AO-Basis             = NONE
	Semicanonical        = false
	Reference            = RHF
	Print Level          = 1

	IRREP	# MOs	# FZDC	# DOCC	# SOCC	# VIRT	# FZVR
	-----	-----	------	------	------	------	------
	 Ag	   66	    1	    2	    0	    63	    0
	 B1g	   31	    0	    0	    0	    31	    0
	 B2g	   46	    0	    0	    0	    46	    0
	 B3g	   46	    0	    0	    0	    46	    0
	 Au	   31	    0	    0	    0	    31	    0
	 B1u	   66	    1	    1	    0	    64	    0
	 B2u	   46	    0	    1	    0	    45	    0
	 B3u	   46	    0	    1	    0	    45	    0
	Transforming integrals...
	IWL integrals will be deleted.
	(OO|OO)...
	Presorting SO-basis two-electron integrals.
	Sorting File: SO Ints (nn|nn) nbuckets = 1
	Constructing frozen core operators
	Starting first half-transformation.
	Sorting half-transformed integrals.
	First half integral transformation complete.
	Starting second half-transformation.
	Two-electron integral transformation complete.
	(OO|OV)...
	Starting second half-transformation.
	Two-electron integral transformation complete.
	(OO|VV)...
	Starting second half-transformation.
	Two-electron integral transformation complete.
	(OV|OO)...
	Starting first half-transformation.
	Sorting half-transformed integrals.
	First half integral transformation complete.
	Starting second half-transformation.
	Two-electron integral transformation complete.
	(OV|OV)...
	Starting second half-transformation.
	Two-electron integral transformation complete.
	(OV|VV)...
	Starting second half-transformation.
	Two-electron integral transformation complete.
	(VV|OO)...
	Starting first half-transformation.
	Sorting half-transformed integrals.
	First half integral transformation complete.
	Starting second half-transformation.
	Two-electron integral transformation complete.
	(VV|OV)...
	Starting second half-transformation.
	Two-electron integral transformation complete.
	(VV|VV)...
	Starting second half-transformation.
	Two-electron integral transformation complete.
	Frozen core energy     =   -100.86893164304482

	Size of irrep 0 of <ab|cd> integrals:    333.756 (MW) /   2670.051 (MB)
	Size of irrep 1 of <ab|cd> integrals:    261.016 (MW) /   2088.131 (MB)
	Size of irrep 2 of <ab|cd> integrals:    295.771 (MW) /   2366.170 (MB)
	Size of irrep 3 of <ab|cd> integrals:    295.771 (MW) /   2366.170 (MB)
	Size of irrep 4 of <ab|cd> integrals:    260.952 (MW) /   2087.614 (MB)
	Size of irrep 5 of <ab|cd> integrals:    333.647 (MW) /   2669.174 (MB)
	Size of irrep 6 of <ab|cd> integrals:    295.840 (MW) /   2366.720 (MB)
	Size of irrep 7 of <ab|cd> integrals:    295.840 (MW) /   2366.720 (MB)
	Total:                                  2372.594 (MW) /  18980.749 (MB)

	Size of irrep 0 of <ia|bc> integrals:      5.115 (MW) /     40.923 (MB)
	Size of irrep 1 of <ia|bc> integrals:      2.957 (MW) /     23.652 (MB)
	Size of irrep 2 of <ia|bc> integrals:      3.990 (MW) /     31.919 (MB)
	Size of irrep 3 of <ia|bc> integrals:      3.990 (MW) /     31.919 (MB)
	Size of irrep 4 of <ia|bc> integrals:      2.988 (MW) /     23.908 (MB)
	Size of irrep 5 of <ia|bc> integrals:      5.169 (MW) /     41.354 (MB)
	Size of irrep 6 of <ia|bc> integrals:      3.956 (MW) /     31.648 (MB)
	Size of irrep 7 of <ia|bc> integrals:      3.956 (MW) /     31.648 (MB)
	Total:                                    32.122 (MW) /    256.972 (MB)

	Size of irrep 0 of tijab amplitudes:       0.128 (MW) /      1.023 (MB)
	Size of irrep 1 of tijab amplitudes:       0.032 (MW) /      0.258 (MB)
	Size of irrep 2 of tijab amplitudes:       0.034 (MW) /      0.275 (MB)
	Size of irrep 3 of tijab amplitudes:       0.034 (MW) /      0.275 (MB)
	Size of irrep 4 of tijab amplitudes:       0.000 (MW) /      0.000 (MB)
	Size of irrep 5 of tijab amplitudes:       0.073 (MW) /      0.585 (MB)
	Size of irrep 6 of tijab amplitudes:       0.069 (MW) /      0.550 (MB)
	Size of irrep 7 of tijab amplitudes:       0.069 (MW) /      0.550 (MB)
	Total:                                     0.440 (MW) /      3.517 (MB)

	Nuclear Rep. energy          =     23.27443288139822
	SCF energy                   =   -108.98904668157421
	One-electron energy          =    -54.60655736155487
	Two-electron energy          =     23.21200944162787
	Reference energy             =   -108.98904668157360

*** tstop() called on n412-047.vsc4.prov at Sat Jan 23 08:24:48 2021
Module time:
	user time   =     123.34 seconds =       2.06 minutes
	system time =      89.65 seconds =       1.49 minutes
	total time  =        402 seconds =       6.70 minutes
Total time:
	user time   =     653.18 seconds =      10.89 minutes
	system time =     116.57 seconds =       1.94 minutes
	total time  =        979 seconds =      16.32 minutes
            **************************
            *                        *
            *        CCENERGY        *
            *                        *
            **************************

    Nuclear Rep. energy (wfn)     =   23.274432881398223
    SCF energy          (wfn)     = -108.989046681574209
    Reference energy    (file100) = -108.989046681573598

    Input parameters:
    -----------------
    Wave function   =     CCSD_T
    Reference wfn   =     RHF
    Brueckner       =     No
    Memory (Mbytes) =     250000.0
    Maxiter         =     50
    R_Convergence   =     1.0e-07
    E_Convergence   =     1.0e-06
    Restart         =     Yes
    DIIS            =     Yes
    AO Basis        =     NONE
    ABCD            =     NEW
    Cache Level     =     2
    Cache Type      =     LOW
    Print Level     =     1
    Num. of threads =     48
    # Amps to Print =     10
    Print MP2 Amps? =     No
    Analyze T2 Amps =     No
    Print Pair Ener =     No
    Local CC        =     No
    SCS-MP2         =     False
    SCSN-MP2        =     False
    SCS-CCSD        =     False

MP2 correlation energy -0.4191527510069726
                Solving CC Amplitude Equations
                ------------------------------
  Iter             Energy              RMS        T1Diag      D1Diag    New D1Diag    D2Diag
  ----     ---------------------    ---------   ----------  ----------  ----------   --------
     0        -0.419152751006973    0.000e+00    0.000000    0.000000    0.000000    0.169526
     1        -0.388965470114439    6.442e-02    0.013215    0.027095    0.027095    0.156065
     2        -0.403799507466070    2.699e-02    0.012187    0.024719    0.024719    0.167093
     3        -0.406727249614107    9.119e-03    0.013885    0.028003    0.028003    0.172879
     4        -0.406926256353032    2.290e-03    0.013953    0.028064    0.028064    0.174208
     5        -0.407028769516874    6.289e-04    0.013996    0.028143    0.028143    0.174641
     6        -0.407031575885388    1.306e-04    0.013988    0.028132    0.028132    0.174671
     7        -0.407033979667966    2.998e-05    0.013987    0.028130    0.028130    0.174678
     8        -0.407034753778693    7.837e-06    0.013986    0.028129    0.028129    0.174680
     9        -0.407034546660700    1.797e-06    0.013986    0.028129    0.028129    0.174680
    10        -0.407034492335635    5.274e-07    0.013986    0.028129    0.028129    0.174680
    11        -0.407034523389412    1.788e-07    0.013986    0.028129    0.028129    0.174680
    12        -0.407034517714248    5.692e-08    0.013986    0.028129    0.028129    0.174680

    Iterations converged.


    Largest TIA Amplitudes:
              3 286         0.0126427515
              4 331         0.0126427515
              3 287         0.0118243497
              4 332         0.0118243497
              3 282         0.0115388457
              4 327         0.0115388456
              3 283         0.0102809441
              4 328         0.0102809441
              2 225         0.0096335945
              1   0         0.0078547002

    Largest TIjAb Amplitudes:
      4   4  95  95        -0.0730604112
      3   3 141 141        -0.0730604112
      3   4 141  95        -0.0457609428
      4   3  95 141        -0.0457609428
      2   2  95  95        -0.0328957454
      2   2 141 141        -0.0328957454
      4   4  95  96        -0.0297963594
      4   4  96  95        -0.0297963594
      3   3 141 142        -0.0297963594
      3   3 142 141        -0.0297963594

    SCF energy       (wfn)                    = -108.989046681574209
    Reference energy (file100)                = -108.989046681573598

    Opposite-spin MP2 correlation energy      =   -0.317040025933017
    Same-spin MP2 correlation energy          =   -0.102112725073955
    Singles MP2 correlation energy            =   -0.000000000000000
    MP2 correlation energy                    =   -0.419152751006973
      * MP2 total energy                      = -109.408199432580574

    Opposite-spin CCSD correlation energy     =   -0.323103444678252
    Same-spin CCSD correlation energy         =   -0.083931073035989
    Singles CCSD correlation energy           =    0.000000000000000
    CCSD correlation energy                   =   -0.407034517714248
      * CCSD total energy                     = -109.396081199287849

            **************************
            *                        *
            *        CCTRIPLES       *
            *                        *
            **************************


    Wave function   =    CCSD_T
    Reference wfn   =      RHF

    Nuclear Rep. energy (wfn)                =   23.274432881398223
    SCF energy          (wfn)                = -108.989046681574209
    Reference energy    (file100)            = -108.989046681573598
    CCSD energy         (file100)            =   -0.407034517714248
    Total CCSD energy   (file100)            = -109.396081199287849

    Number of ijk index combinations:               35
    Memory available in words        :     31250000000
    ~Words needed per explicit thread:         1048576
    Number of threads for explicit ijk threading:   48

    (T) energy                                =   -0.021743658888522
      * CCSD(T) total energy                  = -109.417824858176374


    Psi4 stopped on: Saturday, 23 January 2021 08:28AM
    Psi4 wall time for execution: 0:19:56.22

*** Psi4 exiting successfully. Buy a developer a beer!
