
    -----------------------------------------------------------------------
          Psi4: An Open-Source Ab Initio Electronic Structure Package
                               Psi4 1.4a3.dev88 

                         Git: Rev {master} 262e345 


    D. G. A. Smith, L. A. Burns, A. C. Simmonett, R. M. Parrish,
    M. C. Schieber, R. Galvelis, P. Kraus, H. Kruse, R. Di Remigio,
    A. Alenaizan, A. M. James, S. Lehtola, J. P. Misiewicz, M. Scheurer,
    R. A. Shaw, J. B. Schriber, Y. Xie, Z. L. Glick, D. A. Sirianni,
    J. S. O'Brien, J. M. Waldrop, A. Kumar, E. G. Hohenstein,
    B. P. Pritchard, B. R. Brooks, H. F. Schaefer III, A. Yu. Sokolov,
    K. Patkowski, A. E. DePrince III, U. Bozkaya, R. A. King,
    F. A. Evangelista, J. M. Turney, T. D. Crawford, C. D. Sherrill,
    J. Chem. Phys. 152(18) 184108 (2020). https://doi.org/10.1063/5.0006002

                            Additional Code Authors
    E. T. Seidl, C. L. Janssen, E. F. Valeev, M. L. Leininger,
    J. F. Gonthier, R. M. Richard, H. R. McAlexander, M. Saitow, X. Wang,
    P. Verma, and M. H. Lechner

             Previous Authors, Complete List of Code Contributors,
                       and Citations for Specific Modules
    https://github.com/psi4/psi4/blob/master/codemeta.json
    https://github.com/psi4/psi4/graphs/contributors
    http://psicode.org/psi4manual/master/introduction.html#citing-psifour

    -----------------------------------------------------------------------


    Psi4 started on: Friday, 22 January 2021 01:18AM

    Process ID: 28962
    Host:       n412-045.vsc4.prov
    PSIDATADIR: /home/fs71337/gallo4/psi4/psi4/build/stage/share/psi4
    Memory:     500.0 MiB
    Threads:    48
    
  ==> Input File <==

--------------------------------------------------------------------------
# Any line starting with the # character is a comment line
memory 250000 mb
molecule molecule{
0 1
N          0.0000000000        0.0000000000       -0.5570422157
N          0.0000000000        0.0000000000        0.5570422157
}

set {
  reference rhf
  basis aug-cc-pV(5+d)Z
  scf_type OUT_OF_CORE
  freeze_core true
}

energy('ccsd(t)')
--------------------------------------------------------------------------

  Memory set to 232.831 GiB by Python driver.

Scratch directory: /binfl/lv71337/airmler/temp/

*** tstart() called on n412-045.vsc4.prov
*** at Fri Jan 22 01:18:18 2021

   => Loading Basis Set <=

    Name: AUG-CC-PV(5+D)Z
    Role: ORBITAL
    Keyword: BASIS
    atoms 1-2 entry N          line   491 file /home/fs71337/gallo4/psi4/psi4/build/stage/share/psi4/basis/aug-cc-pv_5pd_z.gbs 


         ---------------------------------------------------------
                                   SCF
               by Justin Turney, Rob Parrish, Andy Simmonett
                          and Daniel G. A. Smith
                              RHF Reference
                       48 Threads, 238418 MiB Core
         ---------------------------------------------------------

  ==> Geometry <==

    Molecular point group: d2h
    Full point group: D_inf_h

    Geometry (in Angstrom), charge = 0, multiplicity = 1:

       Center              X                  Y                   Z               Mass       
    ------------   -----------------  -----------------  -----------------  -----------------
         N            0.000000000000     0.000000000000    -0.557042215700    14.003074004430
         N            0.000000000000     0.000000000000     0.557042215700    14.003074004430

  Running in d2h symmetry.

  Rotational constants: A = ************  B =      1.93984  C =      1.93984 [cm^-1]
  Rotational constants: A = ************  B =  58155.07236  C =  58155.07236 [MHz]
  Nuclear repulsion =   23.274432881398223

  Charge       = 0
  Multiplicity = 1
  Electrons    = 14
  Nalpha       = 7
  Nbeta        = 7

  ==> Algorithm <==

  SCF Algorithm Type is OUT_OF_CORE.
  DIIS enabled.
  MOM disabled.
  Fractional occupation disabled.
  Guess Type is SAD.
  Energy threshold   = 1.00e-08
  Density threshold  = 1.00e-08
  Integral threshold = 1.00e-12

  ==> Primary Basis <==

  Basis Set: AUG-CC-PV(5+D)Z
    Blend: AUG-CC-PV(5+D)Z
    Number of shells: 54
    Number of basis function: 254
    Number of Cartesian functions: 364
    Spherical Harmonics?: true
    Max angular momentum: 5

  ==> Integral Setup <==

  ==> DiskJK: Disk-Based J/K Matrices <==

    J tasked:                  Yes
    K tasked:                  Yes
    wK tasked:                  No
    Memory [MiB]:           178813
    Schwarz Cutoff:          1E-12

  Minimum eigenvalue in the overlap matrix is 1.3567376641E-05.
  Reciprocal condition number of the overlap matrix is 2.0454620415E-06.
    Using symmetric orthogonalization.

  ==> Pre-Iterations <==

  SCF Guess: Superposition of Atomic Densities via on-the-fly atomic UHF (no occupation information).


 WARNING: Atomic UHF is not converging! Try casting from a smaller basis or call Rob at CCMST.
   -------------------------
    Irrep   Nso     Nmo    
   -------------------------
     Ag        46      46 
     B1g       19      19 
     B2g       31      31 
     B3g       31      31 
     Au        19      19 
     B1u       46      46 
     B2u       31      31 
     B3u       31      31 
   -------------------------
    Total     254     254
   -------------------------

  ==> Iterations <==

                        Total Energy        Delta E     RMS |[F,P]|

   @RHF iter SAD:   -86.73073992348139   -8.67307e+01   0.00000e+00 
   @RHF iter   1:  -107.45056210840906   -2.07198e+01   2.14866e-02 DIIS
   @RHF iter   2:  -108.80745681893509   -1.35689e+00   7.15173e-03 DIIS
   @RHF iter   3:  -108.98594817402292   -1.78491e-01   7.58020e-04 DIIS
   @RHF iter   4:  -108.98879054649653   -2.84237e-03   1.05292e-04 DIIS
   @RHF iter   5:  -108.98887305302740   -8.25065e-05   1.20819e-05 DIIS
   @RHF iter   6:  -108.98887381365243   -7.60625e-07   1.25444e-06 DIIS
   @RHF iter   7:  -108.98887382233627   -8.68384e-09   2.32988e-07 DIIS
   @RHF iter   8:  -108.98887382265390   -3.17627e-10   3.25899e-08 DIIS
   @RHF iter   9:  -108.98887382266341   -9.50706e-12   3.49779e-09 DIIS
  Energy and wave function converged.


  ==> Post-Iterations <==

    Orbital Energies [Eh]
    ---------------------

    Doubly Occupied:                                                      

       1Ag   -15.688980     1B1u  -15.685757     2Ag    -1.459147  
       2B1u   -0.784531     3Ag    -0.632998     1B2u   -0.607314  
       1B3u   -0.607314  

    Virtual:                                                              

       3B1u    0.058395     2B2u    0.085556     2B3u    0.085556  
       4Ag     0.086423     1B2g    0.096232     1B3g    0.096232  
       5Ag     0.116391     2B2g    0.159253     2B3g    0.159253  
       4B1u    0.196055     6Ag     0.278441     1B1g    0.278441  
       7Ag     0.301293     5B1u    0.353295     3B2u    0.353620  
       3B3u    0.353620     1Au     0.356190     6B1u    0.356190  
       3B3g    0.356536     3B2g    0.356536     4B2u    0.400027  
       4B3u    0.400027     7B1u    0.466006     8Ag     0.476273  
       9Ag     0.635106     4B3g    0.639190     4B2g    0.639190  
       5B3u    0.739129     5B2u    0.739129     8B1u    0.788129  
      10Ag     0.833851     2B1g    0.833851     2Au     0.848222  
       9B1u    0.848222     6B3u    0.848980     6B2u    0.848980  
       5B3g    0.914232     5B2g    0.914232     6B3g    0.923169  
       6B2g    0.923169    10B1u    0.927376    11Ag     0.933938  
       3B1g    0.941761    12Ag     0.941761    11B1u    1.061896  
      13Ag     1.148198     7B2u    1.184633     7B3u    1.184633  
       3Au     1.339160    12B1u    1.339160     8B3u    1.378164  
       8B2u    1.378164     7B3g    1.425550     7B2g    1.425550  
      13B1u    1.557071    14B1u    1.767719    14Ag     1.868741  
       8B3g    1.869192     8B2g    1.869192    15Ag     2.027239  
       4B1g    2.027239    16Ag     2.079515     9B2u    2.131262  
       9B3u    2.131262    17Ag     2.158574     5B1g    2.158574  
      10B2u    2.232985    10B3u    2.232985     9B3g    2.342497  
       9B2g    2.342497    11B2u    2.361351    11B3u    2.361351  
       6B1g    2.369580    18Ag     2.369580    12B2u    2.377428  
      12B3u    2.377428    15B1u    2.382375    16B1u    2.394195  
       4Au     2.394195     5Au     2.399233    17B1u    2.399233  
       6Au     2.413948    18B1u    2.413948    19Ag     2.480652  
      10B3g    2.626771    10B2g    2.626771    19B1u    2.818494  
      20Ag     2.837737    11B2g    2.912116    11B3g    2.912116  
      12B3g    2.968040    12B2g    2.968040    21Ag     3.034358  
       7B1g    3.034358    20B1u    3.450211    13B3u    3.511394  
      13B2u    3.511394    13B3g    3.806750    13B2g    3.806750  
      14B2u    3.861682    14B3u    3.861682     7Au     3.976616  
      21B1u    3.976616    22Ag     4.007385    22B1u    4.184898  
      15B3u    4.512850    15B2u    4.512850    23Ag     4.658688  
      24Ag     4.683996     8B1g    4.683996    14B3g    4.998839  
      14B2g    4.998839    15B2g    5.036976    15B3g    5.036976  
      16B2u    5.150570    16B3u    5.150570    17B3u    5.222867  
      17B2u    5.222867    23B1u    5.229286    25Ag     5.237063  
       9B1g    5.237063     8Au     5.240398    24B1u    5.240398  
      26Ag     5.504179    10B1g    5.504179    27Ag     5.545128  
      25B1u    5.570127     9Au     5.570127    16B3g    5.620445  
      16B2g    5.620445    26B1u    5.625188    17B3g    5.629999  
      17B2g    5.629999    18B2u    5.656707    18B3u    5.656707  
      28Ag     5.720340    11B1g    5.720340    27B1u    5.733987  
      10Au     5.733987    19B2u    5.812062    19B3u    5.812062  
      29Ag     5.864606    20B2u    5.934051    20B3u    5.934051  
      18B3g    5.965982    18B2g    5.965982    28B1u    5.989057  
      11Au     5.989057    21B3u    6.293730    21B2u    6.293730  
      19B2g    6.445740    19B3g    6.445740    30Ag     6.490406  
      12B1g    6.490406    29B1u    6.794438    31Ag     6.880488  
      32Ag     7.394239    13B1g    7.394239    20B3g    7.484287  
      20B2g    7.484287    12Au     7.510658    30B1u    7.510658  
      21B2g    7.921470    21B3g    7.921470    31B1u    8.147873  
      32B1u    8.378650    22B3u    8.871940    22B2u    8.871940  
      33Ag     8.921831    13Au     9.092586    33B1u    9.092586  
      34Ag     9.478740    22B2g    9.969138    22B3g    9.969138  
      23B3u   11.889140    23B2u   11.889140    35Ag    11.995780  
      14B1g   11.995780    24B3u   12.230205    24B2u   12.230205  
      15B1g   12.308228    36Ag    12.308228    34B1u   12.346129  
      25B3u   12.380548    25B2u   12.380548    23B3g   12.486992  
      23B2g   12.486992    37Ag    12.630558    26B3u   12.672859  
      26B2u   12.672859    24B2g   12.827626    24B3g   12.827626  
      14Au    13.076015    35B1u   13.076015    25B2g   13.331409  
      25B3g   13.331409    36B1u   13.375532    15Au    13.375532  
      37B1u   13.755078    26B3g   13.864663    26B2g   13.864663  
      38Ag    14.138720    27B3u   14.257808    27B2u   14.257808  
      39Ag    14.379833    28B3u   14.439187    28B2u   14.439187  
      40Ag    14.530289    16B1g   14.530289    29B3u   14.678224  
      29B2u   14.678224    38B1u   14.697336    16Au    14.697336  
      41Ag    14.753994    17B1g   14.753994    27B2g   14.811894  
      27B3g   14.811894    42Ag    15.271177    18B1g   15.271177  
      39B1u   15.322159    28B3g   15.347699    28B2g   15.347699  
      40B1u   15.890128    17Au    15.890128    41B1u   16.346306  
      29B2g   16.761456    29B3g   16.761456    42B1u   16.800569  
      18Au    17.040607    43B1u   17.040607    30B3u   17.083354  
      30B2u   17.083354    19B1g   17.537855    43Ag    17.537855  
      44Ag    18.147400    30B2g   18.203523    30B3g   18.203523  
      19Au    18.807014    44B1u   18.807014    31B3u   19.514816  
      31B2u   19.514816    31B2g   20.978456    31B3g   20.978456  
      45Ag    21.664140    45B1u   22.525920    46Ag    49.364607  
      46B1u   55.188245  

    Final Occupation by Irrep:
             Ag   B1g   B2g   B3g    Au   B1u   B2u   B3u 
    DOCC [     3,    0,    0,    0,    0,    2,    1,    1 ]

  @RHF Final Energy:  -108.98887382266341

   => Energetics <=

    Nuclear Repulsion Energy =             23.2744328813982229
    One-Electron Energy =                -193.5945310707829776
    Two-Electron Energy =                  61.3312243667213579
    Total Energy =                       -108.9888738226634075

Computation Completed


Properties will be evaluated at   0.000000,   0.000000,   0.000000 [a0]

Properties computed using the SCF density matrix

  Nuclear Dipole Moment: [e a0]
     X:     0.0000      Y:     0.0000      Z:    -0.0000

  Electronic Dipole Moment: [e a0]
     X:     0.0000      Y:     0.0000      Z:     0.0000

  Dipole Moment: [e a0]
     X:     0.0000      Y:     0.0000      Z:    -0.0000     Total:     0.0000

  Dipole Moment: [D]
     X:     0.0000      Y:     0.0000      Z:    -0.0000     Total:     0.0000


*** tstop() called on n412-045.vsc4.prov at Fri Jan 22 01:19:52 2021
Module time:
	user time   =     121.98 seconds =       2.03 minutes
	system time =       6.81 seconds =       0.11 minutes
	total time  =         94 seconds =       1.57 minutes
Total time:
	user time   =     121.98 seconds =       2.03 minutes
	system time =       6.81 seconds =       0.11 minutes
	total time  =         94 seconds =       1.57 minutes

*** tstart() called on n412-045.vsc4.prov
*** at Fri Jan 22 01:19:52 2021


	Wfn Parameters:
	--------------------
	Wavefunction         = CCSD_T
	Number of irreps     = 8
	Number of MOs        = 254
	Number of active MOs = 252
	AO-Basis             = NONE
	Semicanonical        = false
	Reference            = RHF
	Print Level          = 1

	IRREP	# MOs	# FZDC	# DOCC	# SOCC	# VIRT	# FZVR
	-----	-----	------	------	------	------	------
	 Ag	   46	    1	    2	    0	    43	    0
	 B1g	   19	    0	    0	    0	    19	    0
	 B2g	   31	    0	    0	    0	    31	    0
	 B3g	   31	    0	    0	    0	    31	    0
	 Au	   19	    0	    0	    0	    19	    0
	 B1u	   46	    1	    1	    0	    44	    0
	 B2u	   31	    0	    1	    0	    30	    0
	 B3u	   31	    0	    1	    0	    30	    0
	Transforming integrals...
	IWL integrals will be deleted.
	(OO|OO)...
	Presorting SO-basis two-electron integrals.
	Sorting File: SO Ints (nn|nn) nbuckets = 1
	Constructing frozen core operators
	Starting first half-transformation.
	Sorting half-transformed integrals.
	First half integral transformation complete.
	Starting second half-transformation.
	Two-electron integral transformation complete.
	(OO|OV)...
	Starting second half-transformation.
	Two-electron integral transformation complete.
	(OO|VV)...
	Starting second half-transformation.
	Two-electron integral transformation complete.
	(OV|OO)...
	Starting first half-transformation.
	Sorting half-transformed integrals.
	First half integral transformation complete.
	Starting second half-transformation.
	Two-electron integral transformation complete.
	(OV|OV)...
	Starting second half-transformation.
	Two-electron integral transformation complete.
	(OV|VV)...
	Starting second half-transformation.
	Two-electron integral transformation complete.
	(VV|OO)...
	Starting first half-transformation.
	Sorting half-transformed integrals.
	First half integral transformation complete.
	Starting second half-transformation.
	Two-electron integral transformation complete.
	(VV|OV)...
	Starting second half-transformation.
	Two-electron integral transformation complete.
	(VV|VV)...
	Starting second half-transformation.
	Two-electron integral transformation complete.
	Frozen core energy     =   -100.86888573626105

	Size of irrep 0 of <ab|cd> integrals:     67.716 (MW) /    541.732 (MB)
	Size of irrep 1 of <ab|cd> integrals:     49.393 (MW) /    395.142 (MB)
	Size of irrep 2 of <ab|cd> integrals:     58.125 (MW) /    465.003 (MB)
	Size of irrep 3 of <ab|cd> integrals:     58.125 (MW) /    465.003 (MB)
	Size of irrep 4 of <ab|cd> integrals:     49.365 (MW) /    394.917 (MB)
	Size of irrep 5 of <ab|cd> integrals:     67.667 (MW) /    541.337 (MB)
	Size of irrep 6 of <ab|cd> integrals:     58.156 (MW) /    465.247 (MB)
	Size of irrep 7 of <ab|cd> integrals:     58.156 (MW) /    465.247 (MB)
	Total:                                   466.703 (MW) /   3733.628 (MB)

	Size of irrep 0 of <ia|bc> integrals:      1.564 (MW) /     12.508 (MB)
	Size of irrep 1 of <ia|bc> integrals:      0.822 (MW) /      6.578 (MB)
	Size of irrep 2 of <ia|bc> integrals:      1.182 (MW) /      9.454 (MB)
	Size of irrep 3 of <ia|bc> integrals:      1.182 (MW) /      9.454 (MB)
	Size of irrep 4 of <ia|bc> integrals:      0.836 (MW) /      6.689 (MB)
	Size of irrep 5 of <ia|bc> integrals:      1.588 (MW) /     12.701 (MB)
	Size of irrep 6 of <ia|bc> integrals:      1.167 (MW) /      9.334 (MB)
	Size of irrep 7 of <ia|bc> integrals:      1.167 (MW) /      9.334 (MB)
	Total:                                     9.506 (MW) /     76.052 (MB)

	Size of irrep 0 of tijab amplitudes:       0.058 (MW) /      0.461 (MB)
	Size of irrep 1 of tijab amplitudes:       0.014 (MW) /      0.112 (MB)
	Size of irrep 2 of tijab amplitudes:       0.015 (MW) /      0.122 (MB)
	Size of irrep 3 of tijab amplitudes:       0.015 (MW) /      0.122 (MB)
	Size of irrep 4 of tijab amplitudes:       0.000 (MW) /      0.000 (MB)
	Size of irrep 5 of tijab amplitudes:       0.033 (MW) /      0.263 (MB)
	Size of irrep 6 of tijab amplitudes:       0.031 (MW) /      0.244 (MB)
	Size of irrep 7 of tijab amplitudes:       0.031 (MW) /      0.244 (MB)
	Total:                                     0.196 (MW) /      1.569 (MB)

	Nuclear Rep. energy          =     23.27443288139822
	SCF energy                   =   -108.98887382266341
	One-electron energy          =    -54.60623212052770
	Two-electron energy          =     23.21181115272699
	Reference energy             =   -108.98887382266354

*** tstop() called on n412-045.vsc4.prov at Fri Jan 22 01:21:33 2021
Module time:
	user time   =      25.72 seconds =       0.43 minutes
	system time =      17.09 seconds =       0.28 minutes
	total time  =        101 seconds =       1.68 minutes
Total time:
	user time   =     147.70 seconds =       2.46 minutes
	system time =      23.90 seconds =       0.40 minutes
	total time  =        195 seconds =       3.25 minutes
            **************************
            *                        *
            *        CCENERGY        *
            *                        *
            **************************

    Nuclear Rep. energy (wfn)     =   23.274432881398223
    SCF energy          (wfn)     = -108.988873822663408
    Reference energy    (file100) = -108.988873822663535

    Input parameters:
    -----------------
    Wave function   =     CCSD_T
    Reference wfn   =     RHF
    Brueckner       =     No
    Memory (Mbytes) =     250000.0
    Maxiter         =     50
    R_Convergence   =     1.0e-07
    E_Convergence   =     1.0e-06
    Restart         =     Yes
    DIIS            =     Yes
    AO Basis        =     NONE
    ABCD            =     NEW
    Cache Level     =     2
    Cache Type      =     LOW
    Print Level     =     1
    Num. of threads =     48
    # Amps to Print =     10
    Print MP2 Amps? =     No
    Analyze T2 Amps =     No
    Print Pair Ener =     No
    Local CC        =     No
    SCS-MP2         =     False
    SCSN-MP2        =     False
    SCS-CCSD        =     False

MP2 correlation energy -0.4151743061397938
                Solving CC Amplitude Equations
                ------------------------------
  Iter             Energy              RMS        T1Diag      D1Diag    New D1Diag    D2Diag
  ----     ---------------------    ---------   ----------  ----------  ----------   --------
     0        -0.415174306139794    0.000e+00    0.000000    0.000000    0.000000    0.169430
     1        -0.386710521791985    6.416e-02    0.013140    0.026915    0.026915    0.156362
     2        -0.401318133321117    2.679e-02    0.012147    0.024600    0.024600    0.167326
     3        -0.404199455612931    9.116e-03    0.013845    0.027874    0.027874    0.173098
     4        -0.404421829731103    2.297e-03    0.013920    0.027946    0.027946    0.174454
     5        -0.404517848837392    6.179e-04    0.013961    0.028021    0.028021    0.174876
     6        -0.404519037135388    1.297e-04    0.013954    0.028010    0.028010    0.174905
     7        -0.404522034634297    2.934e-05    0.013952    0.028008    0.028008    0.174913
     8        -0.404522721568932    7.479e-06    0.013952    0.028008    0.028008    0.174915
     9        -0.404522473408341    1.682e-06    0.013951    0.028008    0.028008    0.174915
    10        -0.404522441476330    4.948e-07    0.013951    0.028008    0.028008    0.174915
    11        -0.404522465443103    1.671e-07    0.013951    0.028008    0.028008    0.174915
    12        -0.404522461761035    5.325e-08    0.013951    0.028008    0.028008    0.174915

    Iterations converged.


    Largest TIA Amplitudes:
              4 223         0.0163429649
              3 193         0.0163429649
              4 219         0.0160749650
              3 189         0.0160749648
              2 148        -0.0089493614
              4 217         0.0087037578
              3 187         0.0087037576
              1   0         0.0077865369
              3 191         0.0068175623
              4 221         0.0068175623

    Largest TIjAb Amplitudes:
      3   3  94  94        -0.0688812655
      4   4  63  63        -0.0688812654
      3   4  94  63        -0.0431271577
      4   3  63  94        -0.0431271577
      4   4  62  63        -0.0356147570
      4   4  63  62        -0.0356147570
      3   3  93  94        -0.0356147566
      3   3  94  93        -0.0356147566
      3   3  94  95        -0.0311716128
      3   3  95  94        -0.0311716128

    SCF energy       (wfn)                    = -108.988873822663408
    Reference energy (file100)                = -108.988873822663535

    Opposite-spin MP2 correlation energy      =   -0.313310443575230
    Same-spin MP2 correlation energy          =   -0.101863862564564
    Singles MP2 correlation energy            =   -0.000000000000000
    MP2 correlation energy                    =   -0.415174306139794
      * MP2 total energy                      = -109.404048128803325

    Opposite-spin CCSD correlation energy     =   -0.320790928410266
    Same-spin CCSD correlation energy         =   -0.083731533350767
    Singles CCSD correlation energy           =    0.000000000000000
    CCSD correlation energy                   =   -0.404522461761035
      * CCSD total energy                     = -109.393396284424568

            **************************
            *                        *
            *        CCTRIPLES       *
            *                        *
            **************************


    Wave function   =    CCSD_T
    Reference wfn   =      RHF

    Nuclear Rep. energy (wfn)                =   23.274432881398223
    SCF energy          (wfn)                = -108.988873822663408
    Reference energy    (file100)            = -108.988873822663535
    CCSD energy         (file100)            =   -0.404522461761035
    Total CCSD energy   (file100)            = -109.393396284424568

    Number of ijk index combinations:               35
    Memory available in words        :     31250000000
    ~Words needed per explicit thread:          340736
    Number of threads for explicit ijk threading:   48

    (T) energy                                =   -0.021572004037141
      * CCSD(T) total energy                  = -109.414968288461708


    Psi4 stopped on: Friday, 22 January 2021 01:22AM
    Psi4 wall time for execution: 0:04:06.53

*** Psi4 exiting successfully. Buy a developer a beer!
