
    -----------------------------------------------------------------------
          Psi4: An Open-Source Ab Initio Electronic Structure Package
                               Psi4 1.4a3.dev88 

                         Git: Rev {master} 262e345 


    D. G. A. Smith, L. A. Burns, A. C. Simmonett, R. M. Parrish,
    M. C. Schieber, R. Galvelis, P. Kraus, H. Kruse, R. Di Remigio,
    A. Alenaizan, A. M. James, S. Lehtola, J. P. Misiewicz, M. Scheurer,
    R. A. Shaw, J. B. Schriber, Y. Xie, Z. L. Glick, D. A. Sirianni,
    J. S. O'Brien, J. M. Waldrop, A. Kumar, E. G. Hohenstein,
    B. P. Pritchard, B. R. Brooks, H. F. Schaefer III, A. Yu. Sokolov,
    K. Patkowski, A. E. DePrince III, U. Bozkaya, R. A. King,
    F. A. Evangelista, J. M. Turney, T. D. Crawford, C. D. Sherrill,
    J. Chem. Phys. 152(18) 184108 (2020). https://doi.org/10.1063/5.0006002

                            Additional Code Authors
    E. T. Seidl, C. L. Janssen, E. F. Valeev, M. L. Leininger,
    J. F. Gonthier, R. M. Richard, H. R. McAlexander, M. Saitow, X. Wang,
    P. Verma, and M. H. Lechner

             Previous Authors, Complete List of Code Contributors,
                       and Citations for Specific Modules
    https://github.com/psi4/psi4/blob/master/codemeta.json
    https://github.com/psi4/psi4/graphs/contributors
    http://psicode.org/psi4manual/master/introduction.html#citing-psifour

    -----------------------------------------------------------------------


    Psi4 started on: Thursday, 21 January 2021 05:43PM

    Process ID: 254390
    Host:       n411-011.vsc4.prov
    PSIDATADIR: /home/fs71337/gallo4/psi4/eri-6/psi4/build/stage/share/psi4
    Memory:     500.0 MiB
    Threads:    48
    
  ==> Input File <==

--------------------------------------------------------------------------
# Any line starting with the # character is a comment line
memory 250000 mb
molecule molecule{
0 1
C          0.0000000000        0.0000000000        0.0997864858
H          0.0000000000       -0.8589352290       -0.5945470372
H          0.0000000000        0.8589352290       -0.5945470372
}

set {
  reference rhf
  basis aug-cc-pV(6+d)Z
  scf_type OUT_OF_CORE
  freeze_core true
}

energy('ccsd(t)')
--------------------------------------------------------------------------

  Memory set to 232.831 GiB by Python driver.

Scratch directory: /binfl/lv71337/airmler/temp/

*** tstart() called on n411-011.vsc4.prov
*** at Thu Jan 21 17:43:52 2021

   => Loading Basis Set <=

    Name: AUG-CC-PV(6+D)Z
    Role: ORBITAL
    Keyword: BASIS
    atoms 1   entry C          line   267 file /home/fs71337/gallo4/psi4/eri-6/psi4/build/stage/share/psi4/basis/aug-cc-pv_6pd_z.gbs 
    atoms 2-3 entry H          line    51 file /home/fs71337/gallo4/psi4/eri-6/psi4/build/stage/share/psi4/basis/aug-cc-pv_6pd_z.gbs 


         ---------------------------------------------------------
                                   SCF
               by Justin Turney, Rob Parrish, Andy Simmonett
                          and Daniel G. A. Smith
                              RHF Reference
                       48 Threads, 238418 MiB Core
         ---------------------------------------------------------

  ==> Geometry <==

    Molecular point group: c2v
    Full point group: C2v

    Geometry (in Angstrom), charge = 0, multiplicity = 1:

       Center              X                  Y                   Z               Mass       
    ------------   -----------------  -----------------  -----------------  -----------------
         C           -0.000000000000     0.000000000000     0.099855048032    12.000000000000
         H            0.000000000000    -0.858935229000    -0.594478474968     1.007825032230
         H           -0.000000000000     0.858935229000    -0.594478474968     1.007825032230

  Running in c2v symmetry.

  Rotational constants: A =     20.26176  B =     11.33602  C =      7.26911 [cm^-1]
  Rotational constants: A = 607432.17812  B = 339845.27130  C = 217922.37691 [MHz]
  Nuclear repulsion =    6.057486217377818

  Charge       = 0
  Multiplicity = 1
  Electrons    = 8
  Nalpha       = 4
  Nbeta        = 4

  ==> Algorithm <==

  SCF Algorithm Type is OUT_OF_CORE.
  DIIS enabled.
  MOM disabled.
  Fractional occupation disabled.
  Guess Type is SAD.
  Energy threshold   = 1.00e-08
  Density threshold  = 1.00e-08
  Integral threshold = 1.00e-12

  ==> Primary Basis <==

  Basis Set: AUG-CC-PV(6+D)Z
    Blend: AUG-CC-PV(6+D)Z
    Number of shells: 89
    Number of basis function: 443
    Number of Cartesian functions: 658
    Spherical Harmonics?: true
    Max angular momentum: 6

  ==> Integral Setup <==

  ==> DiskJK: Disk-Based J/K Matrices <==

    J tasked:                  Yes
    K tasked:                  Yes
    wK tasked:                  No
    Memory [MiB]:           178813
    Schwarz Cutoff:          1E-12

  Minimum eigenvalue in the overlap matrix is 2.0807584946E-06.
  Reciprocal condition number of the overlap matrix is 2.4256969793E-07.
    Using symmetric orthogonalization.

  ==> Pre-Iterations <==

  SCF Guess: Superposition of Atomic Densities via on-the-fly atomic UHF (no occupation information).


 WARNING: Atomic UHF is not converging! Try casting from a smaller basis or call Rob at CCMST.

 WARNING: Atomic UHF is not converging! Try casting from a smaller basis or call Rob at CCMST.
   -------------------------
    Irrep   Nso     Nmo    
   -------------------------
     A1       143     143 
     A2        81      81 
     B1        96      96 
     B2       123     123 
   -------------------------
    Total     443     443
   -------------------------

  ==> Iterations <==

                        Total Energy        Delta E     RMS |[F,P]|

   @RHF iter SAD:   -11.87241937994541   -1.18724e+01   0.00000e+00 
   @RHF iter   1:   -37.86849721857156   -2.59961e+01   6.42786e-03 DIIS
   @RHF iter   2:   -38.72211185038469   -8.53615e-01   2.16833e-03 DIIS
   @RHF iter   3:   -38.89232449569906   -1.70213e-01   2.94515e-04 DIIS
   @RHF iter   4:   -38.89572510765395   -3.40061e-03   5.66515e-05 DIIS
   @RHF iter   5:   -38.89605768777793   -3.32580e-04   1.52363e-05 DIIS
   @RHF iter   6:   -38.89608177404679   -2.40863e-05   3.00119e-06 DIIS
   @RHF iter   7:   -38.89608247653371   -7.02487e-07   4.25714e-07 DIIS
   @RHF iter   8:   -38.89608249030977   -1.37761e-08   7.20708e-08 DIIS
   @RHF iter   9:   -38.89608249079641   -4.86644e-10   1.55907e-08 DIIS
   @RHF iter  10:   -38.89608249082359   -2.71854e-11   2.04375e-09 DIIS
  Energy and wave function converged.


  ==> Post-Iterations <==

    Orbital Energies [Eh]
    ---------------------

    Doubly Occupied:                                                      

       1A1   -11.291796     2A1    -0.894446     1B2    -0.566966  
       3A1    -0.396611  

    Virtual:                                                              

       4A1     0.019508     1B1     0.021277     2B2     0.034075  
       5A1     0.056405     2B1     0.074193     3B2     0.082588  
       6A1     0.093561     4B2     0.138551     7A1     0.147254  
       8A1     0.152646     1A2     0.158851     3B1     0.165962  
       5B2     0.206137     9A1     0.210308     6B2     0.222868  
      10A1     0.230384     4B1     0.230937     2A2     0.237355  
       7B2     0.246001    11A1     0.258338     5B1     0.262600  
      12A1     0.266382     8B2     0.301041    13A1     0.366225  
       9B2     0.377467    14A1     0.400408     6B1     0.401069  
       3A2     0.417627     7B1     0.450631    15A1     0.482061  
      10B2     0.489493    11B2     0.499175     4A2     0.507870  
      16A1     0.509035    17A1     0.538823     8B1     0.545995  
      12B2     0.550408     5A2     0.553113     9B1     0.569482  
      18A1     0.576340    19A1     0.588468    13B2     0.604841  
      14B2     0.627934     6A2     0.644992    20A1     0.661631  
      10B1     0.678653    21A1     0.684155    15B2     0.701495  
      11B1     0.705958    22A1     0.746670    16B2     0.757029  
       7A2     0.891638    23A1     0.891791    12B1     0.928797  
      24A1     0.947868    17B2     0.954398    18B2     1.015301  
      13B1     1.050587    25A1     1.068707    26A1     1.115673  
      14B1     1.128807    19B2     1.132401     8A2     1.136258  
      27A1     1.141797     9A2     1.165480    20B2     1.176351  
      15B1     1.178821    10A2     1.185136    21B2     1.207329  
      28A1     1.238708    22B2     1.252988    29A1     1.269947  
      23B2     1.356337    30A1     1.383571    11A2     1.385165  
      16B1     1.388587    17B1     1.395555    12A2     1.407370  
      31A1     1.418644    24B2     1.421361    18B1     1.451644  
      32A1     1.465422    33A1     1.489683    34A1     1.491009  
      19B1     1.495133    25B2     1.508398    35A1     1.521907  
      13A2     1.576010    20B1     1.577595    26B2     1.599176  
      14A2     1.661169    36A1     1.662458    27B2     1.662922  
      28B2     1.733379    37A1     1.751807    21B1     1.826984  
      38A1     2.003555    39A1     2.011676    29B2     2.018274  
      22B1     2.107267    30B2     2.123419    15A2     2.134507  
      23B1     2.146251    16A2     2.206085    31B2     2.218382  
      40A1     2.227401    41A1     2.271195    24B1     2.337878  
      32B2     2.386492    42A1     2.388674    17A2     2.397397  
      33B2     2.454989    25B1     2.478507    34B2     2.492157  
      18A2     2.493342    43A1     2.505855    26B1     2.535966  
      19A2     2.551317    35B2     2.555898    44A1     2.561792  
      45A1     2.576831    36B2     2.620195    20A2     2.640501  
      27B1     2.656620    46A1     2.695681    21A2     2.709645  
      28B1     2.752535    47A1     2.763103    37B2     2.817235  
      38B2     2.823542    48A1     2.836716    29B1     2.877920  
      39B2     2.905307    49A1     2.986787    30B1     2.989767  
      22A2     3.022284    50A1     3.036191    40B2     3.047802  
      31B1     3.101396    51A1     3.115400    41B2     3.127677  
      32B1     3.138296    42B2     3.159296    52A1     3.183048  
      23A2     3.184994    53A1     3.311500    43B2     3.312290  
      33B1     3.328445    24A2     3.359302    54A1     3.366872  
      55A1     3.427271    25A2     3.457851    34B1     3.464535  
      56A1     3.480181    44B2     3.538134    57A1     3.574095  
      35B1     3.642754    45B2     3.650149    26A2     3.784306  
      46B2     3.789442    36B1     3.900895    58A1     3.904291  
      27A2     3.932918    47B2     4.080685    59A1     4.146540  
      37B1     4.201875    60A1     4.252758    28A2     4.256401  
      48B2     4.282345    49B2     4.332556    38B1     4.406415  
      39B1     4.480591    50B2     4.523769    61A1     4.538282  
      62A1     4.578578    29A2     4.665674    63A1     4.688887  
      30A2     4.744798    40B1     4.789658    51B2     4.818644  
      64A1     4.896161    52B2     4.905557    31A2     4.942478  
      65A1     4.943024    41B1     4.980597    53B2     5.051482  
      54B2     5.094209    66A1     5.096117    42B1     5.153174  
      32A2     5.164217    67A1     5.165534    68A1     5.181949  
      33A2     5.192422    43B1     5.192906    55B2     5.209799  
      44B1     5.239841    69A1     5.256476    34A2     5.299250  
      56B2     5.314609    57B2     5.367197    45B1     5.443295  
      58B2     5.485380    70A1     5.500272    35A2     5.513024  
      71A1     5.622401    59B2     5.634554    46B1     5.650270  
      72A1     5.705160    60B2     5.763335    36A2     5.816085  
      37A2     5.874392    73A1     5.881863    47B1     5.907413  
      74A1     5.914146    61B2     5.941423    38A2     6.009504  
      48B1     6.011337    75A1     6.156075    62B2     6.172986  
      39A2     6.229714    76A1     6.257536    77A1     6.284094  
      49B1     6.304435    50B1     6.312355    40A2     6.324443  
      63B2     6.339956    78A1     6.371328    64B2     6.399360  
      51B1     6.498385    79A1     6.503279    65B2     6.520949  
      52B1     6.526744    66B2     6.608814    53B1     6.666467  
      41A2     6.712907    80A1     6.793687    67B2     6.818958  
      68B2     6.888247    81A1     6.905306    42A2     6.944546  
      54B1     6.965663    82A1     7.078075    43A2     7.385327  
      69B2     7.389379    83A1     7.440228    55B1     7.441667  
      44A2     7.562669    70B2     7.650704    84A1     7.660041  
      56B1     7.694674    85A1     7.697836    71B2     7.814992  
      72B2     7.909409    86A1     7.946659    45A2     8.004790  
      87A1     8.082433    57B1     8.176448    46A2     8.234027  
      73B2     8.321464    58B1     8.419886    74B2     8.430412  
      88A1     8.442833    47A2     8.465505    59B1     8.513494  
      89A1     8.641046    90A1     8.888997    75B2     8.931119  
      60B1     8.992297    91A1     9.219762    76B2     9.453664  
      48A2     9.581456    77B2     9.587364    61B1     9.669283  
      92A1     9.690400    78B2     9.787622    49A2     9.821805  
      62B1     9.836388    50A2    10.012586    79B2    10.027855  
      93A1    10.051781    94A1    10.161177    63B1    10.206272  
      51A2    10.264166    80B2    10.326475    95A1    10.343000  
      96A1    10.428591    64B1    10.470152    81B2    10.514889  
      97A1    10.570176    52A2    10.580546    82B2    10.601554  
      98A1    10.689140    65B1    10.802421    53A2    10.808100  
      99A1    10.834317    83B2    10.883327    54A2    11.257803  
      66B1    11.366644    84B2    11.394679   100A1    11.453634  
      67B1    11.570538    85B2    11.633799    86B2    11.688970  
      55A2    11.803589   101A1    11.834172    68B1    11.936372  
      87B2    12.128314    56A2    12.148753   102A1    12.187525  
     103A1    12.595717    88B2    12.628002   104A1    12.834819  
      69B1    12.835262   105A1    13.126820    57A2    13.157019  
     106A1    13.231220    89B2    13.476908    58A2    13.544400  
      90B2    13.624426   107A1    13.665008    70B1    13.726637  
      71B1    13.801860    59A2    13.915202    72B1    14.001408  
      91B2    14.280913   108A1    14.546840    60A2    14.574192  
      73B1    14.628772    74B1    14.645630    92B2    14.686159  
     109A1    14.722205    75B1    14.792371   110A1    14.807559  
      61A2    14.894381   111A1    15.052435    93B2    15.073604  
      76B1    15.200521    62A2    15.201403    94B2    15.262129  
     112A1    15.560056    95B2    15.835609    77B1    15.895902  
      96B2    15.906761   113A1    16.065771    97B2    16.335691  
     114A1    16.565659    78B1    16.728978    63A2    16.908253  
     115A1    17.017634    79B1    17.441760    98B2    17.462486  
     116A1    17.510058    80B1    17.596392   117A1    17.597242  
      99B2    17.619639    64A2    17.629779   118A1    17.633815  
     100B2    17.804120    65A2    17.846195    81B1    18.019747  
     101B2    18.127550    66A2    18.128993   119A1    18.207997  
     120A1    18.614999    67A2    18.668880    82B1    18.770670  
     102B2    18.938923    83B1    19.165238    68A2    19.318015  
     121A1    19.390690   103B2    19.505509   122A1    19.600047  
     104B2    20.091875   123A1    20.233658   105B2    20.501267  
      84B1    20.573675   106B2    20.587381    85B1    20.662873  
      69A2    20.678422   124A1    20.725512   125A1    20.759376  
      70A2    20.827788   126A1    21.104991    86B1    21.167088  
      71A2    21.182700   107B2    21.603589    72A2    21.620716  
     108B2    21.647585   127A1    21.686176    87B1    21.823393  
     128A1    21.885194   109B2    21.886653    88B1    21.915859  
      73A2    21.929014    89B1    22.140171   110B2    22.166344  
     129A1    22.177088    74A2    22.216062    90B1    22.289770  
     111B2    22.328542   130A1    22.423848    75A2    22.639543  
     112B2    22.678644   131A1    22.901206   132A1    23.020722  
     113B2    23.716798    76A2    23.796931    91B1    23.804899  
     114B2    23.985700   133A1    24.029956   134A1    24.303527  
      92B1    24.435887   135A1    24.452205   115B2    24.482328  
      77A2    24.489396   116B2    24.866986    93B1    25.351404  
     136A1    25.467284    78A2    25.517802   117B2    25.574438  
      94B1    25.614666    79A2    25.656957   118B2    26.387535  
     137A1    26.624379   138A1    26.903291   119B2    27.223266  
      80A2    27.255093    95B1    27.268535   139A1    27.457058  
     120B2    27.458395   140A1    27.668952   121B2    28.061042  
      81A2    36.180554    96B1    36.230988   141A1    36.378234  
     122B2    36.728464   142A1    38.809729   123B2    39.726667  
     143A1    61.874434  

    Final Occupation by Irrep:
             A1    A2    B1    B2 
    DOCC [     3,    0,    0,    1 ]

  @RHF Final Energy:   -38.89608249082359

   => Energetics <=

    Nuclear Repulsion Energy =              6.0574862173778179
    One-Electron Energy =                 -63.6074982773339883
    Two-Electron Energy =                  18.6539295691325790
    Total Energy =                        -38.8960824908235949

Computation Completed


Properties will be evaluated at   0.000000,   0.000000,   0.000000 [a0]

Properties computed using the SCF density matrix

  Nuclear Dipole Moment: [e a0]
     X:     0.0000      Y:     0.0000      Z:    -1.1146

  Electronic Dipole Moment: [e a0]
     X:     0.0000      Y:     0.0000      Z:     0.3691

  Dipole Moment: [e a0]
     X:     0.0000      Y:     0.0000      Z:    -0.7455     Total:     0.7455

  Dipole Moment: [D]
     X:     0.0000      Y:     0.0000      Z:    -1.8948     Total:     1.8948


*** tstop() called on n411-011.vsc4.prov at Thu Jan 21 18:04:18 2021
Module time:
	user time   =     825.82 seconds =      13.76 minutes
	system time =     126.03 seconds =       2.10 minutes
	total time  =       1226 seconds =      20.43 minutes
Total time:
	user time   =     825.82 seconds =      13.76 minutes
	system time =     126.03 seconds =       2.10 minutes
	total time  =       1226 seconds =      20.43 minutes

*** tstart() called on n411-011.vsc4.prov
*** at Thu Jan 21 18:04:18 2021


	Wfn Parameters:
	--------------------
	Wavefunction         = CCSD_T
	Number of irreps     = 4
	Number of MOs        = 443
	Number of active MOs = 442
	AO-Basis             = NONE
	Semicanonical        = false
	Reference            = RHF
	Print Level          = 1

	IRREP	# MOs	# FZDC	# DOCC	# SOCC	# VIRT	# FZVR
	-----	-----	------	------	------	------	------
	 A1	   143	    1	    2	    0	    140	    0
	 A2	   81	    0	    0	    0	    81	    0
	 B1	   96	    0	    0	    0	    96	    0
	 B2	   123	    0	    1	    0	    122	    0
	Transforming integrals...
	IWL integrals will be deleted.
	(OO|OO)...
	Presorting SO-basis two-electron integrals.
	Sorting File: SO Ints (nn|nn) nbuckets = 1
	Constructing frozen core operators
	Starting first half-transformation.
	Sorting half-transformed integrals.
	First half integral transformation complete.
	Starting second half-transformation.
	Two-electron integral transformation complete.
	(OO|OV)...
	Starting second half-transformation.
	Two-electron integral transformation complete.
	(OO|VV)...
	Starting second half-transformation.
	Two-electron integral transformation complete.
	(OV|OO)...
	Starting first half-transformation.
	Sorting half-transformed integrals.
	First half integral transformation complete.
	Starting second half-transformation.
	Two-electron integral transformation complete.
	(OV|OV)...
	Starting second half-transformation.
	Two-electron integral transformation complete.
	(OV|VV)...
	Starting second half-transformation.
	Two-electron integral transformation complete.
	(VV|OO)...
	Starting first half-transformation.
	Sorting half-transformed integrals.
	First half integral transformation complete.
	Starting second half-transformation.
	Two-electron integral transformation complete.
	(VV|OV)...
	Starting second half-transformation.
	Two-electron integral transformation complete.
	(VV|VV)...
	Starting second half-transformation.
	Two-electron integral transformation complete.
	Frozen core energy     =    -34.27666824993080

	Size of irrep 0 of <ab|cd> integrals:   2526.168 (MW) /  20209.345 (MB)
	Size of irrep 1 of <ab|cd> integrals:   2125.579 (MW) /  17004.631 (MB)
	Size of irrep 2 of <ab|cd> integrals:   2175.663 (MW) /  17405.302 (MB)
	Size of irrep 3 of <ab|cd> integrals:   2471.283 (MW) /  19770.264 (MB)
	Total:                                  9298.693 (MW) /  74389.541 (MB)

	Size of irrep 0 of <ia|bc> integrals:     20.205 (MW) /    161.639 (MB)
	Size of irrep 1 of <ia|bc> integrals:     11.895 (MW) /     95.159 (MB)
	Size of irrep 2 of <ia|bc> integrals:     12.734 (MW) /    101.870 (MB)
	Size of irrep 3 of <ia|bc> integrals:     19.089 (MW) /    152.715 (MB)
	Total:                                    63.923 (MW) /    511.384 (MB)

	Size of irrep 0 of tijab amplitudes:       0.251 (MW) /      2.010 (MB)
	Size of irrep 1 of tijab amplitudes:       0.000 (MW) /      0.000 (MB)
	Size of irrep 2 of tijab amplitudes:       0.000 (MW) /      0.000 (MB)
	Size of irrep 3 of tijab amplitudes:       0.199 (MW) /      1.591 (MB)
	Total:                                     0.450 (MW) /      3.601 (MB)

	Nuclear Rep. energy          =      6.05748621737782
	SCF energy                   =    -38.89608249082359
	One-electron energy          =    -17.63775469453883
	Two-electron energy          =      6.96085423626826
	Reference energy             =    -38.89608249082355

*** tstop() called on n411-011.vsc4.prov at Thu Jan 21 18:25:55 2021
Module time:
	user time   =     556.62 seconds =       9.28 minutes
	system time =     289.99 seconds =       4.83 minutes
	total time  =       1297 seconds =      21.62 minutes
Total time:
	user time   =    1382.44 seconds =      23.04 minutes
	system time =     416.02 seconds =       6.93 minutes
	total time  =       2523 seconds =      42.05 minutes
            **************************
            *                        *
            *        CCENERGY        *
            *                        *
            **************************

    Nuclear Rep. energy (wfn)     =    6.057486217377818
    SCF energy          (wfn)     =  -38.896082490823595
    Reference energy    (file100) =  -38.896082490823552

    Input parameters:
    -----------------
    Wave function   =     CCSD_T
    Reference wfn   =     RHF
    Brueckner       =     No
    Memory (Mbytes) =     250000.0
    Maxiter         =     50
    R_Convergence   =     1.0e-07
    E_Convergence   =     1.0e-06
    Restart         =     Yes
    DIIS            =     Yes
    AO Basis        =     NONE
    ABCD            =     NEW
    Cache Level     =     2
    Cache Type      =     LOW
    Print Level     =     1
    Num. of threads =     48
    # Amps to Print =     10
    Print MP2 Amps? =     No
    Analyze T2 Amps =     No
    Print Pair Ener =     No
    Local CC        =     No
    SCS-MP2         =     False
    SCSN-MP2        =     False
    SCS-CCSD        =     False

MP2 correlation energy -0.1537682936492302
                Solving CC Amplitude Equations
                ------------------------------
  Iter             Energy              RMS        T1Diag      D1Diag    New D1Diag    D2Diag
  ----     ---------------------    ---------   ----------  ----------  ----------   --------
     0        -0.153768293649230    0.000e+00    0.000000    0.000000    0.000000    0.130383
     1        -0.165890462899847    4.620e-02    0.006008    0.009811    0.009811    0.155629
     2        -0.173563078114594    2.368e-02    0.008014    0.014975    0.014975    0.179683
     3        -0.174152182876831    1.135e-02    0.009215    0.018039    0.018039    0.191848
     4        -0.174446757925741    6.534e-03    0.009657    0.019647    0.019647    0.202741
     5        -0.174610400685883    2.562e-03    0.009676    0.019861    0.019861    0.206175
     6        -0.174597792928766    1.084e-03    0.009599    0.019637    0.019637    0.206941
     7        -0.174600632406593    3.782e-04    0.009547    0.019488    0.019488    0.207146
     8        -0.174607100002296    1.177e-04    0.009532    0.019442    0.019442    0.207185
     9        -0.174605237466185    3.860e-05    0.009527    0.019424    0.019424    0.207180
    10        -0.174604985945377    1.432e-05    0.009525    0.019416    0.019416    0.207178
    11        -0.174605244434321    4.525e-06    0.009524    0.019414    0.019414    0.207179
    12        -0.174605340599791    1.816e-06    0.009524    0.019413    0.019413    0.207179
    13        -0.174605398711990    6.477e-07    0.009524    0.019413    0.019413    0.207179
    14        -0.174605408815480    2.565e-07    0.009524    0.019413    0.019413    0.207179
    15        -0.174605412449806    1.397e-07    0.009524    0.019413    0.019413    0.207180
    16        -0.174605414580871    7.276e-08    0.009524    0.019413    0.019413    0.207180

    Iterations converged.


    Largest TIA Amplitudes:
              1  10         0.0064262558
              1  17        -0.0062003549
              1  14        -0.0055719924
              0   9        -0.0055475268
              1   4        -0.0051087224
              1  16        -0.0044405289
              1   6         0.0043050843
              1   7         0.0042837936
              0  14         0.0040416919
              2 324         0.0038697862

    Largest TIjAb Amplitudes:
      1   1 221 221        -0.0679182195
      1   1 221 222        -0.0530362274
      1   1 222 221        -0.0530362274
      1   1 222 222        -0.0413323485
      1   1 221 225        -0.0308452958
      1   1 225 221        -0.0308452958
      0   0 221 221        -0.0238762621
      1   1 222 225        -0.0238690003
      1   1 225 222        -0.0238690003
      0   0 221 222        -0.0204944147

    SCF energy       (wfn)                    =  -38.896082490823595
    Reference energy (file100)                =  -38.896082490823552

    Opposite-spin MP2 correlation energy      =   -0.131994565814306
    Same-spin MP2 correlation energy          =   -0.021773727834924
    Singles MP2 correlation energy            =   -0.000000000000000
    MP2 correlation energy                    =   -0.153768293649230
      * MP2 total energy                      =  -39.049850784472781

    Opposite-spin CCSD correlation energy     =   -0.153053693997711
    Same-spin CCSD correlation energy         =   -0.021551720583052
    Singles CCSD correlation energy           =    0.000000000000000
    CCSD correlation energy                   =   -0.174605414580871
      * CCSD total energy                     =  -39.070687905404426

            **************************
            *                        *
            *        CCTRIPLES       *
            *                        *
            **************************


    Wave function   =    CCSD_T
    Reference wfn   =      RHF

    Nuclear Rep. energy (wfn)                =    6.057486217377818
    SCF energy          (wfn)                =  -38.896082490823595
    Reference energy    (file100)            =  -38.896082490823552
    CCSD energy         (file100)            =   -0.174605414580871
    Total CCSD energy   (file100)            =  -39.070687905404426

    Number of ijk index combinations:               10
    Memory available in words        :     31250000000
    ~Words needed per explicit thread:        10976000
    Number of threads for explicit ijk threading:   48

    (T) energy                                =   -0.005604148709805
      * CCSD(T) total energy                  =  -39.076292054114226


    Psi4 stopped on: Thursday, 21 January 2021 06:38PM
    Psi4 wall time for execution: 0:54:49.09

*** Psi4 exiting successfully. Buy a developer a beer!
