
    -----------------------------------------------------------------------
          Psi4: An Open-Source Ab Initio Electronic Structure Package
                               Psi4 1.2a1.dev939 

                         Git: Rev {HEAD} fa1ec19 


    R. M. Parrish, L. A. Burns, D. G. A. Smith, A. C. Simmonett,
    A. E. DePrince III, E. G. Hohenstein, U. Bozkaya, A. Yu. Sokolov,
    R. Di Remigio, R. M. Richard, J. F. Gonthier, A. M. James,
    H. R. McAlexander, A. Kumar, M. Saitow, X. Wang, B. P. Pritchard,
    P. Verma, H. F. Schaefer III, K. Patkowski, R. A. King, E. F. Valeev,
    F. A. Evangelista, J. M. Turney, T. D. Crawford, and C. D. Sherrill,
    J. Chem. Theory Comput. 13(7) pp 3185--3197 (2017).
    (doi: 10.1021/acs.jctc.7b00174)

    -----------------------------------------------------------------------


    Psi4 started on: Friday, 03 May 2019 11:43AM

    Process ID:  16339
    PSIDATADIR: /home/grueneis/src/psi4/objdir/stage/usr/local/psi4/share/psi4
    Memory:     500.0 MiB
    Threads:    1
    
  ==> Input File <==

--------------------------------------------------------------------------
# Any line starting with the # character is a comment line

memory 32000 mb

molecule molecule {
0 1
C          0.0000000000        0.0000000000       -0.6203930707
O          0.0000000000        0.0000000000        0.5925090134
H          0.9360096420        0.0000000000       -1.1985794735
H         -0.9360096420        0.0000000000       -1.1985794735
}

set {
  reference rhf
  basis aug-cc-pv(Q+d)z
  scf_type OUT_OF_CORE
  freeze_core true
}

energy('ccsd')
--------------------------------------------------------------------------

  Memory set to  29.802 GiB by Python driver.

*** tstart() called on cqc05
*** at Fri May  3 11:43:16 2019

   => Loading Basis Set <=

    Name: AUG-CC-PV(Q+D)Z
    Role: ORBITAL
    Keyword: BASIS
    atoms 1   entry C          line   319 file /home/grueneis/src/psi4/objdir/stage/usr/local/psi4/share/psi4/basis/aug-cc-pv_qpd_z.gbs 
    atoms 2   entry O          line   439 file /home/grueneis/src/psi4/objdir/stage/usr/local/psi4/share/psi4/basis/aug-cc-pv_qpd_z.gbs 
    atoms 3-4 entry H          line    56 file /home/grueneis/src/psi4/objdir/stage/usr/local/psi4/share/psi4/basis/aug-cc-pv_qpd_z.gbs 


         ---------------------------------------------------------
                                   SCF
            by Justin Turney, Rob Parrish, Andy Simmonett
                             and Daniel Smith
                              RHF Reference
                        1 Threads,  30517 MiB Core
         ---------------------------------------------------------

  ==> Geometry <==

    Molecular point group: c2v
    Full point group: C2v

    Geometry (in Angstrom), charge = 0, multiplicity = 1:

       Center              X                  Y                   Z               Mass       
    ------------   -----------------  -----------------  -----------------  -----------------
           C          0.000000000000    -0.000000000000    -0.607614152195    12.000000000000
           O          0.000000000000    -0.000000000000     0.605287931905    15.994914619560
           H          0.936009642000     0.000000000000    -1.185800554995     1.007825032070
           H         -0.936009642000    -0.000000000000    -1.185800554995     1.007825032070

  Running in c2v symmetry.

  Rotational constants: A =      9.54598  B =      1.28442  C =      1.13210 [cm^-1]
  Rotational constants: A = 286181.40685  B =  38505.93585  C =  33939.36703 [MHz]
  Nuclear repulsion =   31.186056860846740

  Charge       = 0
  Multiplicity = 1
  Electrons    = 16
  Nalpha       = 8
  Nbeta        = 8

  ==> Algorithm <==

  SCF Algorithm Type is OUT_OF_CORE.
  DIIS enabled.
  MOM disabled.
  Fractional occupation disabled.
  Guess Type is SAD.
  Energy threshold   = 1.00e-08
  Density threshold  = 1.00e-08
  Integral threshold = 0.00e+00

  ==> Primary Basis <==

  Basis Set: AUG-CC-PV(Q+D)Z
    Blend: AUG-CC-PV(Q+D)Z
    Number of shells: 68
    Number of basis function: 252
    Number of Cartesian functions: 320
    Spherical Harmonics?: true
    Max angular momentum: 4

  ==> Pre-Iterations <==

   -------------------------------------------------------
    Irrep   Nso     Nmo     Nalpha   Nbeta   Ndocc  Nsocc
   -------------------------------------------------------
     A1        92      92       0       0       0       0
     A2        38      38       0       0       0       0
     B1        68      68       0       0       0       0
     B2        54      54       0       0       0       0
   -------------------------------------------------------
    Total     252     252       8       8       8       0
   -------------------------------------------------------

  ==> Integral Setup <==

  ==> DiskJK: Disk-Based J/K Matrices <==

    J tasked:                  Yes
    K tasked:                  Yes
    wK tasked:                  No
    Memory (MB):             22888
    Schwarz Cutoff:          1E-12

  Minimum eigenvalue in the overlap matrix is 2.2026452964E-05.
  Using Symmetric Orthogonalization.

  SCF Guess: Superposition of Atomic Densities via on-the-fly atomic UHF.

  ==> Iterations <==

                        Total Energy        Delta E     RMS |[F,P]|

   @RHF iter   0:  -114.16143636112110   -1.14161e+02   1.81526e-02 
   @RHF iter   1:  -113.84345114341286    3.17985e-01   2.71165e-03 
   @RHF iter   2:  -113.89095507212645   -4.75039e-02   2.12385e-03 DIIS
   @RHF iter   3:  -113.91713901501970   -2.61839e-02   3.69729e-04 DIIS
   @RHF iter   4:  -113.91970357726268   -2.56456e-03   1.91713e-04 DIIS
   @RHF iter   5:  -113.92035833064855   -6.54753e-04   7.03768e-05 DIIS
   @RHF iter   6:  -113.92050675003233   -1.48419e-04   1.76066e-05 DIIS
   @RHF iter   7:  -113.92051399893532   -7.24890e-06   1.99136e-06 DIIS
   @RHF iter   8:  -113.92051411296617   -1.14031e-07   3.25395e-07 DIIS
   @RHF iter   9:  -113.92051411550969   -2.54352e-09   4.63388e-08 DIIS
   @RHF iter  10:  -113.92051411555488   -4.51905e-11   9.35395e-09 DIIS

  ==> Post-Iterations <==

    Orbital Energies (a.u.)
    -----------------------

    Doubly Occupied:                                                      

       1A1   -20.576529     2A1   -11.342356     3A1    -1.401375  
       4A1    -0.872761     1B1    -0.694509     5A1    -0.650671  
       1B2    -0.534328     2B1    -0.445038  

    Virtual:                                                              

       6A1     0.023309     3B1     0.037843     2B2     0.056042  
       7A1     0.067272     3B2     0.116452     8A1     0.118368  
       4B1     0.119748     9A1     0.145935     5B1     0.167127  
       4B2     0.177258    10A1     0.184524     1A2     0.205780  
      11A1     0.211462     6B1     0.224425     5B2     0.261460  
      12A1     0.272153     7B1     0.275435     2A2     0.294622  
      13A1     0.301075     6B2     0.320599    14A1     0.324509  
       8B1     0.349064    15A1     0.398301     9B1     0.405159  
       7B2     0.433989    16A1     0.444719    17A1     0.502902  
      10B1     0.527243    11B1     0.551870     3A2     0.554474  
      18A1     0.574725     8B2     0.621767    19A1     0.626753  
      20A1     0.658409     4A2     0.665178     9B2     0.673299  
      12B1     0.674880    21A1     0.717870    13B1     0.729979  
      10B2     0.736894    22A1     0.738572    23A1     0.756608  
       5A2     0.764420    14B1     0.775141    24A1     0.819780  
      11B2     0.834415    15B1     0.840203    12B2     0.878619  
       6A2     0.879679    25A1     0.942433    16B1     0.951638  
      26A1     0.971206    13B2     1.020798    27A1     1.050702  
       7A2     1.065159    17B1     1.081625    18B1     1.118744  
      14B2     1.153850    28A1     1.187879    19B1     1.287862  
      29A1     1.303452    15B2     1.382975     8A2     1.386659  
      30A1     1.445233    20B1     1.475525    21B1     1.522606  
      31A1     1.525827    32A1     1.537149    22B1     1.577144  
      16B2     1.577483     9A2     1.582994    17B2     1.623375  
      33A1     1.629785    23B1     1.636479    34A1     1.675545  
      18B2     1.703469    35A1     1.736603    10A2     1.788845  
      36A1     1.828768    19B2     1.834857    24B1     1.837089  
      37A1     1.876385    25B1     1.901308    11A2     1.903507  
      20B2     1.956438    38A1     1.967189    12A2     1.973372  
      26B1     1.990969    21B2     2.015214    39A1     2.032568  
      27B1     2.060035    13A2     2.076131    40A1     2.102658  
      28B1     2.140438    22B2     2.150444    29B1     2.171422  
      41A1     2.188122    14A2     2.214488    23B2     2.309168  
      42A1     2.404493    15A2     2.456062    30B1     2.477346  
      43A1     2.477653    24B2     2.480204    25B2     2.565276  
      44A1     2.639377    31B1     2.651063    32B1     2.750721  
      16A2     2.759928    45A1     2.772964    26B2     2.795022  
      46A1     2.797808    33B1     2.845825    27B2     2.887903  
      47A1     2.905025    34B1     2.944602    48A1     3.080067  
      17A2     3.084240    49A1     3.236686    35B1     3.334872  
      50A1     3.380016    18A2     3.400725    28B2     3.483899  
      36B1     3.531532    29B2     3.689937    51A1     3.725877  
      37B1     3.839588    30B2     3.848238    52A1     3.863475  
      19A2     3.871106    53A1     3.977338    38B1     3.987669  
      20A2     3.994658    39B1     4.063925    54A1     4.088212  
      55A1     4.169846    21A2     4.198728    31B2     4.237538  
      40B1     4.246563    56A1     4.325135    41B1     4.357337  
      22A2     4.360186    32B2     4.361822    33B2     4.379736  
      57A1     4.389363    42B1     4.426814    58A1     4.592716  
      34B2     4.601607    59A1     4.632006    43B1     4.660803  
      23A2     4.702642    60A1     4.782594    44B1     4.853885  
      35B2     4.964769    61A1     5.155341    36B2     5.218403  
      24A2     5.373104    45B1     5.458306    62A1     5.486109  
      63A1     5.565438    46B1     5.762059    64A1     5.764814  
      37B2     6.006234    25A2     6.008556    65A1     6.037075  
      47B1     6.171105    38B2     6.228008    26A2     6.252937  
      39B2     6.292725    66A1     6.382957    48B1     6.482654  
      27A2     6.588106    40B2     6.611994    49B1     6.787091  
      67A1     6.797845    50B1     6.870845    68A1     6.922328  
      28A2     6.943698    51B1     6.980002    69A1     7.136376  
      41B2     7.167493    70A1     7.169798    42B2     7.345346  
      52B1     7.371505    71A1     7.426693    29A2     7.595188  
      43B2     7.720608    72A1     7.897189    53B1     7.979948  
      73A1     8.254101    30A2     8.277432    44B2     8.293889  
      54B1     8.302852    74A1     8.341321    31A2     8.518927  
      75A1     8.581032    55B1     8.582653    45B2     8.589650  
      56B1     8.920467    76A1     8.992959    46B2     9.037617  
      57B1     9.175070    77A1     9.179501    32A2     9.237496  
      33A2     9.401207    78A1     9.656796    47B2     9.669374  
      58B1     9.740463    59B1    10.094305    34A2    10.167228  
      48B2    10.171576    79A1    10.214373    80A1    10.412873  
      81A1    10.712384    35A2    10.739719    82A1    10.754691  
      60B1    10.817176    61B1    10.980445    49B2    11.047836  
      62B1    11.212521    36A2    11.279278    50B2    11.280296  
      83A1    11.333810    51B2    11.470799    63B1    11.603243  
      64B1    11.664353    84A1    11.920126    52B2    12.048899  
      65B1    12.142372    85A1    12.156829    86A1    12.511479  
      37A2    12.546918    53B2    12.782305    66B1    12.795515  
      87A1    12.876664    38A2    13.097221    88A1    13.259125  
      67B1    13.363262    89A1    13.933238    54B2    13.933243  
      68B1    14.713556    90A1    14.875126    91A1    26.984434  
      92A1    43.489870  

    Final Occupation by Irrep:
             A1    A2    B1    B2 
    DOCC [     5,    0,    2,    1 ]

  Energy converged.

  @RHF Final Energy:  -113.92051411555488

   => Energetics <=

    Nuclear Repulsion Energy =             31.1860568608467403
    One-Electron Energy =                -217.1780097422582116
    Two-Electron Energy =                  72.0714387658565840
    PCM Polarization Energy =               0.0000000000000000
    Total Energy =                       -113.9205141155548802

    Alert: EFP and PCM quantities not currently incorporated into SCF psivars.

Properties will be evaluated at   0.000000,   0.000000,   0.000000 Bohr

Properties computed using the SCF density matrix

  Nuclear Dipole Moment: (a.u.)
     X:     0.0000      Y:     0.0000      Z:    -2.2204

  Electronic Dipole Moment: (a.u.)
     X:     0.0000      Y:     0.0000      Z:     1.0831

  Dipole Moment: (a.u.)
     X:     0.0000      Y:     0.0000      Z:    -1.1373     Total:     1.1373

  Dipole Moment: (Debye)
     X:     0.0000      Y:     0.0000      Z:    -2.8908     Total:     2.8908


*** tstop() called on cqc05 at Fri May  3 11:43:58 2019
Module time:
	user time   =      37.69 seconds =       0.63 minutes
	system time =       4.29 seconds =       0.07 minutes
	total time  =         42 seconds =       0.70 minutes
Total time:
	user time   =      37.69 seconds =       0.63 minutes
	system time =       4.29 seconds =       0.07 minutes
	total time  =         42 seconds =       0.70 minutes

*** tstart() called on cqc05
*** at Fri May  3 11:43:58 2019


	Wfn Parameters:
	--------------------
	Wavefunction         = CCSD
	Number of irreps     = 4
	Number of MOs        = 252
	Number of active MOs = 250
	AO-Basis             = NONE
	Semicanonical        = false
	Reference            = RHF
	Print Level          = 1

	IRREP	# MOs	# FZDC	# DOCC	# SOCC	# VIRT	# FZVR
	-----	-----	------	------	------	------	------
	 A1	   92	    2	    3	    0	    87	    0
	 A2	   38	    0	    0	    0	    38	    0
	 B1	   68	    0	    2	    0	    66	    0
	 B2	   54	    0	    1	    0	    53	    0
	Transforming integrals...
	IWL integrals will be deleted.
	(OO|OO)...
	Presorting SO-basis two-electron integrals.
	Sorting File: SO Ints (nn|nn) nbuckets = 1
	Transforming the one-electron integrals and constructing Fock matrices
	Starting first half-transformation.
	Sorting half-transformed integrals.
	First half integral transformation complete.
	Starting second half-transformation.
	Two-electron integral transformation complete.
	(OO|OV)...
	Starting second half-transformation.
	Two-electron integral transformation complete.
	(OO|VV)...
	Starting second half-transformation.
	Two-electron integral transformation complete.
	(OV|OO)...
	Starting first half-transformation.
	Sorting half-transformed integrals.
	First half integral transformation complete.
	Starting second half-transformation.
	Two-electron integral transformation complete.
	(OV|OV)...
	Starting second half-transformation.
	Two-electron integral transformation complete.
	(OV|VV)...
	Starting second half-transformation.
	Two-electron integral transformation complete.
	(VV|OO)...
	Starting first half-transformation.
	Sorting half-transformed integrals.
	First half integral transformation complete.
	Starting second half-transformation.
	Two-electron integral transformation complete.
	(VV|OV)...
	Starting second half-transformation.
	Two-electron integral transformation complete.
	(VV|VV)...
	Starting second half-transformation.
	Two-electron integral transformation complete.
	Frozen core energy     =   -104.90910040573991

	Size of irrep 0 of <ab|cd> integrals:    261.728 (MW) /   2093.821 (MB)
	Size of irrep 1 of <ab|cd> integrals:    185.178 (MW) /   1481.421 (MB)
	Size of irrep 2 of <ab|cd> integrals:    240.622 (MW) /   1924.977 (MB)
	Size of irrep 3 of <ab|cd> integrals:    202.721 (MW) /   1621.765 (MB)
	Total:                                   890.248 (MW) /   7121.985 (MB)

	Size of irrep 0 of <ia|bc> integrals:      7.215 (MW) /     57.723 (MB)
	Size of irrep 1 of <ia|bc> integrals:      3.892 (MW) /     31.135 (MB)
	Size of irrep 2 of <ia|bc> integrals:      6.360 (MW) /     50.879 (MB)
	Size of irrep 3 of <ia|bc> integrals:      4.585 (MW) /     36.677 (MB)
	Total:                                    22.052 (MW) /    176.415 (MB)

	Size of irrep 0 of tijab amplitudes:       0.226 (MW) /      1.812 (MB)
	Size of irrep 1 of tijab amplitudes:       0.054 (MW) /      0.435 (MB)
	Size of irrep 2 of tijab amplitudes:       0.186 (MW) /      1.489 (MB)
	Size of irrep 3 of tijab amplitudes:       0.085 (MW) /      0.683 (MB)
	Total:                                     0.552 (MW) /      4.420 (MB)

	Nuclear Rep. energy          =     31.18605686084674
	SCF energy                   =   -113.92051411555488
	One-electron energy          =    -71.19757876744998
	Two-electron energy          =     31.00010819678683
	Reference energy             =   -113.92051411555633

*** tstop() called on cqc05 at Fri May  3 11:44:58 2019
Module time:
	user time   =      38.21 seconds =       0.64 minutes
	system time =      21.50 seconds =       0.36 minutes
	total time  =         60 seconds =       1.00 minutes
Total time:
	user time   =      75.90 seconds =       1.27 minutes
	system time =      25.79 seconds =       0.43 minutes
	total time  =        102 seconds =       1.70 minutes

*** tstart() called on cqc05
*** at Fri May  3 11:44:58 2019

            **************************
            *                        *
            *        CCENERGY        *
            *                        *
            **************************

    Nuclear Rep. energy (wfn)     =   31.186056860846740
    SCF energy          (wfn)     = -113.920514115554880
    Reference energy    (file100) = -113.920514115556330

    Input parameters:
    -----------------
    Wave function   =     CCSD
    Reference wfn   =     RHF
    Brueckner       =     No
    Memory (Mbytes) =     32000.0
    Maxiter         =     50
    R_Convergence   =     1.0e-07
    E_Convergence   =     1.0e-06
    Restart         =     Yes
    DIIS            =     Yes
    AO Basis        =     NONE
    ABCD            =     NEW
    Cache Level     =     2
    Cache Type      =     LOW
    Print Level     =     1
    Num. of threads =     1
    # Amps to Print =     10
    Print MP2 Amps? =     No
    Analyze T2 Amps =     No
    Print Pair Ener =     No
    Local CC        =     No
    SCS-MP2         =     False
    SCSN-MP2        =     False
    SCS-CCSD        =     False

MP2 correlation energy -0.4281330788894305
                Solving CC Amplitude Equations
                ------------------------------
  Iter             Energy              RMS        T1Diag      D1Diag    New D1Diag    D2Diag
  ----     ---------------------    ---------   ----------  ----------  ----------   --------
     0        -0.428133078889233    0.000e+00    0.000000    0.000000    0.000000    0.164562
     1        -0.439882371965828    2.864e-01    0.025931    0.068008    0.068008    0.185967
     2        -0.442172427696215    5.728e-02    0.014822    0.041626    0.041626    0.189741
     3        -0.434174890822283    1.756e-02    0.016145    0.045711    0.045711    0.182979
     4        -0.432997017657379    3.964e-03    0.015615    0.044746    0.044746    0.181869
     5        -0.433078941012417    9.922e-04    0.015491    0.044550    0.044550    0.181628
     6        -0.433027904311897    3.932e-04    0.015470    0.044581    0.044581    0.181455
     7        -0.433003344259959    1.367e-04    0.015461    0.044595    0.044595    0.181382
     8        -0.433010663965404    4.323e-05    0.015462    0.044609    0.044609    0.181380
     9        -0.433011170952032    1.486e-05    0.015463    0.044616    0.044616    0.181380
    10        -0.433010646441105    6.005e-06    0.015463    0.044620    0.044620    0.181381
    11        -0.433010781739351    2.407e-06    0.015463    0.044621    0.044621    0.181382
    12        -0.433010918990056    9.128e-07    0.015463    0.044622    0.044622    0.181383
    13        -0.433010949155345    3.506e-07    0.015463    0.044622    0.044622    0.181383
    14        -0.433010955155721    9.845e-08    0.015463    0.044622    0.044622    0.181383
    14        -0.433010955155721    9.845e-08    0.015463    0.044622    0.044622    0.181383

    Iterations converged.


    CCSD corr. energy   =   -0.433010955155721
    PPL corr. energy    =    0.105734337014832
    OS PPL corr. energy =    0.089911711826157
    SS PPL corr. energy =    0.015822625188667
    Largest TIA Amplitudes:
              5 192         0.0309759501
              5 196         0.0143732760
              5 200         0.0140639315
              5 194         0.0136950307
              5 191         0.0117906997
              4 127        -0.0099752082
              4 131        -0.0091648223
              3 131         0.0089159378
              5 204         0.0076010052
              5 215         0.0074720473

    Largest TIjAb Amplitudes:
      5   5 192 192        -0.0937593204
      5   5 191 192        -0.0515975234
      5   5 192 191        -0.0515975234
      5   5 192 194        -0.0437345764
      5   5 194 192        -0.0437345764
      5   5 192 193        -0.0348746281
      5   5 193 192        -0.0348746281
      5   5 191 191        -0.0304966475
      1   1 192 192        -0.0275882380
      5   5 192 196        -0.0267375602

    SCF energy       (wfn)                    = -113.920514115554880
    Reference energy (file100)                = -113.920514115556330

    Opposite-spin MP2 correlation energy      =   -0.328852611522887
    Same-spin MP2 correlation energy          =   -0.099280467366345
    MP2 correlation energy                    =   -0.428133078889431
      * MP2 total energy                      = -114.348647194445761

    Opposite-spin CCSD correlation energy     =   -0.346192874396572
    Same-spin CCSD correlation energy         =   -0.086818067025129
    CCSD correlation energy                   =   -0.433010955155721
      * CCSD total energy                     = -114.353525070712053


*** tstop() called on cqc05 at Fri May  3 11:45:34 2019
Module time:
	user time   =      12.58 seconds =       0.21 minutes
	system time =      18.71 seconds =       0.31 minutes
	total time  =         36 seconds =       0.60 minutes
Total time:
	user time   =      88.48 seconds =       1.47 minutes
	system time =      44.50 seconds =       0.74 minutes
	total time  =        138 seconds =       2.30 minutes

*** Psi4 exiting successfully. Buy a developer a beer!
