
    -----------------------------------------------------------------------
          Psi4: An Open-Source Ab Initio Electronic Structure Package
                               Psi4 1.4a3.dev88 

                         Git: Rev {master} 262e345 


    D. G. A. Smith, L. A. Burns, A. C. Simmonett, R. M. Parrish,
    M. C. Schieber, R. Galvelis, P. Kraus, H. Kruse, R. Di Remigio,
    A. Alenaizan, A. M. James, S. Lehtola, J. P. Misiewicz, M. Scheurer,
    R. A. Shaw, J. B. Schriber, Y. Xie, Z. L. Glick, D. A. Sirianni,
    J. S. O'Brien, J. M. Waldrop, A. Kumar, E. G. Hohenstein,
    B. P. Pritchard, B. R. Brooks, H. F. Schaefer III, A. Yu. Sokolov,
    K. Patkowski, A. E. DePrince III, U. Bozkaya, R. A. King,
    F. A. Evangelista, J. M. Turney, T. D. Crawford, C. D. Sherrill,
    J. Chem. Phys. 152(18) 184108 (2020). https://doi.org/10.1063/5.0006002

                            Additional Code Authors
    E. T. Seidl, C. L. Janssen, E. F. Valeev, M. L. Leininger,
    J. F. Gonthier, R. M. Richard, H. R. McAlexander, M. Saitow, X. Wang,
    P. Verma, and M. H. Lechner

             Previous Authors, Complete List of Code Contributors,
                       and Citations for Specific Modules
    https://github.com/psi4/psi4/blob/master/codemeta.json
    https://github.com/psi4/psi4/graphs/contributors
    http://psicode.org/psi4manual/master/introduction.html#citing-psifour

    -----------------------------------------------------------------------


    Psi4 started on: Friday, 29 January 2021 03:43PM

    Process ID: 6336
    Host:       l49
    PSIDATADIR: /home/fs71337/gallo4/psi4/eri-6/psi4/build/stage/share/psi4
    Memory:     500.0 MiB
    Threads:    1
    
  ==> Input File <==

--------------------------------------------------------------------------
# Any line starting with the # character is a comment line
memory 250000 mb
molecule molecule{
0 1
Si         0.0000000000        0.0000000000       -0.0000000000
H          1.2043721963        0.0000000000        0.8516197471
H         -1.2043721963        0.0000000000        0.8516197471
H          0.0000000000       -1.2043721963       -0.8516197471
H          0.0000000000        1.2043721963       -0.8516197471
}

set {
  reference rhf
  basis aug-cc-pV(d+d)Z
  scf_type OUT_OF_CORE
  freeze_core true
}

energy('ccsd(t)')
--------------------------------------------------------------------------

  Memory set to 232.831 GiB by Python driver.

Scratch directory: /tmp/

*** tstart() called on l49
*** at Fri Jan 29 15:43:22 2021

   => Loading Basis Set <=

    Name: AUG-CC-PV(D+D)Z
    Role: ORBITAL
    Keyword: BASIS
    atoms 1   entry SI         line   604 file /home/fs71337/gallo4/psi4/eri-6/psi4/build/stage/share/psi4/basis/aug-cc-pv_dpd_z.gbs 
    atoms 2-5 entry H          line    68 file /home/fs71337/gallo4/psi4/eri-6/psi4/build/stage/share/psi4/basis/aug-cc-pv_dpd_z.gbs 


         ---------------------------------------------------------
                                   SCF
               by Justin Turney, Rob Parrish, Andy Simmonett
                          and Daniel G. A. Smith
                              RHF Reference
                        1 Threads, 238418 MiB Core
         ---------------------------------------------------------

  ==> Geometry <==

    Molecular point group: c2v
    Full point group: Td

    Geometry (in Angstrom), charge = 0, multiplicity = 1:

       Center              X                  Y                   Z               Mass       
    ------------   -----------------  -----------------  -----------------  -----------------
         SI          -0.000000000000    -0.000000000000     0.000000000000    27.976926534650
         H            1.204372196300     0.000000000000     0.851619747100     1.007825032230
         H           -1.204372196300    -0.000000000000     0.851619747100     1.007825032230
         H            0.000000000000    -1.204372196300    -0.851619747100     1.007825032230
         H           -0.000000000000     1.204372196300    -0.851619747100     1.007825032230

  Running in c2v symmetry.

  Rotational constants: A =      2.88290  B =      2.88290  C =      2.88290 [cm^-1]
  Rotational constants: A =  86427.23614  B =  86427.23614  C =  86427.23614 [MHz]
  Nuclear repulsion =   21.408273265630790

  Charge       = 0
  Multiplicity = 1
  Electrons    = 18
  Nalpha       = 9
  Nbeta        = 9

  ==> Algorithm <==

  SCF Algorithm Type is OUT_OF_CORE.
  DIIS enabled.
  MOM disabled.
  Fractional occupation disabled.
  Guess Type is SAD.
  Energy threshold   = 1.00e-08
  Density threshold  = 1.00e-08
  Integral threshold = 1.00e-12

  ==> Primary Basis <==

  Basis Set: AUG-CC-PV(D+D)Z
    Blend: AUG-CC-PV(D+D)Z
    Number of shells: 32
    Number of basis function: 68
    Number of Cartesian functions: 71
    Spherical Harmonics?: true
    Max angular momentum: 2

  ==> Integral Setup <==

  ==> DiskJK: Disk-Based J/K Matrices <==

    J tasked:                  Yes
    K tasked:                  Yes
    wK tasked:                  No
    Memory [MiB]:           178813
    Schwarz Cutoff:          1E-12

  Minimum eigenvalue in the overlap matrix is 2.9343094220E-04.
  Reciprocal condition number of the overlap matrix is 4.7719177338E-05.
    Using symmetric orthogonalization.

  ==> Pre-Iterations <==

  SCF Guess: Superposition of Atomic Densities via on-the-fly atomic UHF (no occupation information).

   -------------------------
    Irrep   Nso     Nmo    
   -------------------------
     A1        29      29 
     A2         7       7 
     B1        16      16 
     B2        16      16 
   -------------------------
    Total      68      68
   -------------------------

  ==> Iterations <==

                        Total Energy        Delta E     RMS |[F,P]|

   @RHF iter SAD:  -290.74118468508118   -2.90741e+02   0.00000e+00 
   @RHF iter   1:  -291.22194383738122   -4.80759e-01   3.49618e-03 DIIS
   @RHF iter   2:  -291.24701587160928   -2.50720e-02   1.11212e-03 DIIS
   @RHF iter   3:  -291.25006514138965   -3.04927e-03   2.74333e-04 DIIS
   @RHF iter   4:  -291.25027948024950   -2.14339e-04   2.70845e-05 DIIS
   @RHF iter   5:  -291.25028109315105   -1.61290e-06   3.06444e-06 DIIS
   @RHF iter   6:  -291.25028111397233   -2.08213e-08   2.59050e-07 DIIS
   @RHF iter   7:  -291.25028111409927   -1.26931e-10   2.02071e-08 DIIS
   @RHF iter   8:  -291.25028111410001   -7.38964e-13   1.66628e-09 DIIS
  Energy and wave function converged.


  ==> Post-Iterations <==

    Orbital Energies [Eh]
    ---------------------

    Doubly Occupied:                                                      

       1A1   -68.779451     2A1    -6.127447     1B1    -4.233552  
       1B2    -4.233552     3A1    -4.233552     4A1    -0.732466  
       5A1    -0.486290     2B2    -0.486290     2B1    -0.486290  

    Virtual:                                                              

       6A1     0.037329     3B1     0.060612     3B2     0.060612  
       7A1     0.060612     4B2     0.091186     8A1     0.091186  
       4B1     0.091186     9A1     0.166793     5B1     0.191686  
       5B2     0.191686    10A1     0.191686    11A1     0.202340  
       1A2     0.202340    12A1     0.293369     6B2     0.358831  
       6B1     0.358831    13A1     0.358831     7B1     0.385656  
       7B2     0.385656    14A1     0.385656     2A2     0.445553  
       8B2     0.445553     8B1     0.445553    15A1     0.504408  
       3A2     0.504408    16A1     0.581652     9B1     0.581652  
       9B2     0.581652    17A1     0.614471    10B1     0.652978  
      10B2     0.652978    18A1     0.652978    19A1     0.746173  
       4A2     0.820708    20A1     0.820708    11B2     0.975059  
      11B1     0.975059    21A1     0.975059    22A1     1.091083  
      12B2     1.360628    23A1     1.360628    12B1     1.360628  
      13B2     1.787868     5A2     1.787868    13B1     1.787868  
      14B1     1.996402    24A1     1.996402    14B2     1.996402  
       6A2     2.141364    25A1     2.141364    26A1     2.164840  
      15B2     2.301081    15B1     2.301081    27A1     2.301081  
       7A2     3.422581    28A1     3.422581    29A1     3.468482  
      16B1     3.468482    16B2     3.468482  

    Final Occupation by Irrep:
             A1    A2    B1    B2 
    DOCC [     5,    0,    2,    2 ]

  @RHF Final Energy:  -291.25028111410001

   => Energetics <=

    Nuclear Repulsion Energy =             21.4082732656307897
    One-Electron Energy =                -445.7193270557969527
    Two-Electron Energy =                 133.0607726760661649
    Total Energy =                       -291.2502811141000052

Computation Completed


Properties will be evaluated at   0.000000,   0.000000,   0.000000 [a0]

Properties computed using the SCF density matrix

  Nuclear Dipole Moment: [e a0]
     X:     0.0000      Y:     0.0000      Z:     0.0000

  Electronic Dipole Moment: [e a0]
     X:     0.0000      Y:     0.0000      Z:    -0.0000

  Dipole Moment: [e a0]
     X:     0.0000      Y:     0.0000      Z:    -0.0000     Total:     0.0000

  Dipole Moment: [D]
     X:     0.0000      Y:     0.0000      Z:    -0.0000     Total:     0.0000


*** tstop() called on l49 at Fri Jan 29 15:43:23 2021
Module time:
	user time   =       0.94 seconds =       0.02 minutes
	system time =       0.08 seconds =       0.00 minutes
	total time  =          1 seconds =       0.02 minutes
Total time:
	user time   =       0.94 seconds =       0.02 minutes
	system time =       0.08 seconds =       0.00 minutes
	total time  =          1 seconds =       0.02 minutes

*** tstart() called on l49
*** at Fri Jan 29 15:43:23 2021


	Wfn Parameters:
	--------------------
	Wavefunction         = CCSD_T
	Number of irreps     = 4
	Number of MOs        = 68
	Number of active MOs = 63
	AO-Basis             = NONE
	Semicanonical        = false
	Reference            = RHF
	Print Level          = 1

	IRREP	# MOs	# FZDC	# DOCC	# SOCC	# VIRT	# FZVR
	-----	-----	------	------	------	------	------
	 A1	   29	    3	    2	    0	    24	    0
	 A2	   7	    0	    0	    0	    7	    0
	 B1	   16	    1	    1	    0	    14	    0
	 B2	   16	    1	    1	    0	    14	    0
	Transforming integrals...
	IWL integrals will be deleted.
	(OO|OO)...
	Presorting SO-basis two-electron integrals.
	Sorting File: SO Ints (nn|nn) nbuckets = 1
	Constructing frozen core operators
	Starting first half-transformation.
	Sorting half-transformed integrals.
	First half integral transformation complete.
	Starting second half-transformation.
	Two-electron integral transformation complete.
	(OO|OV)...
	Starting second half-transformation.
	Two-electron integral transformation complete.
	(OO|VV)...
	Starting second half-transformation.
	Two-electron integral transformation complete.
	(OV|OO)...
	Starting first half-transformation.
	Sorting half-transformed integrals.
	First half integral transformation complete.
	Starting second half-transformation.
	Two-electron integral transformation complete.
	(OV|OV)...
	Starting second half-transformation.
	Two-electron integral transformation complete.
	(OV|VV)...
	Starting second half-transformation.
	Two-electron integral transformation complete.
	(VV|OO)...
	Starting first half-transformation.
	Sorting half-transformed integrals.
	First half integral transformation complete.
	Starting second half-transformation.
	Two-electron integral transformation complete.
	(VV|OV)...
	Starting second half-transformation.
	Two-electron integral transformation complete.
	(VV|VV)...
	Starting second half-transformation.
	Two-electron integral transformation complete.
	Frozen core energy     =   -299.52042787447891

	Size of irrep 0 of <ab|cd> integrals:      1.034 (MW) /      8.274 (MB)
	Size of irrep 1 of <ab|cd> integrals:      0.530 (MW) /      4.240 (MB)
	Size of irrep 2 of <ab|cd> integrals:      0.753 (MW) /      6.027 (MB)
	Size of irrep 3 of <ab|cd> integrals:      0.753 (MW) /      6.027 (MB)
	Total:                                     3.071 (MW) /     24.569 (MB)

	Size of irrep 0 of <ia|bc> integrals:      0.077 (MW) /      0.618 (MB)
	Size of irrep 1 of <ia|bc> integrals:      0.031 (MW) /      0.245 (MB)
	Size of irrep 2 of <ia|bc> integrals:      0.051 (MW) /      0.410 (MB)
	Size of irrep 3 of <ia|bc> integrals:      0.051 (MW) /      0.410 (MB)
	Total:                                     0.210 (MW) /      1.682 (MB)

	Size of irrep 0 of tijab amplitudes:       0.006 (MW) /      0.049 (MB)
	Size of irrep 1 of tijab amplitudes:       0.001 (MW) /      0.012 (MB)
	Size of irrep 2 of tijab amplitudes:       0.003 (MW) /      0.028 (MB)
	Size of irrep 3 of tijab amplitudes:       0.003 (MW) /      0.028 (MB)
	Total:                                     0.015 (MW) /      0.116 (MB)

	Nuclear Rep. energy          =     21.40827326563079
	SCF energy                   =   -291.25028111410001
	One-electron energy          =    -21.89357844495169
	Two-electron energy          =      8.75545193970005
	Reference energy             =   -291.25028111409978

*** tstop() called on l49 at Fri Jan 29 15:43:24 2021
Module time:
	user time   =       0.27 seconds =       0.00 minutes
	system time =       0.20 seconds =       0.00 minutes
	total time  =          1 seconds =       0.02 minutes
Total time:
	user time   =       1.21 seconds =       0.02 minutes
	system time =       0.28 seconds =       0.00 minutes
	total time  =          2 seconds =       0.03 minutes
            **************************
            *                        *
            *        CCENERGY        *
            *                        *
            **************************

    Nuclear Rep. energy (wfn)     =   21.408273265630790
    SCF energy          (wfn)     = -291.250281114100005
    Reference energy    (file100) = -291.250281114099778

    Input parameters:
    -----------------
    Wave function   =     CCSD_T
    Reference wfn   =     RHF
    Brueckner       =     No
    Memory (Mbytes) =     250000.0
    Maxiter         =     50
    R_Convergence   =     1.0e-07
    E_Convergence   =     1.0e-06
    Restart         =     Yes
    DIIS            =     Yes
    AO Basis        =     NONE
    ABCD            =     NEW
    Cache Level     =     2
    Cache Type      =     LOW
    Print Level     =     1
    Num. of threads =     1
    # Amps to Print =     10
    Print MP2 Amps? =     No
    Analyze T2 Amps =     No
    Print Pair Ener =     No
    Local CC        =     No
    SCS-MP2         =     False
    SCSN-MP2        =     False
    SCS-CCSD        =     False

MP2 correlation energy -0.1214669449789295
                Solving CC Amplitude Equations
                ------------------------------
  Iter             Energy              RMS        T1Diag      D1Diag    New D1Diag    D2Diag
  ----     ---------------------    ---------   ----------  ----------  ----------   --------
     0        -0.121466944978930    0.000e+00    0.000000    0.000000    0.000000    0.110825
     1        -0.145016750863446    5.208e-02    0.005606    0.008707    0.008707    0.134473
     2        -0.153148279473418    1.701e-02    0.008880    0.013909    0.013909    0.144428
     3        -0.153331600215278    3.505e-03    0.009960    0.015677    0.015677    0.145254
     4        -0.153340567972625    1.198e-03    0.010370    0.016356    0.016356    0.145444
     5        -0.153342418578403    3.464e-04    0.010503    0.016581    0.016581    0.145437
     6        -0.153341681979041    7.214e-05    0.010523    0.016615    0.016615    0.145430
     7        -0.153342245627630    1.874e-05    0.010526    0.016621    0.016621    0.145431
     8        -0.153342388594919    4.368e-06    0.010526    0.016622    0.016622    0.145431
     9        -0.153342316704426    1.144e-06    0.010526    0.016622    0.016622    0.145431
    10        -0.153342312242358    3.174e-07    0.010526    0.016622    0.016622    0.145431
    11        -0.153342315977942    7.749e-08    0.010526    0.016622    0.016622    0.145431

    Iterations converged.


    Largest TIA Amplitudes:
              1   4         0.0129514686
              2  33         0.0129514686
              3  47         0.0129514686
              1   1         0.0057329346
              2  31         0.0057329346
              3  45         0.0057329346
              0   6         0.0055471160
              1  12        -0.0049761934
              2  38        -0.0049761934
              3  52        -0.0049761934

    Largest TIjAb Amplitudes:
      2   2  33  33        -0.0260755090
      3   3  47  47        -0.0260755090
      3   3   4   4        -0.0201873524
      1   1  33  33        -0.0201873524
      1   1  47  47        -0.0201873524
      2   2   4   4        -0.0201873524
      1   1   6   6        -0.0194582160
      2   2   6   6        -0.0194582160
      3   3   6   6        -0.0194582160
      1   1   5   5        -0.0158048514

    SCF energy       (wfn)                    = -291.250281114100005
    Reference energy (file100)                = -291.250281114099778

    Opposite-spin MP2 correlation energy      =   -0.108880507460279
    Same-spin MP2 correlation energy          =   -0.012586437518651
    Singles MP2 correlation energy            =   -0.000000000000000
    MP2 correlation energy                    =   -0.121466944978930
      * MP2 total energy                      = -291.371748059078698

    Opposite-spin CCSD correlation energy     =   -0.138848717044249
    Same-spin CCSD correlation energy         =   -0.014493598933693
    Singles CCSD correlation energy           =    0.000000000000000
    CCSD correlation energy                   =   -0.153342315977942
      * CCSD total energy                     = -291.403623430077744

            **************************
            *                        *
            *        CCTRIPLES       *
            *                        *
            **************************


    Wave function   =    CCSD_T
    Reference wfn   =      RHF

    Nuclear Rep. energy (wfn)                =   21.408273265630790
    SCF energy          (wfn)                = -291.250281114100005
    Reference energy    (file100)            = -291.250281114099778
    CCSD energy         (file100)            =   -0.153342315977942
    Total CCSD energy   (file100)            = -291.403623430077744

    Number of ijk index combinations:               20
    Memory available in words        :     31250000000
    ~Words needed per explicit thread:           55296
    Number of threads for explicit ijk threading:    1

    (T) energy                                =   -0.002878347398231
      * CCSD(T) total energy                  = -291.406501777475967


    Psi4 stopped on: Friday, 29 January 2021 03:43PM
    Psi4 wall time for execution: 0:00:02.43

*** Psi4 exiting successfully. Buy a developer a beer!
