
    -----------------------------------------------------------------------
          Psi4: An Open-Source Ab Initio Electronic Structure Package
                               Psi4 1.4a3.dev88 

                         Git: Rev {master} 262e345 


    D. G. A. Smith, L. A. Burns, A. C. Simmonett, R. M. Parrish,
    M. C. Schieber, R. Galvelis, P. Kraus, H. Kruse, R. Di Remigio,
    A. Alenaizan, A. M. James, S. Lehtola, J. P. Misiewicz, M. Scheurer,
    R. A. Shaw, J. B. Schriber, Y. Xie, Z. L. Glick, D. A. Sirianni,
    J. S. O'Brien, J. M. Waldrop, A. Kumar, E. G. Hohenstein,
    B. P. Pritchard, B. R. Brooks, H. F. Schaefer III, A. Yu. Sokolov,
    K. Patkowski, A. E. DePrince III, U. Bozkaya, R. A. King,
    F. A. Evangelista, J. M. Turney, T. D. Crawford, C. D. Sherrill,
    J. Chem. Phys. 152(18) 184108 (2020). https://doi.org/10.1063/5.0006002

                            Additional Code Authors
    E. T. Seidl, C. L. Janssen, E. F. Valeev, M. L. Leininger,
    J. F. Gonthier, R. M. Richard, H. R. McAlexander, M. Saitow, X. Wang,
    P. Verma, and M. H. Lechner

             Previous Authors, Complete List of Code Contributors,
                       and Citations for Specific Modules
    https://github.com/psi4/psi4/blob/master/codemeta.json
    https://github.com/psi4/psi4/graphs/contributors
    http://psicode.org/psi4manual/master/introduction.html#citing-psifour

    -----------------------------------------------------------------------


    Psi4 started on: Friday, 22 January 2021 08:09AM

    Process ID: 70357
    Host:       n412-045.vsc4.prov
    PSIDATADIR: /home/fs71337/gallo4/psi4/psi4/build/stage/share/psi4
    Memory:     500.0 MiB
    Threads:    48
    
  ==> Input File <==

--------------------------------------------------------------------------
# Any line starting with the # character is a comment line
memory 250000 mb
molecule molecule{
0 2
S          0.0000000000        0.0000000000       -0.0407414360
H          0.0000000000        0.0000000000        1.2958811416
}

set {
  reference uhf
  basis aug-cc-pV(5+d)Z
  scf_type OUT_OF_CORE
  freeze_core true
}

energy('ccsd(t)')
--------------------------------------------------------------------------

  Memory set to 232.831 GiB by Python driver.

Scratch directory: /binfl/lv71337/airmler/temp/

*** tstart() called on n412-045.vsc4.prov
*** at Fri Jan 22 08:09:04 2021

   => Loading Basis Set <=

    Name: AUG-CC-PV(5+D)Z
    Role: ORBITAL
    Keyword: BASIS
    atoms 1 entry S          line  1451 file /home/fs71337/gallo4/psi4/psi4/build/stage/share/psi4/basis/aug-cc-pv_5pd_z.gbs 
    atoms 2 entry H          line    69 file /home/fs71337/gallo4/psi4/psi4/build/stage/share/psi4/basis/aug-cc-pv_5pd_z.gbs 


         ---------------------------------------------------------
                                   SCF
               by Justin Turney, Rob Parrish, Andy Simmonett
                          and Daniel G. A. Smith
                              UHF Reference
                       48 Threads, 238418 MiB Core
         ---------------------------------------------------------

  ==> Geometry <==

    Molecular point group: c2v
    Full point group: C_inf_v

    Geometry (in Angstrom), charge = 0, multiplicity = 2:

       Center              X                  Y                   Z               Mass       
    ------------   -----------------  -----------------  -----------------  -----------------
         S            0.000000000000     0.000000000000    -0.040845540687    31.972071174400
         H            0.000000000000     0.000000000000     1.295777036913     1.007825032230

  Running in c2v symmetry.

  Rotational constants: A = ************  B =      9.65767  C =      9.65767 [cm^-1]
  Rotational constants: A = ************  B = 289529.61054  C = 289529.61054 [MHz]
  Nuclear repulsion =    6.334499740325201

  Charge       = 0
  Multiplicity = 2
  Electrons    = 17
  Nalpha       = 9
  Nbeta        = 8

  ==> Algorithm <==

  SCF Algorithm Type is OUT_OF_CORE.
  DIIS enabled.
  MOM disabled.
  Fractional occupation disabled.
  Guess Type is SAD.
  Energy threshold   = 1.00e-08
  Density threshold  = 1.00e-08
  Integral threshold = 1.00e-12

  ==> Primary Basis <==

  Basis Set: AUG-CC-PV(5+D)Z
    Blend: AUG-CC-PV(5+D)Z
    Number of shells: 50
    Number of basis function: 216
    Number of Cartesian functions: 297
    Spherical Harmonics?: true
    Max angular momentum: 5

  ==> Integral Setup <==

  ==> DiskJK: Disk-Based J/K Matrices <==

    J tasked:                  Yes
    K tasked:                  Yes
    wK tasked:                  No
    Memory [MiB]:           178813
    Schwarz Cutoff:          1E-12

  Minimum eigenvalue in the overlap matrix is 2.6643183919E-05.
  Reciprocal condition number of the overlap matrix is 4.0363564924E-06.
    Using symmetric orthogonalization.

  ==> Pre-Iterations <==

  SCF Guess: Superposition of Atomic Densities via on-the-fly atomic UHF (no occupation information).


 WARNING: Atomic UHF is not converging! Try casting from a smaller basis or call Rob at CCMST.

 WARNING: Atomic UHF is not converging! Try casting from a smaller basis or call Rob at CCMST.
   -------------------------
    Irrep   Nso     Nmo    
   -------------------------
     A1        81      81 
     A2        31      31 
     B1        52      52 
     B2        52      52 
   -------------------------
    Total     216     216
   -------------------------

  ==> Iterations <==

                        Total Energy        Delta E     RMS |[F,P]|

   @UHF iter SAD:    93.74359453156084    9.37436e+01   0.00000e+00 
    Occupation by irrep:
             A1    A2    B1    B2 
    DOCC [     5,    0,    1,    2 ]
    SOCC [     0,    0,    1,    0 ]

   @UHF iter   1:  -379.06440172381576   -4.72808e+02   1.28235e-01 DIIS
    Occupation by irrep:
             A1    A2    B1    B2 
    DOCC [     5,    0,    2,    1 ]
    SOCC [     0,    0,    0,    1 ]

   @UHF iter   2:  -389.24785131316617   -1.01834e+01   5.03370e-02 DIIS
   @UHF iter   3:  -397.09011879779985   -7.84227e+00   1.54976e-02 DIIS
   @UHF iter   4:  -398.10165298577380   -1.01153e+00   1.43052e-03 DIIS
   @UHF iter   5:  -398.11013927082240   -8.48629e-03   3.33192e-04 DIIS
   @UHF iter   6:  -398.11065282475664   -5.13554e-04   8.06867e-05 DIIS
   @UHF iter   7:  -398.11073535582148   -8.25311e-05   2.62997e-05 DIIS
   @UHF iter   8:  -398.11074939211341   -1.40363e-05   8.80992e-06 DIIS
   @UHF iter   9:  -398.11075125537059   -1.86326e-06   3.24722e-06 DIIS
   @UHF iter  10:  -398.11075161331809   -3.57947e-07   1.24394e-06 DIIS
   @UHF iter  11:  -398.11075167246423   -5.91461e-08   4.66471e-07 DIIS
   @UHF iter  12:  -398.11075167991601   -7.45177e-09   1.70650e-07 DIIS
   @UHF iter  13:  -398.11075168090781   -9.91804e-10   6.07329e-08 DIIS
   @UHF iter  14:  -398.11075168104054   -1.32729e-10   1.42563e-08 DIIS
   @UHF iter  15:  -398.11075168104560   -5.05906e-12   3.70217e-09 DIIS
  Energy and wave function converged.


  ==> Post-Iterations <==

   @Spin Contamination Metric:   1.488552728E-02
   @S^2 Expected:                7.500000000E-01
   @S^2 Observed:                7.648855273E-01
   @S   Expected:                5.000000000E-01
   @S   Observed:                5.000000000E-01

    Orbital Energies [Eh]
    ---------------------

    Alpha Occupied:                                                       

       1A1   -91.989499     2A1    -8.990558     1B2    -6.686751  
       3A1    -6.668148     1B1    -6.666812     4A1    -0.988897  
       5A1    -0.553458     2B2    -0.471685     2B1    -0.401865  

    Alpha Virtual:                                                        

       6A1     0.023205     7A1     0.067030     3B2     0.069905  
       3B1     0.075378     8A1     0.107336     9A1     0.139905  
       4B2     0.167107     4B1     0.175347     1A2     0.186673  
      10A1     0.187536    11A1     0.219024     5B2     0.236099  
       5B1     0.241393    12A1     0.268248    13A1     0.300522  
       6B2     0.339388     6B1     0.358706    14A1     0.375441  
       7B2     0.419386     7B1     0.440357     2A2     0.453633  
      15A1     0.453777     8B2     0.460148     8B1     0.460236  
       3A2     0.468446    16A1     0.469430    17A1     0.542404  
       9B2     0.556348     9B1     0.567219    18A1     0.571727  
      10B2     0.610617    10B1     0.622548     4A2     0.632287  
      19A1     0.632722    20A1     0.667293    21A1     0.736313  
      22A1     1.009156    11B2     1.017825    11B1     1.037272  
      12B2     1.066348    12B1     1.067158    23A1     1.077894  
       5A2     1.077936    13B2     1.085470    24A1     1.106903  
      13B1     1.113055     6A2     1.148312    25A1     1.154269  
      26A1     1.164769     7A2     1.165044    14B2     1.173805  
      14B1     1.181218    15B2     1.188187    15B1     1.209975  
      27A1     1.219248    16B2     1.233926    16B1     1.251734  
      28A1     1.265598     8A2     1.266011    29A1     1.268624  
      17B2     1.362250    17B1     1.374326    18B2     1.417251  
      18B1     1.417371     9A2     1.432052    30A1     1.432267  
      31A1     1.493577    32A1     1.542073    19B2     1.770337  
      19B1     1.792987    33A1     1.816952    34A1     2.195906  
      10A2     2.297467    35A1     2.297892    20B2     2.299149  
      20B1     2.316330    21B2     2.431545    36A1     2.452212  
      21B1     2.455707    11A2     2.579772    22B2     2.580317  
      22B1     2.580450    37A1     2.581086    38A1     2.583126  
      12A2     2.632612    39A1     2.632624    23B2     2.686797  
      23B1     2.686892    13A2     2.697839    40A1     2.698128  
      24B2     2.707497    24B1     2.707503    25B2     2.718677  
      25B1     2.749491    14A2     2.753305    41A1     2.753646  
      42A1     2.771896    26B2     2.857589    26B1     2.885883  
      15A2     2.886637    43A1     2.888469    27B2     2.937261  
      27B1     2.937572    44A1     3.020745    28B2     3.074421  
      28B1     3.097054    45A1     3.176902    16A2     3.204125  
      46A1     3.206569    17A2     3.226819    47A1     3.226874  
      48A1     3.508815    29B2     3.559964    29B1     3.581124  
      30B2     3.615050    30B1     3.615392    18A2     3.710750  
      49A1     3.710942    50A1     3.886596    31B2     3.998075  
      31B1     4.028142    51A1     4.265817    32B2     4.290744  
      32B1     4.318270    33B2     4.530292    33B1     4.530296  
      19A2     5.114540    52A1     5.114548    34B2     5.170802  
      34B1     5.190275    53A1     5.202482    54A1     5.368934  
      35B2     5.379780    35B1     5.379851    20A2     5.432825  
      55A1     5.437552    36B2     5.526484    36B1     5.555591  
      56A1     5.828528    21A2     5.832565    57A1     5.847075  
      37B2     5.983801    37B1     6.001082    58A1     6.032220  
      59A1     6.081505    22A2     6.081875    38B2     6.115794  
      38B1     6.140674    60A1     6.152108    23A2     6.152439  
      39B2     6.161004    61A1     6.168404    39B1     6.170610  
      40B2     6.260983    40B1     6.260983    24A2     6.278449  
      62A1     6.278459    25A2     6.345802    63A1     6.347070  
      41B2     6.404686    41B1     6.404721    64A1     6.459010  
      42B2     6.874587    42B1     6.901500    65A1     6.922418  
      26A2     7.044363    66A1     7.045486    43B2     7.172527  
      43B1     7.193518    67A1     7.965658    44B2     8.100303  
      44B1     8.124362    68A1     9.738574    45B2    12.983228  
      45B1    12.983228    27A2    13.129903    69A1    13.129903  
      46B2    13.304672    46B1    13.304672    70A1    13.370299  
      28A2    13.370317    47B2    13.532365    47B1    13.540625  
      71A1    13.776877    29A2    13.829990    72A1    13.830164  
      73A1    13.967803    48B2    14.290510    48B1    14.295001  
      74A1    14.422226    30A2    14.422266    75A1    14.479259  
      49B2    15.153856    49B1    15.162012    76A1    16.297785  
      31A2    16.297866    77A1    16.655559    50B2    16.783896  
      50B1    16.803184    78A1    16.967973    51B2    17.660722  
      51B1    17.665537    79A1    18.987544    52B2    25.344142  
      52B1    25.365113    80A1    28.374038    81A1    68.049151  

    Beta Occupied:                                                        

       1A1   -91.979755     2A1    -8.980811     3A1    -6.663182  
       1B1    -6.661475     1B2    -6.645025     4A1    -0.895869  
       5A1    -0.534254     2B1    -0.381040  

    Beta Virtual:                                                         

       2B2    -0.002908     6A1     0.024078     7A1     0.067549  
       3B1     0.075916     3B2     0.087044     8A1     0.111133  
       9A1     0.146064     4B1     0.175094     4B2     0.176238  
      10A1     0.195644     1A2     0.195781    11A1     0.221763  
       5B1     0.241679     5B2     0.242296    12A1     0.277102  
      13A1     0.303187     6B1     0.361673     6B2     0.380434  
      14A1     0.382884     7B1     0.441611     7B2     0.454693  
      15A1     0.456612     2A2     0.456637     8B1     0.463786  
       8B2     0.463864     3A2     0.512346    16A1     0.512681  
      17A1     0.545039     9B2     0.563354     9B1     0.567075  
      18A1     0.576760    10B1     0.623633    10B2     0.627082  
       4A2     0.640805    19A1     0.640812    20A1     0.677877  
      21A1     0.741885    22A1     1.015080    11B1     1.038974  
      11B2     1.040971    12B1     1.071247    12B2     1.071363  
       5A2     1.083444    23A1     1.083446    13B1     1.118175  
      13B2     1.121455    24A1     1.122341    25A1     1.175614  
       6A2     1.175617    26A1     1.181183     7A2     1.181308  
      14B2     1.201226    14B1     1.201303    15B1     1.211197  
      15B2     1.211849    27A1     1.221930    16B2     1.244202  
      16B1     1.251922    28A1     1.269909     8A2     1.277288  
      29A1     1.277847    17B2     1.369989    17B1     1.375486  
      18B2     1.419282    18B1     1.419311     9A2     1.434073  
      30A1     1.434099    31A1     1.500446    32A1     1.547766  
      19B2     1.792124    19B1     1.795830    33A1     1.819532  
      34A1     2.211507    10A2     2.302542    35A1     2.302610  
      20B2     2.307227    20B1     2.316464    21B2     2.446893  
      21B1     2.457330    36A1     2.461351    37A1     2.592625  
      11A2     2.601362    38A1     2.601369    22B2     2.612456  
      22B1     2.612464    12A2     2.640717    39A1     2.640717  
      23B2     2.702106    23B1     2.702128    24B2     2.717820  
      24B1     2.717820    13A2     2.719183    40A1     2.719201  
      25B2     2.740084    25B1     2.751049    41A1     2.767293  
      14A2     2.769151    42A1     2.778217    26B2     2.871404  
      26B1     2.887596    15A2     2.895741    43A1     2.896196  
      27B2     2.943974    27B1     2.944044    44A1     3.026492  
      28B2     3.088011    28B1     3.098453    45A1     3.181847  
      16A2     3.207318    46A1     3.208635    17A2     3.229753  
      47A1     3.229768    48A1     3.510055    29B2     3.567015  
      29B1     3.582448    30B2     3.615810    30B1     3.615989  
      18A2     3.715335    49A1     3.715406    50A1     3.888096  
      31B2     4.024891    31B1     4.031099    51A1     4.269757  
      32B2     4.309844    32B1     4.321426    33B2     4.533684  
      33B1     4.533686    52A1     5.121614    19A2     5.121652  
      34B2     5.179283    34B1     5.190783    53A1     5.207618  
      54A1     5.377961    35B2     5.400775    35B1     5.400785  
      20A2     5.443767    55A1     5.445372    36B2     5.540595  
      36B1     5.556633    56A1     5.840618    21A2     5.842638  
      57A1     5.850178    37B2     5.989563    37B1     6.001289  
      58A1     6.041907    59A1     6.089627    22A2     6.089666  
      38B2     6.136536    38B1     6.154642    60A1     6.173913  
      23A2     6.174056    39B2     6.174554    39B1     6.176353  
      61A1     6.177225    40B2     6.279734    40B1     6.279734  
      24A2     6.293461    62A1     6.293462    25A2     6.355412  
      63A1     6.355822    41B2     6.415848    41B1     6.415856  
      64A1     6.463981    42B2     6.884438    42B1     6.902513  
      65A1     6.926348    26A2     7.053423    66A1     7.053950  
      43B2     7.179491    43B1     7.193979    67A1     7.969084  
      44B2     8.109991    44B1     8.125876    68A1     9.741558  
      45B2    12.982932    45B1    12.982932    69A1    13.129909  
      27A2    13.129909    46B2    13.304992    46B1    13.304992  
      70A1    13.370629    28A2    13.370643    47B2    13.533291  
      47B1    13.539978    71A1    13.776598    29A2    13.830124  
      72A1    13.830255    73A1    13.967719    48B2    14.290443  
      48B1    14.294416    74A1    14.421756    30A2    14.421789  
      75A1    14.478001    49B2    15.155526    49B1    15.161614  
      31A2    16.310415    76A1    16.310429    77A1    16.655859  
      50B2    16.795557    50B1    16.805186    78A1    16.972641  
      51B2    17.660676    51B1    17.664456    79A1    18.987125  
      52B1    25.369021    52B2    25.373517    80A1    28.377481  
      81A1    68.055540  

    Final Occupation by Irrep:
             A1    A2    B1    B2 
    DOCC [     5,    0,    2,    1 ]
    SOCC [     0,    0,    0,    1 ]

  @UHF Final Energy:  -398.11075168104560

   => Energetics <=

    Nuclear Repulsion Energy =              6.3344997403252012
    One-Electron Energy =                -562.7314176195598066
    Two-Electron Energy =                 158.2861661981889654
    Total Energy =                       -398.1107516810455991

  UHF NO Occupations:
  HONO-2 :    2 B1 1.9994103
  HONO-1 :    5 A1 1.9935180
  HONO-0 :    2 B2 1.0000000
  LUNO+0 :    6 A1 0.0064820
  LUNO+1 :    3 B1 0.0005897
  LUNO+2 :    7 A1 0.0003877
  LUNO+3 :    3 B2 0.0000042


Computation Completed


Properties will be evaluated at   0.000000,   0.000000,   0.000000 [a0]

Properties computed using the SCF density matrix

  Nuclear Dipole Moment: [e a0]
     X:     0.0000      Y:     0.0000      Z:     1.2137

  Electronic Dipole Moment: [e a0]
     X:     0.0000      Y:     0.0000      Z:    -0.8829

  Dipole Moment: [e a0]
     X:     0.0000      Y:     0.0000      Z:     0.3308     Total:     0.3308

  Dipole Moment: [D]
     X:     0.0000      Y:     0.0000      Z:     0.8408     Total:     0.8408


*** tstop() called on n412-045.vsc4.prov at Fri Jan 22 08:10:46 2021
Module time:
	user time   =     156.23 seconds =       2.60 minutes
	system time =      11.36 seconds =       0.19 minutes
	total time  =        102 seconds =       1.70 minutes
Total time:
	user time   =     156.23 seconds =       2.60 minutes
	system time =      11.36 seconds =       0.19 minutes
	total time  =        102 seconds =       1.70 minutes

*** tstart() called on n412-045.vsc4.prov
*** at Fri Jan 22 08:10:46 2021


	Wfn Parameters:
	--------------------
	Wavefunction         = CCSD_T
	Number of irreps     = 4
	Number of MOs        = 216
	Number of active MOs = 211
	AO-Basis             = NONE
	Semicanonical        = false
	Reference            = UHF
	Print Level          = 1

	IRREP	# MOs	# FZDC	# DOCC	# SOCC	# VIRT	# FZVR
	-----	-----	------	------	------	------	------
	 A1	   81	    3	    2	    0	    76	    0
	 A2	   31	    0	    0	    0	    31	    0
	 B1	   52	    1	    1	    0	    50	    0
	 B2	   52	    1	    0	    1	    50	    0
	Transforming integrals...
	IWL integrals will be deleted.
	(OO|OO)...
	Presorting SO-basis two-electron integrals.
	Sorting File: SO Ints (nn|nn) nbuckets = 1
	Constructing frozen core operators
	Starting AA/AB first half-transformation.
	Sorting AA/AB half-transformed integrals.
	Starting BB first half-transformation.
	Sorting BB half-transformed integrals.
	First half integral transformation complete.
	Starting AA second half-transformation.
	Starting AB second half-transformation.
	Starting BB second half-transformation.
	Two-electron integral transformation complete.
	(OO|OV)...
	Starting AA second half-transformation.
	Starting AB second half-transformation.
	Starting BB second half-transformation.
	Two-electron integral transformation complete.
	(OO|VV)...
	Starting AA second half-transformation.
	Starting AB second half-transformation.
	Starting BB second half-transformation.
	Two-electron integral transformation complete.
	(OV|OO)...
	Starting AA/AB first half-transformation.
	Sorting AA/AB half-transformed integrals.
	Starting BB first half-transformation.
	Sorting BB half-transformed integrals.
	First half integral transformation complete.
	Starting AA second half-transformation.
	Starting AB second half-transformation.
	Starting BB second half-transformation.
	Two-electron integral transformation complete.
	(OV|OV)...
	Starting AA second half-transformation.
	Starting AB second half-transformation.
	Starting BB second half-transformation.
	Two-electron integral transformation complete.
	(OV|VV)...
	Starting AA second half-transformation.
	Starting AB second half-transformation.
	Starting BB second half-transformation.
	Two-electron integral transformation complete.
	(VV|OO)...
	Starting AA/AB first half-transformation.
	Sorting AA/AB half-transformed integrals.
	Starting BB first half-transformation.
	Sorting BB half-transformed integrals.
	First half integral transformation complete.
	Starting AA second half-transformation.
	Starting AB second half-transformation.
	Starting BB second half-transformation.
	Two-electron integral transformation complete.
	(VV|OV)...
	Starting AA second half-transformation.
	Starting AB second half-transformation.
	Starting BB second half-transformation.
	Two-electron integral transformation complete.
	(VV|VV)...
	Starting AA second half-transformation.
	Starting AB second half-transformation.
	Starting BB second half-transformation.
	Two-electron integral transformation complete.
	Frozen core energy     =   -391.51249613443940

	Size of irrep 0 of <AB|CD> integrals:     33.235 (MW) /    265.882 (MB)
	Size of irrep 1 of <AB|CD> integrals:     23.581 (MW) /    188.646 (MB)
	Size of irrep 2 of <AB|CD> integrals:     28.622 (MW) /    228.980 (MB)
	Size of irrep 3 of <AB|CD> integrals:     28.622 (MW) /    228.980 (MB)
	Total:                                   114.061 (MW) /    912.488 (MB)

	Size of irrep 0 of <ab|cd> integrals:     33.814 (MW) /    270.514 (MB)
	Size of irrep 1 of <ab|cd> integrals:     24.069 (MW) /    192.551 (MB)
	Size of irrep 2 of <ab|cd> integrals:     28.955 (MW) /    231.641 (MB)
	Size of irrep 3 of <ab|cd> integrals:     29.441 (MW) /    235.532 (MB)
	Total:                                   116.280 (MW) /    930.238 (MB)

	Size of irrep 0 of <Ab|Cd> integrals:    138.933 (MW) /   1111.467 (MB)
	Size of irrep 1 of <Ab|Cd> integrals:     95.297 (MW) /    762.373 (MB)
	Size of irrep 2 of <Ab|Cd> integrals:    115.154 (MW) /    921.235 (MB)
	Size of irrep 3 of <Ab|Cd> integrals:    116.122 (MW) /    928.977 (MB)
	Total:                                   465.507 (MW) /   3724.052 (MB)

	Size of irrep 0 of <IA|BC> integrals:      2.958 (MW) /     23.662 (MB)
	Size of irrep 1 of <IA|BC> integrals:      1.573 (MW) /     12.587 (MB)
	Size of irrep 2 of <IA|BC> integrals:      2.215 (MW) /     17.719 (MB)
	Size of irrep 3 of <IA|BC> integrals:      2.215 (MW) /     17.719 (MB)
	Total:                                     8.961 (MW) /     71.687 (MB)

	Size of irrep 0 of <ia|bc> integrals:      2.391 (MW) /     19.130 (MB)
	Size of irrep 1 of <ia|bc> integrals:      1.109 (MW) /      8.870 (MB)
	Size of irrep 2 of <ia|bc> integrals:      1.894 (MW) /     15.153 (MB)
	Size of irrep 3 of <ia|bc> integrals:      1.443 (MW) /     11.547 (MB)
	Total:                                     6.837 (MW) /     54.700 (MB)

	Size of irrep 0 of <Ia|Bc> integrals:      2.982 (MW) /     23.857 (MB)
	Size of irrep 1 of <Ia|Bc> integrals:      1.591 (MW) /     12.730 (MB)
	Size of irrep 2 of <Ia|Bc> integrals:      2.221 (MW) /     17.771 (MB)
	Size of irrep 3 of <Ia|Bc> integrals:      2.252 (MW) /     18.017 (MB)
	Total:                                     9.047 (MW) /     72.375 (MB)

	Size of irrep 0 of <iA|bC> integrals:      2.381 (MW) /     19.048 (MB)
	Size of irrep 1 of <iA|bC> integrals:      1.093 (MW) /      8.747 (MB)
	Size of irrep 2 of <iA|bC> integrals:      1.889 (MW) /     15.109 (MB)
	Size of irrep 3 of <iA|bC> integrals:      1.412 (MW) /     11.293 (MB)
	Total:                                     6.775 (MW) /     54.197 (MB)

	Size of irrep 0 of tIjAb amplitudes:       0.059 (MW) /      0.471 (MB)
	Size of irrep 1 of tIjAb amplitudes:       0.010 (MW) /      0.078 (MB)
	Size of irrep 2 of tIjAb amplitudes:       0.043 (MW) /      0.343 (MB)
	Size of irrep 3 of tIjAb amplitudes:       0.022 (MW) /      0.172 (MB)
	Total:                                     0.133 (MW) /      1.065 (MB)

	Nuclear Rep. energy          =      6.33449974032520
	SCF energy                   =   -398.11075168104560
	One-electron energy          =    -21.63844195553564
	Two-electron (AA) energy     =      2.24300393100307
	Two-electron (BB) energy     =      1.07712321138069
	Two-electron (AB) energy     =      5.38555952621791
	Two-electron energy          =      8.70568666860167
	Reference energy             =   -398.11075168104816

*** tstop() called on n412-045.vsc4.prov at Fri Jan 22 08:13:35 2021
Module time:
	user time   =      53.16 seconds =       0.89 minutes
	system time =      34.69 seconds =       0.58 minutes
	total time  =        169 seconds =       2.82 minutes
Total time:
	user time   =     209.40 seconds =       3.49 minutes
	system time =      46.05 seconds =       0.77 minutes
	total time  =        271 seconds =       4.52 minutes
            **************************
            *                        *
            *        CCENERGY        *
            *                        *
            **************************

    Nuclear Rep. energy (wfn)     =    6.334499740325201
    SCF energy          (wfn)     = -398.110751681045599
    Reference energy    (file100) = -398.110751681048157

    Input parameters:
    -----------------
    Wave function   =     CCSD_T
    Reference wfn   =     UHF
    Brueckner       =     No
    Memory (Mbytes) =     250000.0
    Maxiter         =     50
    R_Convergence   =     1.0e-07
    E_Convergence   =     1.0e-06
    Restart         =     Yes
    DIIS            =     Yes
    AO Basis        =     NONE
    ABCD            =     NEW
    Cache Level     =     2
    Cache Type      =     LRU
    Print Level     =     1
    Num. of threads =     48
    # Amps to Print =     10
    Print MP2 Amps? =     No
    Analyze T2 Amps =     No
    Print Pair Ener =     No
    Local CC        =     No
    SCS-MP2         =     False
    SCSN-MP2        =     False
    SCS-CCSD        =     False

MP2 correlation energy -0.1716019615633502
                Solving CC Amplitude Equations
                ------------------------------
  Iter             Energy              RMS        T1Diag      D1Diag    New D1Diag    D2Diag
  ----     ---------------------    ---------   ----------  ----------  ----------   --------
     0        -0.171601961563350    0.000e+00    0.000000    0.000000    0.000000    0.000000
     1        -0.185898455848479    4.739e-02    0.009993    0.000000    0.000000    0.000000
     2        -0.192060128049047    1.709e-02    0.014545    0.000000    0.000000    0.000000
     3        -0.192409900822485    4.903e-03    0.016263    0.000000    0.000000    0.000000
     4        -0.192420623015988    1.660e-03    0.016849    0.000000    0.000000    0.000000
     5        -0.192410565294477    5.062e-04    0.016957    0.000000    0.000000    0.000000
     6        -0.192408414926010    1.946e-04    0.016994    0.000000    0.000000    0.000000
     7        -0.192410164691165    6.713e-05    0.016997    0.000000    0.000000    0.000000
     8        -0.192410598990828    2.152e-05    0.016997    0.000000    0.000000    0.000000
     9        -0.192410426681578    7.889e-06    0.016997    0.000000    0.000000    0.000000
    10        -0.192410413110409    2.946e-06    0.016996    0.000000    0.000000    0.000000
    11        -0.192410431955628    1.013e-06    0.016997    0.000000    0.000000    0.000000
    12        -0.192410456393445    3.908e-07    0.016997    0.000000    0.000000    0.000000
    13        -0.192410463043665    1.459e-07    0.016997    0.000000    0.000000    0.000000
    14        -0.192410463254688    5.179e-08    0.016997    0.000000    0.000000    0.000000

    Iterations converged.


    Largest TIA Amplitudes:
              1   3        -0.0119370664
              1   8         0.0093220041
              3 161        -0.0084947823
              3 158         0.0082925587
              1  18        -0.0064161142
              0  10        -0.0052631857
              1  11         0.0052104143
              2 110         0.0051910290
              1  10         0.0050844883
              1   5        -0.0049681317

    Largest Tia Amplitudes:
              0  10        -0.0135151793
              1  10         0.0106339885
              0   6        -0.0102795486
              2 111        -0.0089718622
              0   3        -0.0079234209
              2 108         0.0077379443
              0   4        -0.0071882455
              1   4         0.0069009825
              0   2        -0.0068032427
              0  13         0.0057173741

    Largest TIJAB Amplitudes:
      3   2  78  10        -0.0263012185
      3   1 161   3         0.0161612039
      3   2  76  10        -0.0153315459
      3   2  78   4        -0.0151172855
      2   1 111   3         0.0144647735
      3   1 161   8        -0.0139126447
      3   2 161 111        -0.0125321144
      2   1 111   8        -0.0123241323
      3   1 161   6         0.0122841099
      2   1 111   6         0.0116407943

    Largest Tijab Amplitudes:
      2   1 111   3         0.0142886127
      2   1 111   8        -0.0136895014
      2   0 157  78        -0.0125294963
      2   1 111   6         0.0120997306
      2   1 108   3        -0.0100662556
      1   0 162 157         0.0097744339
      2   1 162  78         0.0095538944
      2   1 111  10        -0.0095373493
      2   1 108   8         0.0088772634
      2   1 111   5         0.0083954300

    Largest TIjAb Amplitudes:
      2   0  78 157         0.0278524430
      2   2  78  78        -0.0274389185
      2   2  10  10         0.0273973333
      3   0  10 157        -0.0271937514
      1   1   3   3        -0.0244242825
      2   2 111 111        -0.0238591116
      1   1   8   8        -0.0237730538
      1   1   3   8         0.0235904402
      1   1   3   6        -0.0219119591
      1   1   6   6        -0.0217521133

    SCF energy       (wfn)                    = -398.110751681045599
    Reference energy (file100)                = -398.110751681048157

    Opposite-spin MP2 correlation energy      =   -0.137903495916825
    Same-spin MP2 correlation energy          =   -0.033698465646525
    Singles MP2 correlation energy            =   -0.000000000000000
    MP2 correlation energy                    =   -0.171601961563350
      * MP2 total energy                      = -398.282353642611497

    Opposite-spin CCSD correlation energy     =   -0.158364059551713
    Same-spin CCSD correlation energy         =   -0.034046403702971
    Singles CCSD correlation energy           =   -0.000000000000004
    CCSD correlation energy                   =   -0.192410463254688
      * CCSD total energy                     = -398.303162144302860

            **************************
            *                        *
            *        CCTRIPLES       *
            *                        *
            **************************


    Wave function   =    CCSD_T
    Reference wfn   =      UHF

    Nuclear Rep. energy (wfn)                =    6.334499740325201
    SCF energy          (wfn)                = -398.110751681045599
    Reference energy    (file100)            = -398.110751681048157
    CCSD energy         (file100)            =   -0.192410463254688
    Total CCSD energy   (file100)            = -398.303162144302860

    Number of ijk index combinations:
    Spin Case AAA:                                   4
    Spin Case BBB:                                   1
    Spin Case AAB:                                  18
    Spin Case ABB:                                  12
    AAA (T) energy                             =   -0.000261237514114
    BBB (T) energy                             =   -0.000039912631356
    AAB (T) energy                             =   -0.004777845099881
    ABB (T) energy                             =   -0.002844880063393
    (T) energy                                   =   -0.007923875308744
      * CCSD(T) total energy                     = -398.311086019611594


    Psi4 stopped on: Friday, 22 January 2021 08:16AM
    Psi4 wall time for execution: 0:07:30.80

*** Psi4 exiting successfully. Buy a developer a beer!
