
    -----------------------------------------------------------------------
          Psi4: An Open-Source Ab Initio Electronic Structure Package
                               Psi4 1.4a3.dev88 

                         Git: Rev {master} 262e345 


    D. G. A. Smith, L. A. Burns, A. C. Simmonett, R. M. Parrish,
    M. C. Schieber, R. Galvelis, P. Kraus, H. Kruse, R. Di Remigio,
    A. Alenaizan, A. M. James, S. Lehtola, J. P. Misiewicz, M. Scheurer,
    R. A. Shaw, J. B. Schriber, Y. Xie, Z. L. Glick, D. A. Sirianni,
    J. S. O'Brien, J. M. Waldrop, A. Kumar, E. G. Hohenstein,
    B. P. Pritchard, B. R. Brooks, H. F. Schaefer III, A. Yu. Sokolov,
    K. Patkowski, A. E. DePrince III, U. Bozkaya, R. A. King,
    F. A. Evangelista, J. M. Turney, T. D. Crawford, C. D. Sherrill,
    J. Chem. Phys. 152(18) 184108 (2020). https://doi.org/10.1063/5.0006002

                            Additional Code Authors
    E. T. Seidl, C. L. Janssen, E. F. Valeev, M. L. Leininger,
    J. F. Gonthier, R. M. Richard, H. R. McAlexander, M. Saitow, X. Wang,
    P. Verma, and M. H. Lechner

             Previous Authors, Complete List of Code Contributors,
                       and Citations for Specific Modules
    https://github.com/psi4/psi4/blob/master/codemeta.json
    https://github.com/psi4/psi4/graphs/contributors
    http://psicode.org/psi4manual/master/introduction.html#citing-psifour

    -----------------------------------------------------------------------


    Psi4 started on: Wednesday, 20 January 2021 09:41PM

    Process ID: 5518
    Host:       l43
    PSIDATADIR: /home/fs71337/gallo4/psi4/psi4/build/stage/share/psi4
    Memory:     500.0 MiB
    Threads:    48
    
  ==> Input File <==

--------------------------------------------------------------------------
# Any line starting with the # character is a comment line
memory 250000 mb
molecule molecule{
0 2
S          0.0000000000        0.0000000000       -0.0407414360
H          0.0000000000        0.0000000000        1.2958811416
}

set {
  reference uhf
  basis aug-cc-pV(Q+d)Z
  scf_type OUT_OF_CORE
  freeze_core true
}

energy('ccsd(t)')
--------------------------------------------------------------------------

  Memory set to 232.831 GiB by Python driver.

Scratch directory: /tmp/

*** tstart() called on l43
*** at Wed Jan 20 21:41:36 2021

   => Loading Basis Set <=

    Name: AUG-CC-PV(Q+D)Z
    Role: ORBITAL
    Keyword: BASIS
    atoms 1 entry S          line  1164 file /home/fs71337/gallo4/psi4/psi4/build/stage/share/psi4/basis/aug-cc-pv_qpd_z.gbs 
    atoms 2 entry H          line    68 file /home/fs71337/gallo4/psi4/psi4/build/stage/share/psi4/basis/aug-cc-pv_qpd_z.gbs 


         ---------------------------------------------------------
                                   SCF
               by Justin Turney, Rob Parrish, Andy Simmonett
                          and Daniel G. A. Smith
                              UHF Reference
                       48 Threads, 238418 MiB Core
         ---------------------------------------------------------

  ==> Geometry <==

    Molecular point group: c2v
    Full point group: C_inf_v

    Geometry (in Angstrom), charge = 0, multiplicity = 2:

       Center              X                  Y                   Z               Mass       
    ------------   -----------------  -----------------  -----------------  -----------------
         S            0.000000000000     0.000000000000    -0.040845540687    31.972071174400
         H            0.000000000000     0.000000000000     1.295777036913     1.007825032230

  Running in c2v symmetry.

  Rotational constants: A = ************  B =      9.65767  C =      9.65767 [cm^-1]
  Rotational constants: A = ************  B = 289529.61054  C = 289529.61054 [MHz]
  Nuclear repulsion =    6.334499740325201

  Charge       = 0
  Multiplicity = 2
  Electrons    = 17
  Nalpha       = 9
  Nbeta        = 8

  ==> Algorithm <==

  SCF Algorithm Type is OUT_OF_CORE.
  DIIS enabled.
  MOM disabled.
  Fractional occupation disabled.
  Guess Type is SAD.
  Energy threshold   = 1.00e-08
  Density threshold  = 1.00e-08
  Integral threshold = 1.00e-12

  ==> Primary Basis <==

  Basis Set: AUG-CC-PV(Q+D)Z
    Blend: AUG-CC-PV(Q+D)Z
    Number of shells: 37
    Number of basis function: 135
    Number of Cartesian functions: 170
    Spherical Harmonics?: true
    Max angular momentum: 4

  ==> Integral Setup <==

  ==> DiskJK: Disk-Based J/K Matrices <==

    J tasked:                  Yes
    K tasked:                  Yes
    wK tasked:                  No
    Memory [MiB]:           178813
    Schwarz Cutoff:          1E-12

  Minimum eigenvalue in the overlap matrix is 7.5491227686E-05.
  Reciprocal condition number of the overlap matrix is 1.3019103526E-05.
    Using symmetric orthogonalization.

  ==> Pre-Iterations <==

  SCF Guess: Superposition of Atomic Densities via on-the-fly atomic UHF (no occupation information).


 WARNING: Atomic UHF is not converging! Try casting from a smaller basis or call Rob at CCMST.

 WARNING: Atomic UHF is not converging! Try casting from a smaller basis or call Rob at CCMST.
   -------------------------
    Irrep   Nso     Nmo    
   -------------------------
     A1        54      54 
     A2        17      17 
     B1        32      32 
     B2        32      32 
   -------------------------
    Total     135     135
   -------------------------

  ==> Iterations <==

                        Total Energy        Delta E     RMS |[F,P]|

   @UHF iter SAD:  -397.62827854029410   -3.97628e+02   0.00000e+00 
   @UHF iter   1:  -398.09064222834223   -4.62364e-01   2.34837e-03 DIIS
   @UHF iter   2:  -398.10748342674452   -1.68412e-02   7.63558e-04 DIIS
   @UHF iter   3:  -398.10955163659946   -2.06821e-03   2.85757e-04 DIIS
   @UHF iter   4:  -398.11012324860974   -5.71612e-04   7.69253e-05 DIIS
   @UHF iter   5:  -398.11017637846794   -5.31299e-05   2.16224e-05 DIIS
   @UHF iter   6:  -398.11018123994450   -4.86148e-06   7.68316e-06 DIIS
   @UHF iter   7:  -398.11018200267625   -7.62732e-07   2.80124e-06 DIIS
   @UHF iter   8:  -398.11018210793219   -1.05256e-07   1.13648e-06 DIIS
   @UHF iter   9:  -398.11018212502120   -1.70890e-08   4.77449e-07 DIIS
   @UHF iter  10:  -398.11018212861126   -3.59006e-09   1.88624e-07 DIIS
   @UHF iter  11:  -398.11018212919157   -5.80314e-10   5.38253e-08 DIIS
   @UHF iter  12:  -398.11018212922852   -3.69482e-11   1.29469e-08 DIIS
   @UHF iter  13:  -398.11018212922994   -1.42109e-12   3.24821e-09 DIIS
  Energy and wave function converged.


  ==> Post-Iterations <==

   @Spin Contamination Metric:   1.483584416E-02
   @S^2 Expected:                7.500000000E-01
   @S^2 Observed:                7.648358442E-01
   @S   Expected:                5.000000000E-01
   @S   Observed:                5.000000000E-01

    Orbital Energies [Eh]
    ---------------------

    Alpha Occupied:                                                       

       1A1   -91.988949     2A1    -8.990724     1B2    -6.686568  
       3A1    -6.668219     1B1    -6.666633     4A1    -0.988972  
       5A1    -0.553449     2B2    -0.471696     2B1    -0.401865  

    Alpha Virtual:                                                        

       6A1     0.026514     7A1     0.075583     3B2     0.078386  
       3B1     0.084795     8A1     0.121306     9A1     0.151224  
       4B2     0.184071     4B1     0.194289     1A2     0.201139  
      10A1     0.202522    11A1     0.252598     5B2     0.268361  
       5B1     0.273857    12A1     0.298421    13A1     0.381222  
       6B2     0.404444     6B1     0.428113    14A1     0.430445  
       7B2     0.467755     7B1     0.493083     2A2     0.508985  
      15A1     0.511602    16A1     0.551743     3A2     0.552189  
       8B2     0.557782     8B1     0.557848    17A1     0.627619  
       9B2     0.643567     9B1     0.657030    18A1     0.719146  
      10B2     0.747672    10B1     0.758330    19A1     0.782561  
       4A2     0.797433    20A1     0.799175    21A1     0.958321  
      22A1     1.154191    11B2     1.198123    11B1     1.217314  
      12B2     1.301754     5A2     1.302988    23A1     1.305056  
      12B1     1.332280    24A1     1.397186    13B2     1.433290  
      13B1     1.433365     6A2     1.471397    25A1     1.471399  
      14B2     1.499030     7A2     1.506583    26A1     1.508932  
      14B1     1.510762    15B2     1.523603    15B1     1.554890  
      27A1     1.598943    16B2     1.620839    16B1     1.642624  
       8A2     1.669081    28A1     1.671366    29A1     1.711448  
      17B2     1.769991    17B1     1.782552    30A1     1.835578  
      18B2     1.862843    18B1     1.862922     9A2     2.028739  
      31A1     2.028773    32A1     2.188539    19B2     2.284698  
      19B1     2.308659    33A1     2.448579    34A1     2.694543  
      10A2     2.898432    35A1     2.899216    20B2     2.904055  
      20B1     2.924006    36A1     3.094794    21B2     3.103885  
      21B1     3.126796    11A2     3.139918    37A1     3.143226  
      22B2     3.567167    38A1     3.582168    22B1     3.592737  
      12A2     3.667708    39A1     3.671342    23B2     3.678859  
      23B1     3.679034    40A1     3.754767    13A2     3.835013  
      41A1     3.835020    24B2     3.835378    24B1     3.835990  
      25B2     3.899205    25B1     3.931989    14A2     4.019685  
      42A1     4.021119    43A1     4.312551    26B2     4.614989  
      26B1     4.643407    44A1     4.713100    27B2     5.806258  
      27B1     5.846644    28B2     6.609501    28B1     6.609501  
      45A1     6.917750    15A2     6.976896    46A1     6.976903  
      47A1     7.343816    29B2     7.389566    29B1     7.402300  
      48A1     8.175632    30B2     8.600851    30B1     8.609749  
      16A2     8.640133    49A1     8.640163    31B2     9.225172  
      31B1     9.236889    50A1     9.285755    17A2     9.285987  
      32B2     9.543900    32B1     9.561279    51A1     9.664076  
      52A1     9.738769    53A1    11.127857    54A1    20.103929  

    Beta Occupied:                                                        

       1A1   -91.979886     2A1    -8.980743     3A1    -6.663305  
       1B1    -6.661341     1B2    -6.645543     4A1    -0.895969  
       5A1    -0.534254     2B1    -0.381046  

    Beta Virtual:                                                         

       2B2    -0.002828     6A1     0.027536     7A1     0.076386  
       3B1     0.085472     3B2     0.098378     8A1     0.125567  
       9A1     0.159262     4B1     0.193999     4B2     0.196317  
      10A1     0.212466     1A2     0.212538    11A1     0.255293  
       5B1     0.274177     5B2     0.274250    12A1     0.307690  
      13A1     0.384356     6B1     0.431938    14A1     0.440581  
       6B2     0.453244     7B1     0.495126     7B2     0.512239  
      15A1     0.554780     2A2     0.554825     3A2     0.563062  
      16A1     0.564159     8B1     0.564215     8B2     0.564285  
      17A1     0.631717     9B2     0.653738     9B1     0.656807  
      18A1     0.723788    10B2     0.757466    10B1     0.759153  
      19A1     0.792901     4A2     0.801119    20A1     0.802320  
      21A1     0.967105    22A1     1.164147    11B2     1.217343  
      11B1     1.218437    12B1     1.336198    12B2     1.338447  
       5A2     1.341068    23A1     1.341265    24A1     1.409353  
      13B2     1.441974    13B1     1.441981    25A1     1.482444  
       6A2     1.482445    26A1     1.527012     7A2     1.527050  
      14B1     1.540436    14B2     1.540578    15B1     1.559162  
      15B2     1.561346    27A1     1.604490    16B2     1.634539  
      16B1     1.642703     8A2     1.675655    28A1     1.676494  
      29A1     1.715135    17B2     1.776984    17B1     1.783431  
      30A1     1.838475    18B2     1.866736    18B1     1.866754  
       9A2     2.029359    31A1     2.029396    32A1     2.196369  
      19B2     2.304507    19B1     2.311422    33A1     2.454593  
      34A1     2.712852    10A2     2.906287    35A1     2.906347  
      20B2     2.913755    20B1     2.923940    36A1     3.098988  
      21B2     3.115437    21B1     3.127876    11A2     3.154961  
      37A1     3.155533    22B2     3.583263    38A1     3.591108  
      22B1     3.595603    12A2     3.689484    39A1     3.689808  
      23B2     3.710436    23B1     3.710441    40A1     3.765814  
      24B2     3.856072    24B1     3.856159    13A2     3.861222  
      41A1     3.861223    25B2     3.917085    25B1     3.932220  
      14A2     4.032870    42A1     4.033186    43A1     4.316155  
      26B2     4.631436    26B1     4.645527    44A1     4.718298  
      27B2     5.842848    27B1     5.852069    28B2     6.610173  
      28B1     6.610173    45A1     6.920600    46A1     6.978791  
      15A2     6.978793    47A1     7.344299    29B2     7.393603  
      29B1     7.402038    48A1     8.174934    30B2     8.602281  
      30B1     8.608631    16A2     8.639730    49A1     8.639745  
      31B2     9.229154    31B1     9.236887    50A1     9.297531  
      17A2     9.297616    32B2     9.551917    32B1     9.562245  
      51A1     9.664513    52A1     9.741500    53A1    11.130447  
      54A1    20.114342  

    Final Occupation by Irrep:
             A1    A2    B1    B2 
    DOCC [     5,    0,    2,    1 ]
    SOCC [     0,    0,    0,    1 ]

  @UHF Final Energy:  -398.11018212922994

   => Energetics <=

    Nuclear Repulsion Energy =              6.3344997403252012
    One-Electron Energy =                -562.7302031102740330
    Two-Electron Energy =                 158.2855212407188787
    Total Energy =                       -398.1101821292299405

  UHF NO Occupations:
  HONO-2 :    2 B1 1.9994126
  HONO-1 :    5 A1 1.9935389
  HONO-0 :    2 B2 1.0000000
  LUNO+0 :    6 A1 0.0064611
  LUNO+1 :    3 B1 0.0005874
  LUNO+2 :    7 A1 0.0003869
  LUNO+3 :    3 B2 0.0000032


Computation Completed


Properties will be evaluated at   0.000000,   0.000000,   0.000000 [a0]

Properties computed using the SCF density matrix

  Nuclear Dipole Moment: [e a0]
     X:     0.0000      Y:     0.0000      Z:     1.2137

  Electronic Dipole Moment: [e a0]
     X:     0.0000      Y:     0.0000      Z:    -0.8824

  Dipole Moment: [e a0]
     X:     0.0000      Y:     0.0000      Z:     0.3312     Total:     0.3312

  Dipole Moment: [D]
     X:     0.0000      Y:     0.0000      Z:     0.8419     Total:     0.8419


*** tstop() called on l43 at Wed Jan 20 21:41:53 2021
Module time:
	user time   =      20.92 seconds =       0.35 minutes
	system time =       5.44 seconds =       0.09 minutes
	total time  =         17 seconds =       0.28 minutes
Total time:
	user time   =      20.92 seconds =       0.35 minutes
	system time =       5.44 seconds =       0.09 minutes
	total time  =         17 seconds =       0.28 minutes

*** tstart() called on l43
*** at Wed Jan 20 21:41:53 2021


	Wfn Parameters:
	--------------------
	Wavefunction         = CCSD_T
	Number of irreps     = 4
	Number of MOs        = 135
	Number of active MOs = 130
	AO-Basis             = NONE
	Semicanonical        = false
	Reference            = UHF
	Print Level          = 1

	IRREP	# MOs	# FZDC	# DOCC	# SOCC	# VIRT	# FZVR
	-----	-----	------	------	------	------	------
	 A1	   54	    3	    2	    0	    49	    0
	 A2	   17	    0	    0	    0	    17	    0
	 B1	   32	    1	    1	    0	    30	    0
	 B2	   32	    1	    0	    1	    30	    0
	Transforming integrals...
	IWL integrals will be deleted.
	(OO|OO)...
	Presorting SO-basis two-electron integrals.
	Sorting File: SO Ints (nn|nn) nbuckets = 1
	Constructing frozen core operators
	Starting AA/AB first half-transformation.
	Sorting AA/AB half-transformed integrals.
	Starting BB first half-transformation.
	Sorting BB half-transformed integrals.
	First half integral transformation complete.
	Starting AA second half-transformation.
	Starting AB second half-transformation.
	Starting BB second half-transformation.
	Two-electron integral transformation complete.
	(OO|OV)...
	Starting AA second half-transformation.
	Starting AB second half-transformation.
	Starting BB second half-transformation.
	Two-electron integral transformation complete.
	(OO|VV)...
	Starting AA second half-transformation.
	Starting AB second half-transformation.
	Starting BB second half-transformation.
	Two-electron integral transformation complete.
	(OV|OO)...
	Starting AA/AB first half-transformation.
	Sorting AA/AB half-transformed integrals.
	Starting BB first half-transformation.
	Sorting BB half-transformed integrals.
	First half integral transformation complete.
	Starting AA second half-transformation.
	Starting AB second half-transformation.
	Starting BB second half-transformation.
	Two-electron integral transformation complete.
	(OV|OV)...
	Starting AA second half-transformation.
	Starting AB second half-transformation.
	Starting BB second half-transformation.
	Two-electron integral transformation complete.
	(OV|VV)...
	Starting AA second half-transformation.
	Starting AB second half-transformation.
	Starting BB second half-transformation.
	Two-electron integral transformation complete.
	(VV|OO)...
	Starting AA/AB first half-transformation.
	Sorting AA/AB half-transformed integrals.
	Starting BB first half-transformation.
	Sorting BB half-transformed integrals.
	First half integral transformation complete.
	Starting AA second half-transformation.
	Starting AB second half-transformation.
	Starting BB second half-transformation.
	Two-electron integral transformation complete.
	(VV|OV)...
	Starting AA second half-transformation.
	Starting AB second half-transformation.
	Starting BB second half-transformation.
	Two-electron integral transformation complete.
	(VV|VV)...
	Starting AA second half-transformation.
	Starting AB second half-transformation.
	Starting BB second half-transformation.
	Two-electron integral transformation complete.
	Frozen core energy     =   -391.51219522736591

	Size of irrep 0 of <AB|CD> integrals:      4.761 (MW) /     38.089 (MB)
	Size of irrep 1 of <AB|CD> integrals:      3.003 (MW) /     24.026 (MB)
	Size of irrep 2 of <AB|CD> integrals:      3.920 (MW) /     31.363 (MB)
	Size of irrep 3 of <AB|CD> integrals:      3.920 (MW) /     31.363 (MB)
	Total:                                    15.605 (MW) /    124.842 (MB)

	Size of irrep 0 of <ab|cd> integrals:      4.893 (MW) /     39.144 (MB)
	Size of irrep 1 of <ab|cd> integrals:      3.108 (MW) /     24.865 (MB)
	Size of irrep 2 of <ab|cd> integrals:      3.988 (MW) /     31.904 (MB)
	Size of irrep 3 of <ab|cd> integrals:      4.117 (MW) /     32.935 (MB)
	Total:                                    16.106 (MW) /    128.848 (MB)

	Size of irrep 0 of <Ab|Cd> integrals:     20.430 (MW) /    163.443 (MB)
	Size of irrep 1 of <Ab|Cd> integrals:     12.222 (MW) /     97.776 (MB)
	Size of irrep 2 of <Ab|Cd> integrals:     15.817 (MW) /    126.532 (MB)
	Size of irrep 3 of <Ab|Cd> integrals:     16.072 (MW) /    128.577 (MB)
	Total:                                    64.541 (MW) /    516.328 (MB)

	Size of irrep 0 of <IA|BC> integrals:      0.709 (MW) /      5.675 (MB)
	Size of irrep 1 of <IA|BC> integrals:      0.326 (MW) /      2.606 (MB)
	Size of irrep 2 of <IA|BC> integrals:      0.499 (MW) /      3.992 (MB)
	Size of irrep 3 of <IA|BC> integrals:      0.499 (MW) /      3.992 (MB)
	Total:                                     2.033 (MW) /     16.265 (MB)

	Size of irrep 0 of <ia|bc> integrals:      0.583 (MW) /      4.660 (MB)
	Size of irrep 1 of <ia|bc> integrals:      0.229 (MW) /      1.834 (MB)
	Size of irrep 2 of <ia|bc> integrals:      0.435 (MW) /      3.483 (MB)
	Size of irrep 3 of <ia|bc> integrals:      0.321 (MW) /      2.565 (MB)
	Total:                                     1.568 (MW) /     12.541 (MB)

	Size of irrep 0 of <Ia|Bc> integrals:      0.719 (MW) /      5.749 (MB)
	Size of irrep 1 of <Ia|Bc> integrals:      0.332 (MW) /      2.657 (MB)
	Size of irrep 2 of <Ia|Bc> integrals:      0.501 (MW) /      4.009 (MB)
	Size of irrep 3 of <Ia|Bc> integrals:      0.513 (MW) /      4.105 (MB)
	Total:                                     2.065 (MW) /     16.520 (MB)

	Size of irrep 0 of <iA|bC> integrals:      0.579 (MW) /      4.628 (MB)
	Size of irrep 1 of <iA|bC> integrals:      0.224 (MW) /      1.790 (MB)
	Size of irrep 2 of <iA|bC> integrals:      0.433 (MW) /      3.468 (MB)
	Size of irrep 3 of <iA|bC> integrals:      0.309 (MW) /      2.470 (MB)
	Total:                                     1.544 (MW) /     12.356 (MB)

	Size of irrep 0 of tIjAb amplitudes:       0.023 (MW) /      0.181 (MB)
	Size of irrep 1 of tIjAb amplitudes:       0.003 (MW) /      0.028 (MB)
	Size of irrep 2 of tIjAb amplitudes:       0.016 (MW) /      0.127 (MB)
	Size of irrep 3 of tIjAb amplitudes:       0.008 (MW) /      0.064 (MB)
	Total:                                     0.050 (MW) /      0.400 (MB)

	Nuclear Rep. energy          =      6.33449974032520
	SCF energy                   =   -398.11018212922994
	One-electron energy          =    -21.63772193472707
	Two-electron (AA) energy     =      2.24288763065655
	Two-electron (BB) energy     =      1.07709229384243
	Two-electron (AB) energy     =      5.38525536803926
	Two-electron energy          =      8.70523529253824
	Reference energy             =   -398.11018212922954

*** tstop() called on l43 at Wed Jan 20 21:42:07 2021
Module time:
	user time   =       9.64 seconds =       0.16 minutes
	system time =       4.38 seconds =       0.07 minutes
	total time  =         14 seconds =       0.23 minutes
Total time:
	user time   =      30.56 seconds =       0.51 minutes
	system time =       9.83 seconds =       0.16 minutes
	total time  =         31 seconds =       0.52 minutes
            **************************
            *                        *
            *        CCENERGY        *
            *                        *
            **************************

    Nuclear Rep. energy (wfn)     =    6.334499740325201
    SCF energy          (wfn)     = -398.110182129229941
    Reference energy    (file100) = -398.110182129229543

    Input parameters:
    -----------------
    Wave function   =     CCSD_T
    Reference wfn   =     UHF
    Brueckner       =     No
    Memory (Mbytes) =     250000.0
    Maxiter         =     50
    R_Convergence   =     1.0e-07
    E_Convergence   =     1.0e-06
    Restart         =     Yes
    DIIS            =     Yes
    AO Basis        =     NONE
    ABCD            =     NEW
    Cache Level     =     2
    Cache Type      =     LRU
    Print Level     =     1
    Num. of threads =     48
    # Amps to Print =     10
    Print MP2 Amps? =     No
    Analyze T2 Amps =     No
    Print Pair Ener =     No
    Local CC        =     No
    SCS-MP2         =     False
    SCSN-MP2        =     False
    SCS-CCSD        =     False

MP2 correlation energy -0.1663215994885797
                Solving CC Amplitude Equations
                ------------------------------
  Iter             Energy              RMS        T1Diag      D1Diag    New D1Diag    D2Diag
  ----     ---------------------    ---------   ----------  ----------  ----------   --------
     0        -0.166321599488580    0.000e+00    0.000000    0.000000    0.000000    0.000000
     1        -0.182614533099799    4.779e-02    0.009631    0.000000    0.000000    0.000000
     2        -0.188739530099438    1.715e-02    0.014328    0.000000    0.000000    0.000000
     3        -0.189109460703021    4.802e-03    0.016031    0.000000    0.000000    0.000000
     4        -0.189120043299986    1.595e-03    0.016583    0.000000    0.000000    0.000000
     5        -0.189106331176676    5.004e-04    0.016695    0.000000    0.000000    0.000000
     6        -0.189105897984224    1.823e-04    0.016728    0.000000    0.000000    0.000000
     7        -0.189107856311403    6.374e-05    0.016730    0.000000    0.000000    0.000000
     8        -0.189108017645815    2.034e-05    0.016730    0.000000    0.000000    0.000000
     9        -0.189107870713358    7.065e-06    0.016730    0.000000    0.000000    0.000000
    10        -0.189107861790852    2.623e-06    0.016730    0.000000    0.000000    0.000000
    11        -0.189107879502618    9.491e-07    0.016730    0.000000    0.000000    0.000000
    12        -0.189107900550074    3.473e-07    0.016730    0.000000    0.000000    0.000000
    13        -0.189107905127390    1.269e-07    0.016730    0.000000    0.000000    0.000000
    14        -0.189107905033783    4.501e-08    0.016730    0.000000    0.000000    0.000000

    Iterations converged.


    Largest TIA Amplitudes:
              1   3         0.0125390891
              1   8        -0.0091598113
              3  97         0.0090240273
              3 100        -0.0079966974
              1  11        -0.0061689988
              1  18         0.0050355144
              0   8        -0.0049810463
              2  69         0.0048337461
              0   9         0.0046892560
              1   5         0.0044408714

    Largest Tia Amplitudes:
              0  10        -0.0137567676
              1  10         0.0110468505
              0   6        -0.0100596644
              2  67        -0.0090455576
              2  70         0.0090316484
              0   4        -0.0082895395
              0   3         0.0082018802
              1   4         0.0075786777
              0   2        -0.0073503821
              0   9        -0.0059535590

    Largest TIJAB Amplitudes:
      3   2  50   9         0.0286366488
      3   1 100   3        -0.0182393826
      3   2  49   9         0.0173477608
      3   2  50   4        -0.0172529033
      2   1  70   3         0.0163730975
      3   1 100   8         0.0161289005
      3   2 100  70         0.0142493559
      2   1  70   9        -0.0138149741
      2   1  70   8        -0.0137406262
      3   1  97   3         0.0137271816

    Largest Tijab Amplitudes:
      2   1  70   3         0.0166862919
      2   1  70   8        -0.0157959129
      2   1  67   3        -0.0128356088
      2   0  96  51        -0.0121336982
      2   1  70   6        -0.0115232738
      1   0 101  96        -0.0106630809
      2   1  67   8         0.0104464073
      2   1 101  51        -0.0097429504
      2   1  70  10         0.0087685207
      2   1  67   6         0.0081791063

    Largest TIjAb Amplitudes:
      2   0  50  96         0.0298212686
      1   1   3   3        -0.0284607010
      2   2   9  10         0.0284472215
      2   2  50  51        -0.0281623129
      2   2  70  70        -0.0281146826
      3   0   9  96         0.0274298843
      1   1   3   8         0.0244325332
      1   1   3   6         0.0233821237
      1   1   8   8        -0.0233016254
      1   0 100  96        -0.0227296223

    SCF energy       (wfn)                    = -398.110182129229941
    Reference energy (file100)                = -398.110182129229543

    Opposite-spin MP2 correlation energy      =   -0.133056437969682
    Same-spin MP2 correlation energy          =   -0.033265161518897
    Singles MP2 correlation energy            =   -0.000000000000000
    MP2 correlation energy                    =   -0.166321599488580
      * MP2 total energy                      = -398.276503728718126

    Opposite-spin CCSD correlation energy     =   -0.155399395485857
    Same-spin CCSD correlation energy         =   -0.033708509547925
    Singles CCSD correlation energy           =   -0.000000000000001
    CCSD correlation energy                   =   -0.189107905033783
      * CCSD total energy                     = -398.299290034263322

            **************************
            *                        *
            *        CCTRIPLES       *
            *                        *
            **************************


    Wave function   =    CCSD_T
    Reference wfn   =      UHF

    Nuclear Rep. energy (wfn)                =    6.334499740325201
    SCF energy          (wfn)                = -398.110182129229941
    Reference energy    (file100)            = -398.110182129229543
    CCSD energy         (file100)            =   -0.189107905033783
    Total CCSD energy   (file100)            = -398.299290034263322

    Number of ijk index combinations:
    Spin Case AAA:                                   4
    Spin Case BBB:                                   1
    Spin Case AAB:                                  18
    Spin Case ABB:                                  12
    AAA (T) energy                             =   -0.000253838667128
    BBB (T) energy                             =   -0.000038957463239
    AAB (T) energy                             =   -0.004588084909490
    ABB (T) energy                             =   -0.002744209280932
    (T) energy                                   =   -0.007625090320790
      * CCSD(T) total energy                     = -398.306915124584123


    Psi4 stopped on: Wednesday, 20 January 2021 09:42PM
    Psi4 wall time for execution: 0:00:46.69

*** Psi4 exiting successfully. Buy a developer a beer!
