
    -----------------------------------------------------------------------
          Psi4: An Open-Source Ab Initio Electronic Structure Package
                               Psi4 1.4a3.dev88 

                         Git: Rev {master} 262e345 


    D. G. A. Smith, L. A. Burns, A. C. Simmonett, R. M. Parrish,
    M. C. Schieber, R. Galvelis, P. Kraus, H. Kruse, R. Di Remigio,
    A. Alenaizan, A. M. James, S. Lehtola, J. P. Misiewicz, M. Scheurer,
    R. A. Shaw, J. B. Schriber, Y. Xie, Z. L. Glick, D. A. Sirianni,
    J. S. O'Brien, J. M. Waldrop, A. Kumar, E. G. Hohenstein,
    B. P. Pritchard, B. R. Brooks, H. F. Schaefer III, A. Yu. Sokolov,
    K. Patkowski, A. E. DePrince III, U. Bozkaya, R. A. King,
    F. A. Evangelista, J. M. Turney, T. D. Crawford, C. D. Sherrill,
    J. Chem. Phys. 152(18) 184108 (2020). https://doi.org/10.1063/5.0006002

                            Additional Code Authors
    E. T. Seidl, C. L. Janssen, E. F. Valeev, M. L. Leininger,
    J. F. Gonthier, R. M. Richard, H. R. McAlexander, M. Saitow, X. Wang,
    P. Verma, and M. H. Lechner

             Previous Authors, Complete List of Code Contributors,
                       and Citations for Specific Modules
    https://github.com/psi4/psi4/blob/master/codemeta.json
    https://github.com/psi4/psi4/graphs/contributors
    http://psicode.org/psi4manual/master/introduction.html#citing-psifour

    -----------------------------------------------------------------------


    Psi4 started on: Tuesday, 26 January 2021 06:25PM

    Process ID: 408750
    Host:       n412-040.vsc4.prov
    PSIDATADIR: /home/fs71337/gallo4/psi4/eri-6/psi4/build/stage/share/psi4
    Memory:     500.0 MiB
    Threads:    48
    
  ==> Input File <==

--------------------------------------------------------------------------
# Any line starting with the # character is a comment line
memory 250000 mb
molecule molecule{
-1 2
P          0.0000000000        0.0000000000        0.0450645625
H          0.0000000000        0.0000000000       -1.3848234457
}

set {
  reference uhf
  basis aug-cc-pV(t+d)Z
  scf_type OUT_OF_CORE
  freeze_core true
}

energy('ccsd(t)')
--------------------------------------------------------------------------

  Memory set to 232.831 GiB by Python driver.

Scratch directory: /binfl/lv71337/airmler/temp/

*** tstart() called on n412-040.vsc4.prov
*** at Tue Jan 26 18:25:03 2021

   => Loading Basis Set <=

    Name: AUG-CC-PV(T+D)Z
    Role: ORBITAL
    Keyword: BASIS
    atoms 1 entry P          line   860 file /home/fs71337/gallo4/psi4/eri-6/psi4/build/stage/share/psi4/basis/aug-cc-pv_tpd_z.gbs 
    atoms 2 entry H          line    68 file /home/fs71337/gallo4/psi4/eri-6/psi4/build/stage/share/psi4/basis/aug-cc-pv_tpd_z.gbs 


         ---------------------------------------------------------
                                   SCF
               by Justin Turney, Rob Parrish, Andy Simmonett
                          and Daniel G. A. Smith
                              UHF Reference
                       48 Threads, 238418 MiB Core
         ---------------------------------------------------------

  ==> Geometry <==

    Molecular point group: c2v
    Full point group: C_inf_v

    Geometry (in Angstrom), charge = -1, multiplicity = 2:

       Center              X                  Y                   Z               Mass       
    ------------   -----------------  -----------------  -----------------  -----------------
         P            0.000000000000     0.000000000000     0.045059581520    30.973761998420
         H            0.000000000000     0.000000000000    -1.384828426680     1.007825032230

  Running in c2v symmetry.

  Rotational constants: A = ************  B =      8.44721  C =      8.44721 [cm^-1]
  Rotational constants: A = ************  B = 253241.02604  C = 253241.02604 [MHz]
  Nuclear repulsion =    5.551244653098561

  Charge       = -1
  Multiplicity = 2
  Electrons    = 17
  Nalpha       = 9
  Nbeta        = 8

  ==> Algorithm <==

  SCF Algorithm Type is OUT_OF_CORE.
  DIIS enabled.
  MOM disabled.
  Fractional occupation disabled.
  Guess Type is SAD.
  Energy threshold   = 1.00e-08
  Density threshold  = 1.00e-08
  Integral threshold = 1.00e-12

  ==> Primary Basis <==

  Basis Set: AUG-CC-PV(T+D)Z
    Blend: AUG-CC-PV(T+D)Z
    Number of shells: 26
    Number of basis function: 78
    Number of Cartesian functions: 90
    Spherical Harmonics?: true
    Max angular momentum: 3

  ==> Integral Setup <==

  ==> DiskJK: Disk-Based J/K Matrices <==

    J tasked:                  Yes
    K tasked:                  Yes
    wK tasked:                  No
    Memory [MiB]:           178813
    Schwarz Cutoff:          1E-12

  Minimum eigenvalue in the overlap matrix is 2.6943825081E-04.
  Reciprocal condition number of the overlap matrix is 5.4587897001E-05.
    Using symmetric orthogonalization.

  ==> Pre-Iterations <==

  SCF Guess: Superposition of Atomic Densities via on-the-fly atomic UHF (no occupation information).


 WARNING: Atomic UHF is not converging! Try casting from a smaller basis or call Rob at CCMST.

 WARNING: Atomic UHF is not converging! Try casting from a smaller basis or call Rob at CCMST.
   -------------------------
    Irrep   Nso     Nmo    
   -------------------------
     A1        34      34 
     A2         8       8 
     B1        18      18 
     B2        18      18 
   -------------------------
    Total      78      78
   -------------------------

  ==> Iterations <==

                        Total Energy        Delta E     RMS |[F,P]|

   @UHF iter SAD:  -334.21307319611253   -3.34213e+02   0.00000e+00 
   @UHF iter   1:  -341.16190798816001   -6.94883e+00   7.75046e-03 DIIS
   @UHF iter   2:  -341.28417791480700   -1.22270e-01   2.47997e-03 DIIS
   @UHF iter   3:  -341.29126636504020   -7.08845e-03   6.10560e-04 DIIS
   @UHF iter   4:  -341.29250458347127   -1.23822e-03   2.72935e-04 DIIS
   @UHF iter   5:  -341.29290014763723   -3.95564e-04   8.81854e-05 DIIS
   @UHF iter   6:  -341.29295368322863   -5.35356e-05   4.04941e-05 DIIS
   @UHF iter   7:  -341.29296713158925   -1.34484e-05   2.13674e-05 DIIS
   @UHF iter   8:  -341.29297202372794   -4.89214e-06   1.06759e-05 DIIS
   @UHF iter   9:  -341.29297358492869   -1.56120e-06   4.74148e-06 DIIS
   @UHF iter  10:  -341.29297392657355   -3.41645e-07   1.71220e-06 DIIS
   @UHF iter  11:  -341.29297395895685   -3.23833e-08   7.46379e-07 DIIS
   @UHF iter  12:  -341.29297396479706   -5.84021e-09   2.82272e-07 DIIS
   @UHF iter  13:  -341.29297396552556   -7.28505e-10   1.23651e-07 DIIS
   @UHF iter  14:  -341.29297396563783   -1.12266e-10   4.72414e-08 DIIS
   @UHF iter  15:  -341.29297396565221   -1.43814e-11   2.02661e-08 DIIS
   @UHF iter  16:  -341.29297396565499   -2.78533e-12   8.03196e-09 DIIS
  Energy and wave function converged.


  ==> Post-Iterations <==

   @Spin Contamination Metric:   2.182038131E-02
   @S^2 Expected:                7.500000000E-01
   @S^2 Observed:                7.718203813E-01
   @S   Expected:                5.000000000E-01
   @S   Observed:                5.000000000E-01

    Orbital Energies [Eh]
    ---------------------

    Alpha Occupied:                                                       

       1A1   -79.689276     2A1    -7.230345     1B2    -5.133587  
       3A1    -5.120882     1B1    -5.120617     4A1    -0.550685  
       5A1    -0.214299     2B2    -0.115267     2B1    -0.057410  

    Alpha Virtual:                                                        

       6A1     0.152806     7A1     0.222154     3B2     0.231055  
       3B1     0.244040     8A1     0.305083     9A1     0.348262  
       4B2     0.387352     1A2     0.397097    10A1     0.398981  
       4B1     0.400907    11A1     0.473773     5B2     0.502477  
       5B1     0.511021    12A1     0.526648    13A1     0.713119  
       6B2     0.722676     6B1     0.755695    14A1     0.780635  
       7B2     0.790127     2A2     0.814774    15A1     0.818455  
       7B1     0.819388    16A1     0.872010     3A2     0.872727  
       8B2     0.876683     8B1     0.876795    17A1     0.937445  
       9B2     0.972183     9B1     0.989553    18A1     1.092683  
      19A1     1.167847    10B2     1.249946     4A2     1.257944  
      20A1     1.258982    10B1     1.259745    21A1     1.516662  
      11B2     1.729857    11B1     1.747714    22A1     1.819320  
      12B2     1.851081     5A2     1.864362    23A1     1.866734  
      12B1     1.876255    24A1     2.116952     6A2     2.139743  
      13B2     2.143983    13B1     2.144064    25A1     2.148930  
      14B2     2.302689    14B1     2.332515    26A1     2.433547  
      15B2     2.698404    15B1     2.727608    27A1     2.984987  
      28A1     3.464496     7A2     4.204337    29A1     4.204380  
      16B2     4.425686    16B1     4.434299    30A1     4.548927  
      17B2     4.663212    17B1     4.670090    31A1     4.764813  
      32A1     5.530338     8A2     6.483912    33A1     6.484072  
      18B2     6.551288    18B1     6.565624    34A1     7.633688  

    Beta Occupied:                                                        

       1A1   -79.683055     2A1    -7.223127     3A1    -5.117760  
       1B1    -5.115431     1B2    -5.105245     4A1    -0.479700  
       5A1    -0.194377     2B1    -0.033633  

    Beta Virtual:                                                         

       6A1     0.153200     2B2     0.202377     7A1     0.223194  
       3B1     0.247860     8A1     0.310918     3B2     0.317050  
       9A1     0.355691     4B1     0.399662     4B2     0.407267  
       1A2     0.415703    10A1     0.415888    11A1     0.477475  
       5B2     0.510064     5B1     0.511407    12A1     0.539758  
      13A1     0.719811     6B1     0.765429     6B2     0.787595  
      14A1     0.791737     7B1     0.823680     7B2     0.839961  
       2A2     0.868795    15A1     0.869434    16A1     0.884255  
       3A2     0.884293     8B1     0.893225     8B2     0.893292  
      17A1     0.943088     9B2     0.985830     9B1     0.989391  
      18A1     1.106530    19A1     1.174503    10B2     1.255866  
      10B1     1.260173     4A2     1.263212    20A1     1.263366  
      21A1     1.528124    11B2     1.745758    11B1     1.750147  
      22A1     1.826207    12B2     1.874324    12B1     1.879375  
       5A2     1.889473    23A1     1.889496    24A1     2.132270  
       6A2     2.162027    25A1     2.162187    13B2     2.177610  
      13B1     2.177612    14B2     2.331749    14B1     2.336203  
      26A1     2.439212    15B1     2.734055    15B2     2.736241  
      27A1     2.988483    28A1     3.466388     7A2     4.205559  
      29A1     4.205567    16B2     4.429328    16B1     4.434144  
      30A1     4.556996    17B2     4.664068    17B1     4.668807  
      31A1     4.766027    32A1     5.533530     8A2     6.491653  
      33A1     6.491696    18B2     6.559007    18B1     6.567103  
      34A1     7.637665  

    Final Occupation by Irrep:
             A1    A2    B1    B2 
    DOCC [     5,    0,    2,    1 ]
    SOCC [     0,    0,    0,    1 ]

  @UHF Final Energy:  -341.29297396565499

   => Energetics <=

    Nuclear Repulsion Energy =              5.5512446530985606
    One-Electron Energy =                -487.5037428753922768
    Two-Electron Energy =                 140.6595242566386901
    Total Energy =                       -341.2929739656550510

  UHF NO Occupations:
  HONO-2 :    2 B1 1.9972764
  HONO-1 :    5 A1 1.9921052
  HONO-0 :    2 B2 1.0000000
  LUNO+0 :    6 A1 0.0078948
  LUNO+1 :    3 B1 0.0027236
  LUNO+2 :    7 A1 0.0003240
  LUNO+3 :    3 B2 0.0000024


Computation Completed


Properties will be evaluated at   0.000000,   0.000000,   0.000000 [a0]

Properties computed using the SCF density matrix

  Nuclear Dipole Moment: [e a0]
     X:     0.0000      Y:     0.0000      Z:    -1.3397

  Electronic Dipole Moment: [e a0]
     X:     0.0000      Y:     0.0000      Z:     1.2293

  Dipole Moment: [e a0]
     X:     0.0000      Y:     0.0000      Z:    -0.1104     Total:     0.1104

  Dipole Moment: [D]
     X:     0.0000      Y:     0.0000      Z:    -0.2806     Total:     0.2806


*** tstop() called on n412-040.vsc4.prov at Tue Jan 26 18:25:09 2021
Module time:
	user time   =      38.27 seconds =       0.64 minutes
	system time =       2.33 seconds =       0.04 minutes
	total time  =          6 seconds =       0.10 minutes
Total time:
	user time   =      38.27 seconds =       0.64 minutes
	system time =       2.33 seconds =       0.04 minutes
	total time  =          6 seconds =       0.10 minutes

*** tstart() called on n412-040.vsc4.prov
*** at Tue Jan 26 18:25:09 2021


	Wfn Parameters:
	--------------------
	Wavefunction         = CCSD_T
	Number of irreps     = 4
	Number of MOs        = 78
	Number of active MOs = 73
	AO-Basis             = NONE
	Semicanonical        = false
	Reference            = UHF
	Print Level          = 1

	IRREP	# MOs	# FZDC	# DOCC	# SOCC	# VIRT	# FZVR
	-----	-----	------	------	------	------	------
	 A1	   34	    3	    2	    0	    29	    0
	 A2	   8	    0	    0	    0	    8	    0
	 B1	   18	    1	    1	    0	    16	    0
	 B2	   18	    1	    0	    1	    16	    0
	Transforming integrals...
	IWL integrals will be deleted.
	(OO|OO)...
	Presorting SO-basis two-electron integrals.
	Sorting File: SO Ints (nn|nn) nbuckets = 1
	Constructing frozen core operators
	Starting AA/AB first half-transformation.
	Sorting AA/AB half-transformed integrals.
	Starting BB first half-transformation.
	Sorting BB half-transformed integrals.
	First half integral transformation complete.
	Starting AA second half-transformation.
	Starting AB second half-transformation.
	Starting BB second half-transformation.
	Two-electron integral transformation complete.
	(OO|OV)...
	Starting AA second half-transformation.
	Starting AB second half-transformation.
	Starting BB second half-transformation.
	Two-electron integral transformation complete.
	(OO|VV)...
	Starting AA second half-transformation.
	Starting AB second half-transformation.
	Starting BB second half-transformation.
	Two-electron integral transformation complete.
	(OV|OO)...
	Starting AA/AB first half-transformation.
	Sorting AA/AB half-transformed integrals.
	Starting BB first half-transformation.
	Sorting BB half-transformed integrals.
	First half integral transformation complete.
	Starting AA second half-transformation.
	Starting AB second half-transformation.
	Starting BB second half-transformation.
	Two-electron integral transformation complete.
	(OV|OV)...
	Starting AA second half-transformation.
	Starting AB second half-transformation.
	Starting BB second half-transformation.
	Two-electron integral transformation complete.
	(OV|VV)...
	Starting AA second half-transformation.
	Starting AB second half-transformation.
	Starting BB second half-transformation.
	Two-electron integral transformation complete.
	(VV|OO)...
	Starting AA/AB first half-transformation.
	Sorting AA/AB half-transformed integrals.
	Starting BB first half-transformation.
	Sorting BB half-transformed integrals.
	First half integral transformation complete.
	Starting AA second half-transformation.
	Starting AB second half-transformation.
	Starting BB second half-transformation.
	Two-electron integral transformation complete.
	(VV|OV)...
	Starting AA second half-transformation.
	Starting AB second half-transformation.
	Starting BB second half-transformation.
	Two-electron integral transformation complete.
	(VV|VV)...
	Starting AA second half-transformation.
	Starting AB second half-transformation.
	Starting BB second half-transformation.
	Two-electron integral transformation complete.
	Frozen core energy     =   -338.06166192682821

	Size of irrep 0 of <AB|CD> integrals:      0.454 (MW) /      3.634 (MB)
	Size of irrep 1 of <AB|CD> integrals:      0.238 (MW) /      1.905 (MB)
	Size of irrep 2 of <AB|CD> integrals:      0.350 (MW) /      2.804 (MB)
	Size of irrep 3 of <AB|CD> integrals:      0.350 (MW) /      2.804 (MB)
	Total:                                     1.393 (MW) /     11.147 (MB)

	Size of irrep 0 of <ab|cd> integrals:      0.476 (MW) /      3.809 (MB)
	Size of irrep 1 of <ab|cd> integrals:      0.254 (MW) /      2.032 (MB)
	Size of irrep 2 of <ab|cd> integrals:      0.360 (MW) /      2.880 (MB)
	Size of irrep 3 of <ab|cd> integrals:      0.386 (MW) /      3.085 (MB)
	Total:                                     1.476 (MW) /     11.806 (MB)

	Size of irrep 0 of <Ab|Cd> integrals:      2.053 (MW) /     16.428 (MB)
	Size of irrep 1 of <Ab|Cd> integrals:      0.984 (MW) /      7.873 (MB)
	Size of irrep 2 of <Ab|Cd> integrals:      1.421 (MW) /     11.367 (MB)
	Size of irrep 3 of <Ab|Cd> integrals:      1.471 (MW) /     11.771 (MB)
	Total:                                     5.930 (MW) /     47.438 (MB)

	Size of irrep 0 of <IA|BC> integrals:      0.128 (MW) /      1.020 (MB)
	Size of irrep 1 of <IA|BC> integrals:      0.047 (MW) /      0.375 (MB)
	Size of irrep 2 of <IA|BC> integrals:      0.082 (MW) /      0.654 (MB)
	Size of irrep 3 of <IA|BC> integrals:      0.082 (MW) /      0.654 (MB)
	Total:                                     0.338 (MW) /      2.702 (MB)

	Size of irrep 0 of <ia|bc> integrals:      0.107 (MW) /      0.858 (MB)
	Size of irrep 1 of <ia|bc> integrals:      0.033 (MW) /      0.266 (MB)
	Size of irrep 2 of <ia|bc> integrals:      0.073 (MW) /      0.586 (MB)
	Size of irrep 3 of <ia|bc> integrals:      0.052 (MW) /      0.417 (MB)
	Total:                                     0.266 (MW) /      2.127 (MB)

	Size of irrep 0 of <Ia|Bc> integrals:      0.130 (MW) /      1.043 (MB)
	Size of irrep 1 of <Ia|Bc> integrals:      0.049 (MW) /      0.389 (MB)
	Size of irrep 2 of <Ia|Bc> integrals:      0.082 (MW) /      0.658 (MB)
	Size of irrep 3 of <Ia|Bc> integrals:      0.086 (MW) /      0.689 (MB)
	Total:                                     0.347 (MW) /      2.779 (MB)

	Size of irrep 0 of <iA|bC> integrals:      0.106 (MW) /      0.848 (MB)
	Size of irrep 1 of <iA|bC> integrals:      0.032 (MW) /      0.254 (MB)
	Size of irrep 2 of <iA|bC> integrals:      0.073 (MW) /      0.582 (MB)
	Size of irrep 3 of <iA|bC> integrals:      0.049 (MW) /      0.388 (MB)
	Total:                                     0.259 (MW) /      2.072 (MB)

	Size of irrep 0 of tIjAb amplitudes:       0.007 (MW) /      0.057 (MB)
	Size of irrep 1 of tIjAb amplitudes:       0.001 (MW) /      0.008 (MB)
	Size of irrep 2 of tIjAb amplitudes:       0.005 (MW) /      0.038 (MB)
	Size of irrep 3 of tIjAb amplitudes:       0.002 (MW) /      0.019 (MB)
	Total:                                     0.015 (MW) /      0.123 (MB)

	Nuclear Rep. energy          =      5.55124465309856
	SCF energy                   =   -341.29297396565499
	One-electron energy          =    -15.91974414770524
	Two-electron (AA) energy     =      1.83924973578092
	Two-electron (BB) energy     =      0.87806070253649
	Two-electron (AB) energy     =      4.41987701746143
	Two-electron energy          =      7.13718745577884
	Reference energy             =   -341.29297396565602

*** tstop() called on n412-040.vsc4.prov at Tue Jan 26 18:25:14 2021
Module time:
	user time   =       1.01 seconds =       0.02 minutes
	system time =       0.75 seconds =       0.01 minutes
	total time  =          5 seconds =       0.08 minutes
Total time:
	user time   =      39.28 seconds =       0.65 minutes
	system time =       3.08 seconds =       0.05 minutes
	total time  =         11 seconds =       0.18 minutes
            **************************
            *                        *
            *        CCENERGY        *
            *                        *
            **************************

    Nuclear Rep. energy (wfn)     =    5.551244653098561
    SCF energy          (wfn)     = -341.292973965654994
    Reference energy    (file100) = -341.292973965656017

    Input parameters:
    -----------------
    Wave function   =     CCSD_T
    Reference wfn   =     UHF
    Brueckner       =     No
    Memory (Mbytes) =     250000.0
    Maxiter         =     50
    R_Convergence   =     1.0e-07
    E_Convergence   =     1.0e-06
    Restart         =     Yes
    DIIS            =     Yes
    AO Basis        =     NONE
    ABCD            =     NEW
    Cache Level     =     2
    Cache Type      =     LRU
    Print Level     =     1
    Num. of threads =     48
    # Amps to Print =     10
    Print MP2 Amps? =     No
    Analyze T2 Amps =     No
    Print Pair Ener =     No
    Local CC        =     No
    SCS-MP2         =     False
    SCSN-MP2        =     False
    SCS-CCSD        =     False

MP2 correlation energy -0.1458559556762716
                Solving CC Amplitude Equations
                ------------------------------
  Iter             Energy              RMS        T1Diag      D1Diag    New D1Diag    D2Diag
  ----     ---------------------    ---------   ----------  ----------  ----------   --------
     0        -0.145855955676272    0.000e+00    0.000000    0.000000    0.000000    0.000000
     1        -0.162035073275292    5.675e-02    0.011932    0.000000    0.000000    0.000000
     2        -0.168169361795206    2.157e-02    0.018222    0.000000    0.000000    0.000000
     3        -0.168763095202901    7.789e-03    0.021161    0.000000    0.000000    0.000000
     4        -0.168786152842697    3.447e-03    0.022653    0.000000    0.000000    0.000000
     5        -0.168760919072346    1.409e-03    0.023099    0.000000    0.000000    0.000000
     6        -0.168761456995389    5.887e-04    0.023232    0.000000    0.000000    0.000000
     7        -0.168767333199159    2.402e-04    0.023231    0.000000    0.000000    0.000000
     8        -0.168767858962918    9.677e-05    0.023220    0.000000    0.000000    0.000000
     9        -0.168767303205410    4.426e-05    0.023216    0.000000    0.000000    0.000000
    10        -0.168767194886311    1.930e-05    0.023213    0.000000    0.000000    0.000000
    11        -0.168767313005244    7.076e-06    0.023212    0.000000    0.000000    0.000000
    12        -0.168767466566415    2.422e-06    0.023212    0.000000    0.000000    0.000000
    13        -0.168767508566205    9.695e-07    0.023212    0.000000    0.000000    0.000000
    14        -0.168767519449314    3.823e-07    0.023213    0.000000    0.000000    0.000000
    15        -0.168767520067179    1.749e-07    0.023213    0.000000    0.000000    0.000000
    16        -0.168767519449174    7.964e-08    0.023213    0.000000    0.000000    0.000000

    Iterations converged.


    Largest TIA Amplitudes:
              3  53        -0.0220812507
              1   3        -0.0196382543
              3  54         0.0139187461
              1   8         0.0114612395
              1   5        -0.0091121581
              1   6         0.0082325629
              3  57        -0.0067435067
              1  11         0.0066950037
              2  40        -0.0064338825
              3  55         0.0063016757

    Largest Tia Amplitudes:
              2  38         0.0166258191
              0   6         0.0148002987
              1   4        -0.0140222645
              2  37         0.0132357677
              0   9         0.0122884471
              0   4        -0.0117219435
              1   9         0.0109463608
              2  40        -0.0106617877
              0   3        -0.0096775730
              2  41        -0.0076583736

    Largest TIJAB Amplitudes:
      3   2  29   4        -0.0252483374
      3   2  30   9         0.0247749757
      3   1  54   3        -0.0203566313
      3   2  30   4        -0.0203199338
      3   2  29   9         0.0197046170
      3   2  53  37        -0.0189854460
      2   1  38   3        -0.0182100163
      3   1  57   3         0.0177133270
      3   2  56  40        -0.0161674577
      3   2  56  37         0.0156416593

    Largest Tijab Amplitudes:
      2   1  38   3         0.0198928435
      2   1  41   3        -0.0157314170
      2   1  38   6        -0.0144519333
      2   1  41   8         0.0133806591
      2   1  41   6         0.0132414124
      2   0  54  30        -0.0117184486
      2   0  54  29        -0.0114975744
      1   0  58  54        -0.0102169709
      2   1  38   8        -0.0099676364
      2   1  58  30        -0.0098835682

    Largest TIjAb Amplitudes:
      2   2  37  37        -0.0448936615
      1   1   6   6         0.0349397646
      1   1   3   3         0.0337811656
      2   2  40  40        -0.0322554219
      1   1   3   6        -0.0314326322
      2   2  40  37         0.0298512287
      1   1   6   3        -0.0292838826
      2   2  38  38        -0.0283102538
      2   2  37  40         0.0282191605
      2   0  30  54         0.0279687124

    SCF energy       (wfn)                    = -341.292973965654994
    Reference energy (file100)                = -341.292973965656017

    Opposite-spin MP2 correlation energy      =   -0.115916423132808
    Same-spin MP2 correlation energy          =   -0.029939532543464
    Singles MP2 correlation energy            =   -0.000000000000000
    MP2 correlation energy                    =   -0.145855955676272
      * MP2 total energy                      = -341.438829921332285

    Opposite-spin CCSD correlation energy     =   -0.138648968064446
    Same-spin CCSD correlation energy         =   -0.030118551384727
    Singles CCSD correlation energy           =   -0.000000000000000
    CCSD correlation energy                   =   -0.168767519449174
      * CCSD total energy                     = -341.461741485105165

            **************************
            *                        *
            *        CCTRIPLES       *
            *                        *
            **************************


    Wave function   =    CCSD_T
    Reference wfn   =      UHF

    Nuclear Rep. energy (wfn)                =    5.551244653098561
    SCF energy          (wfn)                = -341.292973965654994
    Reference energy    (file100)            = -341.292973965656017
    CCSD energy         (file100)            =   -0.168767519449174
    Total CCSD energy   (file100)            = -341.461741485105165

    Number of ijk index combinations:
    Spin Case AAA:                                   4
    Spin Case BBB:                                   1
    Spin Case AAB:                                  18
    Spin Case ABB:                                  12
    AAA (T) energy                             =   -0.000271161148973
    BBB (T) energy                             =   -0.000041492586036
    AAB (T) energy                             =   -0.004796917045718
    ABB (T) energy                             =   -0.002848095575471
    (T) energy                                   =   -0.007957666356198
      * CCSD(T) total energy                     = -341.469699151461384


    Psi4 stopped on: Tuesday, 26 January 2021 06:25PM
    Psi4 wall time for execution: 0:00:19.06

*** Psi4 exiting successfully. Buy a developer a beer!
