
    -----------------------------------------------------------------------
          Psi4: An Open-Source Ab Initio Electronic Structure Package
                               Psi4 1.2a1.dev938 

                         Git: Rev {HEAD} fc51d9a dirty


    R. M. Parrish, L. A. Burns, D. G. A. Smith, A. C. Simmonett,
    A. E. DePrince III, E. G. Hohenstein, U. Bozkaya, A. Yu. Sokolov,
    R. Di Remigio, R. M. Richard, J. F. Gonthier, A. M. James,
    H. R. McAlexander, A. Kumar, M. Saitow, X. Wang, B. P. Pritchard,
    P. Verma, H. F. Schaefer III, K. Patkowski, R. A. King, E. F. Valeev,
    F. A. Evangelista, J. M. Turney, T. D. Crawford, and C. D. Sherrill,
    J. Chem. Theory Comput. 13(7) pp 3185--3197 (2017).
    (doi: 10.1021/acs.jctc.7b00174)

    -----------------------------------------------------------------------


    Psi4 started on: Thursday, 20 August 2020 07:55PM

    Process ID: 422869
    PSIDATADIR: /home/irmler/Programs/psi4/beforeGrueneis3/stage/usr/local/psi4/share/psi4
    Memory:     500.0 MiB
    Threads:    4
    
  ==> Input File <==

--------------------------------------------------------------------------
# Any line starting with the # character is a comment line
memory 250000 mb
molecule molecule{
1 2
S          0.0000000000        0.0000000000       -0.0550235194
H          0.0000000000        0.9811489408        0.8750788892
H          0.0000000000       -0.9811489408        0.8750788892
}

set {
  reference uhf
  basis aug-cc-pv(d+d)z
  scf_type OUT_OF_CORE
  freeze_core true
}

energy('ccsd')
--------------------------------------------------------------------------

  Memory set to 232.831 GiB by Python driver.

*** tstart() called on cqc05
*** at Thu Aug 20 19:55:43 2020

   => Loading Basis Set <=

    Name: AUG-CC-PV(D+D)Z
    Role: ORBITAL
    Keyword: BASIS
    atoms 1   entry S          line   724 file /home/irmler/Programs/psi4/beforeGrueneis3/stage/usr/local/psi4/share/psi4/basis/aug-cc-pv_dpd_z.gbs 
    atoms 2-3 entry H          line    56 file /home/irmler/Programs/psi4/beforeGrueneis3/stage/usr/local/psi4/share/psi4/basis/aug-cc-pv_dpd_z.gbs 


         ---------------------------------------------------------
                                   SCF
            by Justin Turney, Rob Parrish, Andy Simmonett
                             and Daniel Smith
                              UHF Reference
                        4 Threads, 238418 MiB Core
         ---------------------------------------------------------

  ==> Geometry <==

    Molecular point group: c2v
    Full point group: C2v

    Geometry (in Angstrom), charge = 1, multiplicity = 2:

       Center              X                  Y                   Z               Mass       
    ------------   -----------------  -----------------  -----------------  -----------------
           S         -0.000000000000     0.000000000000    -0.055159949561    31.972070999000
           H         -0.000000000000     0.981148940800     0.874942459039     1.007825032070
           H          0.000000000000    -0.981148940800     0.874942459039     1.007825032070

  Running in c2v symmetry.

  Rotational constants: A =     10.27711  B =      8.68783  C =      4.70794 [cm^-1]
  Rotational constants: A = 308100.07064  B = 260454.68908  C = 141140.50887 [MHz]
  Nuclear repulsion =   12.795125666744736

  Charge       = 1
  Multiplicity = 2
  Electrons    = 17
  Nalpha       = 9
  Nbeta        = 8

  ==> Algorithm <==

  SCF Algorithm Type is OUT_OF_CORE.
  DIIS enabled.
  MOM disabled.
  Fractional occupation disabled.
  Guess Type is GWH.
  Energy threshold   = 1.00e-08
  Density threshold  = 1.00e-08
  Integral threshold = 0.00e+00

  ==> Primary Basis <==

  Basis Set: AUG-CC-PV(D+D)Z
    Blend: AUG-CC-PV(D+D)Z
    Number of shells: 22
    Number of basis function: 50
    Number of Cartesian functions: 53
    Spherical Harmonics?: true
    Max angular momentum: 2

  ==> Pre-Iterations <==

   -------------------------------------------------------
    Irrep   Nso     Nmo     Nalpha   Nbeta   Ndocc  Nsocc
   -------------------------------------------------------
     A1        22      22       0       0       0       0
     A2         5       5       0       0       0       0
     B1         9       9       0       0       0       0
     B2        14      14       0       0       0       0
   -------------------------------------------------------
    Total      50      50       9       8       8       1
   -------------------------------------------------------

  ==> Integral Setup <==

  ==> DiskJK: Disk-Based J/K Matrices <==

    J tasked:                  Yes
    K tasked:                  Yes
    wK tasked:                  No
    Memory (MB):            178813
    Schwarz Cutoff:          1E-12

  Minimum eigenvalue in the overlap matrix is 1.0063049226E-03.
  Using Symmetric Orthogonalization.

  SCF Guess: Generalized Wolfsberg-Helmholtz.

  ==> Iterations <==

                        Total Energy        Delta E     RMS |[F,P]|

    Occupation by irrep:
             A1    A2    B1    B2 
    DOCC [     5,    0,    1,    2 ]
    SOCC [     0,    0,    1,    0 ]

   @UHF iter   1:  -376.54879984239324   -3.76549e+02   3.07036e-01 
   @UHF iter   2:  -393.95257197654354   -1.74038e+01   1.46031e-01 DIIS
   @UHF iter   3:  -398.26891147869202   -4.31634e+00   1.97722e-02 DIIS
   @UHF iter   4:  -398.36029073097473   -9.13793e-02   4.14938e-03 DIIS
   @UHF iter   5:  -398.36259665471584   -2.30592e-03   9.33203e-04 DIIS
   @UHF iter   6:  -398.36290686327516   -3.10209e-04   3.37202e-04 DIIS
   @UHF iter   7:  -398.36296345389388   -5.65906e-05   1.18456e-04 DIIS
   @UHF iter   8:  -398.36297169007236   -8.23618e-06   3.90673e-05 DIIS
   @UHF iter   9:  -398.36297295257464   -1.26250e-06   1.45456e-05 DIIS
   @UHF iter  10:  -398.36297320592240   -2.53348e-07   5.64594e-06 DIIS
   @UHF iter  11:  -398.36297324149001   -3.55676e-08   1.50782e-06 DIIS
   @UHF iter  12:  -398.36297324313557   -1.64556e-09   2.71159e-07 DIIS
   @UHF iter  13:  -398.36297324317974   -4.41673e-11   6.04320e-08 DIIS
   @UHF iter  14:  -398.36297324318241   -2.67164e-12   7.56116e-09 DIIS

  ==> Post-Iterations <==

   @Spin Contamination Metric:   1.437142049E-02
   @S^2 Expected:                7.500000000E-01
   @S^2 Observed:                7.643714205E-01
   @S   Expected:                5.000000000E-01
   @S   Observed:                5.000000000E-01

    Orbital Energies (a.u.)
    -----------------------

    Alpha Occupied:                                                       

       1A1   -92.368730     2A1    -9.366071     1B1    -7.062363  
       1B2    -7.043410     3A1    -7.041593     4A1    -1.366263  
       2B2    -0.921341     5A1    -0.843275     2B1    -0.805316  

    Alpha Virtual:                                                        

       6A1    -0.143776     3B2    -0.130476     4B2    -0.080823  
       7A1    -0.064621     3B1    -0.062908     8A1    -0.046381  
       9A1    -0.000684     5B2     0.007382    10A1     0.015117  
       1A2     0.025199     4B1     0.032775     6B2     0.184971  
      11A1     0.198649     7B2     0.250974     5B1     0.270347  
       2A2     0.277437    12A1     0.284718    13A1     0.334134  
       8B2     0.381989     6B1     0.525620    14A1     0.542498  
      15A1     0.588039     9B2     0.590483     3A2     0.724958  
       7B1     0.746979    16A1     0.815429    17A1     0.849223  
      10B2     0.852242    11B2     1.036355    18A1     1.294199  
       4A2     1.522467    12B2     1.547763     8B1     1.570508  
      19A1     1.677450    20A1     2.029465    13B2     2.097998  
       5A2     4.699764     9B1     4.704490    21A1     4.716197  
      22A1     4.760303    14B2     4.871720  

    Beta Occupied:                                                        

       1A1   -92.358248     2A1    -9.354411     1B2    -7.036283  
       3A1    -7.035987     1B1    -7.017726     4A1    -1.272164  
       2B2    -0.909882     5A1    -0.819010  

    Beta Virtual:                                                         

       2B1    -0.301580     6A1    -0.136187     3B2    -0.126241  
       4B2    -0.080514     7A1    -0.059916     3B1    -0.044262  
       8A1    -0.019187     9A1     0.008700     5B2     0.009590  
      10A1     0.025542     1A2     0.063429     4B1     0.071118  
       6B2     0.185780    11A1     0.231729     7B2     0.250962  
      12A1     0.288229     2A2     0.296330     5B1     0.297415  
      13A1     0.342716     8B2     0.384456    14A1     0.554581  
       9B2     0.594543    15A1     0.594902     6B1     0.598642  
       3A2     0.771290     7B1     0.792174    16A1     0.826501  
      10B2     0.859116    17A1     0.892812    11B2     1.042352  
      18A1     1.309560     4A2     1.528642    12B2     1.545720  
       8B1     1.577980    19A1     1.678406    20A1     2.033529  
      13B2     2.102303     5A2     4.710781     9B1     4.715110  
      21A1     4.730155    22A1     4.762429    14B2     4.873965  

    Final Occupation by Irrep:
             A1    A2    B1    B2 
    DOCC [     5,    0,    1,    2 ]
    SOCC [     0,    0,    1,    0 ]

  Energy converged.

  @UHF Final Energy:  -398.36297324318241

   => Energetics <=

    Nuclear Repulsion Energy =             12.7951256667447364
    One-Electron Energy =                -569.6941252985807296
    Two-Electron Energy =                 158.5360263886535108
    PCM Polarization Energy =               0.0000000000000000
    Total Energy =                       -398.3629732431824664

    Alert: EFP and PCM quantities not currently incorporated into SCF psivars.
  UHF NO Occupations:
  HONO-2 :    2 B2 1.9992798
  HONO-1 :    5 A1 1.9938697
  HONO-0 :    2 B1 1.0000000
  LUNO+0 :    6 A1 0.0061303
  LUNO+1 :    3 B2 0.0007202
  LUNO+2 :    7 A1 0.0003533
  LUNO+3 :    3 B1 0.0000010



Properties will be evaluated at   0.000000,   0.000000,   0.000000 Bohr

Properties computed using the SCF density matrix

  Nuclear Dipole Moment: (a.u.)
     X:     0.0000      Y:     0.0000      Z:     1.6390

  Electronic Dipole Moment: (a.u.)
     X:     0.0000      Y:     0.0000      Z:    -0.9770

  Dipole Moment: (a.u.)
     X:     0.0000      Y:     0.0000      Z:     0.6620     Total:     0.6620

  Dipole Moment: (Debye)
     X:     0.0000      Y:     0.0000      Z:     1.6827     Total:     1.6827


*** tstop() called on cqc05 at Thu Aug 20 19:55:43 2020
Module time:
	user time   =       0.71 seconds =       0.01 minutes
	system time =       0.00 seconds =       0.00 minutes
	total time  =          0 seconds =       0.00 minutes
Total time:
	user time   =       0.71 seconds =       0.01 minutes
	system time =       0.00 seconds =       0.00 minutes
	total time  =          0 seconds =       0.00 minutes

*** tstart() called on cqc05
*** at Thu Aug 20 19:55:43 2020


	Wfn Parameters:
	--------------------
	Wavefunction         = CCSD
	Number of irreps     = 4
	Number of MOs        = 50
	Number of active MOs = 45
	AO-Basis             = NONE
	Semicanonical        = false
	Reference            = UHF
	Print Level          = 1

	IRREP	# MOs	# FZDC	# DOCC	# SOCC	# VIRT	# FZVR
	-----	-----	------	------	------	------	------
	 A1	   22	    3	    2	    0	    17	    0
	 A2	   5	    0	    0	    0	    5	    0
	 B1	   9	    1	    0	    1	    7	    0
	 B2	   14	    1	    1	    0	    12	    0
	Transforming integrals...
	IWL integrals will be deleted.
	(OO|OO)...
	Presorting SO-basis two-electron integrals.
	Sorting File: SO Ints (nn|nn) nbuckets = 1
	Transforming the one-electron integrals and constructing Fock matrices
	Starting AA/AB first half-transformation.
	Sorting AA/AB half-transformed integrals.
	Starting BB first half-transformation.
	Sorting BB half-transformed integrals.
	First half integral transformation complete.
	Starting AA second half-transformation.
	Starting AB second half-transformation.
	Starting BB second half-transformation.
	Two-electron integral transformation complete.
	(OO|OV)...
	Starting AA second half-transformation.
	Starting AB second half-transformation.
	Starting BB second half-transformation.
	Two-electron integral transformation complete.
	(OO|VV)...
	Starting AA second half-transformation.
	Starting AB second half-transformation.
	Starting BB second half-transformation.
	Two-electron integral transformation complete.
	(OV|OO)...
	Starting AA/AB first half-transformation.
	Sorting AA/AB half-transformed integrals.
	Starting BB first half-transformation.
	Sorting BB half-transformed integrals.
	First half integral transformation complete.
	Starting AA second half-transformation.
	Starting AB second half-transformation.
	Starting BB second half-transformation.
	Two-electron integral transformation complete.
	(OV|OV)...
	Starting AA second half-transformation.
	Starting AB second half-transformation.
	Starting BB second half-transformation.
	Two-electron integral transformation complete.
	(OV|VV)...
	Starting AA second half-transformation.
	Starting AB second half-transformation.
	Starting BB second half-transformation.
	Two-electron integral transformation complete.
	(VV|OO)...
	Starting AA/AB first half-transformation.
	Sorting AA/AB half-transformed integrals.
	Starting BB first half-transformation.
	Sorting BB half-transformed integrals.
	First half integral transformation complete.
	Starting AA second half-transformation.
	Starting AB second half-transformation.
	Starting BB second half-transformation.
	Two-electron integral transformation complete.
	(VV|OV)...
	Starting AA second half-transformation.
	Starting AB second half-transformation.
	Starting BB second half-transformation.
	Two-electron integral transformation complete.
	(VV|VV)...
	Starting AA second half-transformation.
	Starting AB second half-transformation.
	Starting BB second half-transformation.
	Two-electron integral transformation complete.
	Frozen core energy     =   -395.37434788450167

	Size of irrep 0 of <AB|CD> integrals:      0.054 (MW) /      0.434 (MB)
	Size of irrep 1 of <AB|CD> integrals:      0.029 (MW) /      0.228 (MB)
	Size of irrep 2 of <AB|CD> integrals:      0.032 (MW) /      0.256 (MB)
	Size of irrep 3 of <AB|CD> integrals:      0.057 (MW) /      0.457 (MB)
	Total:                                     0.172 (MW) /      1.376 (MB)

	Size of irrep 0 of <ab|cd> integrals:      0.058 (MW) /      0.461 (MB)
	Size of irrep 1 of <ab|cd> integrals:      0.033 (MW) /      0.262 (MB)
	Size of irrep 2 of <ab|cd> integrals:      0.038 (MW) /      0.307 (MB)
	Size of irrep 3 of <ab|cd> integrals:      0.060 (MW) /      0.476 (MB)
	Total:                                     0.188 (MW) /      1.507 (MB)

	Size of irrep 0 of <Ab|Cd> integrals:      0.264 (MW) /      2.114 (MB)
	Size of irrep 1 of <Ab|Cd> integrals:      0.122 (MW) /      0.980 (MB)
	Size of irrep 2 of <Ab|Cd> integrals:      0.141 (MW) /      1.125 (MB)
	Size of irrep 3 of <Ab|Cd> integrals:      0.233 (MW) /      1.866 (MB)
	Total:                                     0.761 (MW) /      6.085 (MB)

	Size of irrep 0 of <IA|BC> integrals:      0.027 (MW) /      0.215 (MB)
	Size of irrep 1 of <IA|BC> integrals:      0.010 (MW) /      0.078 (MB)
	Size of irrep 2 of <IA|BC> integrals:      0.013 (MW) /      0.103 (MB)
	Size of irrep 3 of <IA|BC> integrals:      0.022 (MW) /      0.176 (MB)
	Total:                                     0.072 (MW) /      0.572 (MB)

	Size of irrep 0 of <ia|bc> integrals:      0.024 (MW) /      0.192 (MB)
	Size of irrep 1 of <ia|bc> integrals:      0.007 (MW) /      0.052 (MB)
	Size of irrep 2 of <ia|bc> integrals:      0.008 (MW) /      0.066 (MB)
	Size of irrep 3 of <ia|bc> integrals:      0.020 (MW) /      0.160 (MB)
	Total:                                     0.059 (MW) /      0.470 (MB)

	Size of irrep 0 of <Ia|Bc> integrals:      0.028 (MW) /      0.222 (MB)
	Size of irrep 1 of <Ia|Bc> integrals:      0.011 (MW) /      0.084 (MB)
	Size of irrep 2 of <Ia|Bc> integrals:      0.014 (MW) /      0.114 (MB)
	Size of irrep 3 of <Ia|Bc> integrals:      0.022 (MW) /      0.178 (MB)
	Total:                                     0.075 (MW) /      0.598 (MB)

	Size of irrep 0 of <iA|bC> integrals:      0.024 (MW) /      0.189 (MB)
	Size of irrep 1 of <iA|bC> integrals:      0.006 (MW) /      0.048 (MB)
	Size of irrep 2 of <iA|bC> integrals:      0.007 (MW) /      0.057 (MB)
	Size of irrep 3 of <iA|bC> integrals:      0.020 (MW) /      0.158 (MB)
	Total:                                     0.057 (MW) /      0.452 (MB)

	Size of irrep 0 of tIjAb amplitudes:       0.003 (MW) /      0.021 (MB)
	Size of irrep 1 of tIjAb amplitudes:       0.000 (MW) /      0.003 (MB)
	Size of irrep 2 of tIjAb amplitudes:       0.001 (MW) /      0.006 (MB)
	Size of irrep 3 of tIjAb amplitudes:       0.002 (MW) /      0.015 (MB)
	Total:                                     0.006 (MW) /      0.045 (MB)

	Nuclear Rep. energy          =     12.79512566674474
	SCF energy                   =   -398.36297324318241
	One-electron energy          =    -24.63025128874505
	Two-electron (AA) energy     =      2.27783898527861
	Two-electron (BB) energy     =      1.07231874919872
	Two-electron (AB) energy     =      5.49634252884274
	Two-electron energy          =      8.84650026332007
	Reference energy             =   -398.36297324318190

*** tstop() called on cqc05 at Thu Aug 20 19:55:43 2020
Module time:
	user time   =       0.15 seconds =       0.00 minutes
	system time =       0.09 seconds =       0.00 minutes
	total time  =          0 seconds =       0.00 minutes
Total time:
	user time   =       0.86 seconds =       0.01 minutes
	system time =       0.09 seconds =       0.00 minutes
	total time  =          0 seconds =       0.00 minutes

*** tstart() called on cqc05
*** at Thu Aug 20 19:55:43 2020

            **************************
            *                        *
            *        CCENERGY        *
            *                        *
            **************************

    Nuclear Rep. energy (wfn)     =   12.795125666744736
    SCF energy          (wfn)     = -398.362973243182410
    Reference energy    (file100) = -398.362973243181898

    Input parameters:
    -----------------
    Wave function   =     CCSD
    Reference wfn   =     UHF
    Brueckner       =     No
    Memory (Mbytes) =     250000.0
    Maxiter         =     50
    R_Convergence   =     1.0e-07
    E_Convergence   =     1.0e-06
    Restart         =     Yes
    DIIS            =     Yes
    AO Basis        =     NONE
    ABCD            =     NEW
    Cache Level     =     2
    Cache Type      =     LRU
    Print Level     =     1
    Num. of threads =     4
    # Amps to Print =     10
    Print MP2 Amps? =     No
    Analyze T2 Amps =     No
    Print Pair Ener =     No
    Local CC        =     No
    SCS-MP2         =     False
    SCSN-MP2        =     False
    SCS-CCSD        =     False

MP2 correlation energy -0.1207582660059183
                Solving CC Amplitude Equations
                ------------------------------
  Iter             Energy              RMS        T1Diag      D1Diag    New D1Diag    D2Diag
  ----     ---------------------    ---------   ----------  ----------  ----------   --------
     0        -0.120758266005919    0.000e+00    0.000000    0.000000    0.000000    0.000000
     1        -0.140236077193563    5.067e-02    0.008862    0.000000    0.000000    0.000000
     2        -0.147151842688758    1.915e-02    0.014498    0.000000    0.000000    0.000000
     3        -0.147573572117999    4.966e-03    0.016323    0.000000    0.000000    0.000000
     4        -0.147595531876751    1.333e-03    0.016635    0.000000    0.000000    0.000000
     5        -0.147590812339959    5.090e-04    0.016722    0.000000    0.000000    0.000000
     6        -0.147591605382246    1.520e-04    0.016719    0.000000    0.000000    0.000000
     7        -0.147593485075315    4.749e-05    0.016714    0.000000    0.000000    0.000000
     8        -0.147593484550971    1.838e-05    0.016711    0.000000    0.000000    0.000000
     9        -0.147593470447849    6.402e-06    0.016710    0.000000    0.000000    0.000000
    10        -0.147593482013601    2.117e-06    0.016710    0.000000    0.000000    0.000000
    11        -0.147593484089396    5.753e-07    0.016710    0.000000    0.000000    0.000000
    12        -0.147593473499681    1.867e-07    0.016710    0.000000    0.000000    0.000000
    13        -0.147593469781147    5.899e-08    0.016710    0.000000    0.000000    0.000000
    13        -0.147593469781147    5.899e-08    0.016710    0.000000    0.000000    0.000000

    Iterations converged.


    CCSD corr. energy   =   -0.147593469781147
    PPL corr. energy    =    0.037701184648826
    OS PPL corr. energy =    0.032671654197652
    SS PPL corr. energy =    0.005029530451173
    Largest TIA Amplitudes:
              2  23         0.0113918242
              1   5        -0.0103554174
              1  11         0.0084859747
              1   2         0.0080684811
              3  37        -0.0074300245
              3  29        -0.0063147750
              1   3         0.0062557601
              3  32        -0.0056392187
              1   1         0.0054955672
              3  36         0.0053344159

    Largest Tia Amplitudes:
              1   4        -0.0148647247
              0   2         0.0125367045
              2  30        -0.0122421843
              0   4        -0.0090769744
              0   5         0.0080296141
              1   0         0.0076488324
              1   2         0.0073963247
              0   0         0.0069259831
              1   6         0.0061398061
              0  11        -0.0061389371

    Largest TIJAB Amplitudes:
      3   1  29   4         0.0303794303
      3   2  17   2        -0.0246410647
      2   1  23   4         0.0235452959
      2   1  29  17         0.0231127394
      2   1  23   2         0.0214830159
      3   2  29  23        -0.0206066745
      3   2  17   1        -0.0155523357
      3   1  29   9         0.0135136712
      2   1  23   5        -0.0133352475
      2   1  25   9        -0.0132289355

    Largest Tijab Amplitudes:
      2   1  30   4         0.0212960116
      2   1  30   3        -0.0186468105
      1   0  24  22        -0.0152207069
      2   1  30   9         0.0127725227
      2   0  22  17         0.0127679573
      2   1  24  17         0.0110868384
      2   1  30   6        -0.0110650568
      2   1  30  10        -0.0098034912
      2   1  30   2         0.0096402501
      1   0  27  22        -0.0092157664

    Largest TIjAb Amplitudes:
      1   1  29  30        -0.0720851379
      3   2  29  30        -0.0601437447
      2   0   2  22        -0.0431448831
      2   1  17  30        -0.0343054546
      1   1   4   4        -0.0334921885
      1   0  23  22        -0.0334847232
      1   2  29   2        -0.0328422902
      3   1   2  30         0.0322477546
      3   0  17  22        -0.0317698248
      1   1  23  24        -0.0315155607

    SCF energy       (wfn)                    = -398.362973243182410
    Reference energy (file100)                = -398.362973243181898

    Opposite-spin MP2 correlation energy      =   -0.096879444037511
    Same-spin MP2 correlation energy          =   -0.023878821968390
    MP2 correlation energy                    =   -0.120758266005918
      * MP2 total energy                      = -398.483731509187805

    Opposite-spin CCSD correlation energy     =   -0.122535068782692
    Same-spin CCSD correlation energy         =   -0.025058401063875
    CCSD correlation energy                   =   -0.147593469781147
      * CCSD total energy                     = -398.510566712963055


*** tstop() called on cqc05 at Thu Aug 20 19:55:44 2020
Module time:
	user time   =       0.25 seconds =       0.00 minutes
	system time =       0.24 seconds =       0.00 minutes
	total time  =          1 seconds =       0.02 minutes
Total time:
	user time   =       1.11 seconds =       0.02 minutes
	system time =       0.33 seconds =       0.01 minutes
	total time  =          1 seconds =       0.02 minutes

*** Psi4 exiting successfully. Buy a developer a beer!
