
    -----------------------------------------------------------------------
          Psi4: An Open-Source Ab Initio Electronic Structure Package
                               Psi4 1.2a1.dev939 

                         Git: Rev {HEAD} fa1ec19 dirty


    R. M. Parrish, L. A. Burns, D. G. A. Smith, A. C. Simmonett,
    A. E. DePrince III, E. G. Hohenstein, U. Bozkaya, A. Yu. Sokolov,
    R. Di Remigio, R. M. Richard, J. F. Gonthier, A. M. James,
    H. R. McAlexander, A. Kumar, M. Saitow, X. Wang, B. P. Pritchard,
    P. Verma, H. F. Schaefer III, K. Patkowski, R. A. King, E. F. Valeev,
    F. A. Evangelista, J. M. Turney, T. D. Crawford, and C. D. Sherrill,
    J. Chem. Theory Comput. 13(7) pp 3185--3197 (2017).
    (doi: 10.1021/acs.jctc.7b00174)

    -----------------------------------------------------------------------


    Psi4 started on: Tuesday, 03 November 2020 03:23PM

    Process ID: 390763
    PSIDATADIR: /home/fs71337/airmler/src/psi4_uhf/build/stage/usr/local/psi4/share/psi4
    Memory:     500.0 MiB
    Threads:    48
    
  ==> Input File <==

--------------------------------------------------------------------------
# Any line starting with the # character is a comment line
memory 250000 mb
molecule molecule{
1 2
S          0.0000000000        0.0000000000       -0.0550235194
H          0.0000000000        0.9811489408        0.8750788892
H          0.0000000000       -0.9811489408        0.8750788892
}

set {
  reference uhf
  basis aug-cc-pv(6+d)z
  scf_type OUT_OF_CORE
  freeze_core true
}

energy('ccsd')
--------------------------------------------------------------------------

  Memory set to 232.831 GiB by Python driver.

*** tstart() called on n411-012.vsc4.prov
*** at Tue Nov  3 15:23:26 2020

   => Loading Basis Set <=

    Name: AUG-CC-PV(6+D)Z
    Role: ORBITAL
    Keyword: BASIS
    atoms 1   entry S          line  1164 file /home/fs71337/airmler/src/psi4_uhf/build/stage/usr/local/psi4/share/psi4/basis/aug-cc-pv_6pd_z.gbs 
    atoms 2-3 entry H          line    51 file /home/fs71337/airmler/src/psi4_uhf/build/stage/usr/local/psi4/share/psi4/basis/aug-cc-pv_6pd_z.gbs 


         ---------------------------------------------------------
                                   SCF
            by Justin Turney, Rob Parrish, Andy Simmonett
                             and Daniel Smith
                              UHF Reference
                       48 Threads, 238418 MiB Core
         ---------------------------------------------------------

  ==> Geometry <==

    Molecular point group: c2v
    Full point group: C2v

    Geometry (in Angstrom), charge = 1, multiplicity = 2:

       Center              X                  Y                   Z               Mass       
    ------------   -----------------  -----------------  -----------------  -----------------
           S         -0.000000000000     0.000000000000    -0.055159949561    31.972070999000
           H         -0.000000000000     0.981148940800     0.874942459039     1.007825032070
           H          0.000000000000    -0.981148940800     0.874942459039     1.007825032070

  Running in c2v symmetry.

  Rotational constants: A =     10.27711  B =      8.68783  C =      4.70794 [cm^-1]
  Rotational constants: A = 308100.07064  B = 260454.68908  C = 141140.50887 [MHz]
  Nuclear repulsion =   12.795125666744736

  Charge       = 1
  Multiplicity = 2
  Electrons    = 17
  Nalpha       = 9
  Nbeta        = 8

  ==> Algorithm <==

  SCF Algorithm Type is OUT_OF_CORE.
  DIIS enabled.
  MOM disabled.
  Fractional occupation disabled.
  Guess Type is GWH.
  Energy threshold   = 1.00e-08
  Density threshold  = 1.00e-08
  Integral threshold = 0.00e+00

  ==> Primary Basis <==

  Basis Set: AUG-CC-PV(6+D)Z
    Blend: AUG-CC-PV(6+D)Z
    Number of shells: 92
    Number of basis function: 452
    Number of Cartesian functions: 668
    Spherical Harmonics?: true
    Max angular momentum: 6

  ==> Pre-Iterations <==

   -------------------------------------------------------
    Irrep   Nso     Nmo     Nalpha   Nbeta   Ndocc  Nsocc
   -------------------------------------------------------
     A1       147     147       0       0       0       0
     A2        82      82       0       0       0       0
     B1        98      98       0       0       0       0
     B2       125     125       0       0       0       0
   -------------------------------------------------------
    Total     452     452       9       8       8       1
   -------------------------------------------------------

  ==> Integral Setup <==

  ==> DiskJK: Disk-Based J/K Matrices <==

    J tasked:                  Yes
    K tasked:                  Yes
    wK tasked:                  No
    Memory (MB):            178813
    Schwarz Cutoff:          1E-12

  Minimum eigenvalue in the overlap matrix is 5.7024476669E-06.
  Using Symmetric Orthogonalization.

  SCF Guess: Generalized Wolfsberg-Helmholtz.

  ==> Iterations <==

                        Total Energy        Delta E     RMS |[F,P]|

    Occupation by irrep:
             A1    A2    B1    B2 
    DOCC [     5,    0,    1,    2 ]
    SOCC [     0,    0,    1,    0 ]

   @UHF iter   1:  -386.67302704283122   -3.86673e+02   1.98296e-01 
   @UHF iter   2:  -398.22138275556472   -1.15484e+01   1.79072e-02 DIIS
   @UHF iter   3:  -398.37060527015149   -1.49223e-01   4.37353e-03 DIIS
   @UHF iter   4:  -398.38032740684037   -9.72214e-03   6.09552e-04 DIIS
   @UHF iter   5:  -398.38180505118561   -1.47764e-03   1.63542e-04 DIIS
   @UHF iter   6:  -398.38193688305751   -1.31832e-04   4.48758e-05 DIIS
   @UHF iter   7:  -398.38194646416065   -9.58110e-06   1.48567e-05 DIIS
   @UHF iter   8:  -398.38194794336448   -1.47920e-06   4.80294e-06 DIIS
   @UHF iter   9:  -398.38194810319499   -1.59831e-07   1.24484e-06 DIIS
   @UHF iter  10:  -398.38194811284933   -9.65434e-09   2.92398e-07 DIIS
   @UHF iter  11:  -398.38194811339918   -5.49846e-10   1.09320e-07 DIIS
   @UHF iter  12:  -398.38194811348865   -8.94715e-11   4.35445e-08 DIIS
   @UHF iter  13:  -398.38194811351127   -2.26237e-11   1.98348e-08 DIIS
   @UHF iter  14:  -398.38194811351400   -2.72848e-12   4.80486e-09 DIIS

  ==> Post-Iterations <==

   @Spin Contamination Metric:   1.664228621E-02
   @S^2 Expected:                7.500000000E-01
   @S^2 Observed:                7.666422862E-01
   @S   Expected:                5.000000000E-01
   @S   Observed:                5.000000000E-01

    Orbital Energies (a.u.)
    -----------------------

    Alpha Occupied:                                                       

       1A1   -92.365127     2A1    -9.362742     1B1    -7.059974  
       1B2    -7.039937     3A1    -7.038515     4A1    -1.363914  
       2B2    -0.920792     5A1    -0.842607     2B1    -0.807214  

    Alpha Virtual:                                                        

       6A1    -0.143761     3B2    -0.132749     4B2    -0.087503  
       7A1    -0.082331     3B1    -0.080841     8A1    -0.075393  
       9A1    -0.042046     1A2    -0.040479    10A1    -0.038767  
       4B1    -0.036023     5B2    -0.031559     6B2     0.016468  
      11A1     0.035275     5B1     0.051891    12A1     0.055152  
       7B2     0.056616     2A2     0.062533    13A1     0.065139  
       8B2     0.076026     9B2     0.093420    14A1     0.096842  
       6B1     0.098463    15A1     0.119343    16A1     0.136506  
       3A2     0.138349     7B1     0.140953     8B1     0.198015  
      10B2     0.225547    17A1     0.264752    18A1     0.270377  
      11B2     0.274393    12B2     0.286023    19A1     0.301975  
       9B1     0.302639     4A2     0.303181    13B2     0.312951  
       5A2     0.314041    10B1     0.323175    20A1     0.323571  
       6A2     0.337894    14B2     0.345322    11B1     0.354912  
      21A1     0.361140    22A1     0.376451    15B2     0.388017  
      23A1     0.394740    16B2     0.420618    24A1     0.546680  
      12B1     0.585628    17B2     0.597508    25A1     0.633410  
       7A2     0.637642    13B1     0.652328    18B2     0.686752  
      26A1     0.687565    27A1     0.722907    14B1     0.731085  
       8A2     0.732433    28A1     0.746189    15B1     0.757644  
      19B2     0.765627    29A1     0.766297    16B1     0.771392  
       9A2     0.773107    30A1     0.782446    10A2     0.785259  
      20B2     0.789178    21B2     0.822497    31A1     0.831616  
      17B1     0.856185    22B2     0.863613    18B1     0.901480  
      11A2     0.918065    32A1     0.920485    23B2     0.922876  
      12A2     0.939624    19B1     0.956943    24B2     0.959717  
      33A1     0.980006    34A1     0.996627    35A1     1.013878  
      25B2     1.027955    20B1     1.032675    26B2     1.052869  
      36A1     1.076262    13A2     1.150641    27B2     1.164038  
      37A1     1.232883    21B1     1.235169    28B2     1.253507  
      38A1     1.255392    14A2     1.268314    29B2     1.363588  
      39A1     1.475032    22B1     1.611726    30B2     1.615133  
      40A1     1.618132    15A2     1.631081    23B1     1.665161  
      41A1     1.678224    16A2     1.690411    24B1     1.717194  
      42A1     1.730705    31B2     1.738185    17A2     1.756262  
      43A1     1.769409    32B2     1.776373    25B1     1.855101  
      44A1     1.862402    33B2     1.865844    45A1     1.877454  
      18A2     1.884404    26B1     1.904654    34B2     1.906019  
      19A2     1.915533    46A1     1.937185    27B1     1.945886  
      47A1     1.972851    35B2     1.985603    28B1     1.996953  
      48A1     1.998714    36B2     2.029155    49A1     2.051408  
      20A2     2.057428    29B1     2.068851    30B1     2.112124  
      37B2     2.116587    50A1     2.119443    38B2     2.165046  
      31B1     2.170896    21A2     2.175462    51A1     2.233445  
      39B2     2.280342    52A1     2.280876    32B1     2.295235  
      22A2     2.306888    40B2     2.310672    33B1     2.343495  
      53A1     2.350874    41B2     2.372776    54A1     2.417339  
      42B2     2.429742    34B1     2.445133    23A2     2.453537  
      43B2     2.464396    24A2     2.468684    55A1     2.498372  
      44B2     2.543685    35B1     2.544449    56A1     2.547351  
      25A2     2.557779    57A1     2.563643    45B2     2.611817  
      36B1     2.619030    26A2     2.698866    46B2     2.770717  
      58A1     2.816072    59A1     2.969722    47B2     3.027728  
      27A2     3.160681    60A1     3.175367    48B2     3.213570  
      37B1     3.230984    61A1     3.376238    28A2     3.434551  
      38B1     3.511184    62A1     3.574745    49B2     3.606201  
      50B2     3.636481    39B1     3.682418    29A2     3.747715  
      63A1     3.773129    40B1     3.798485    51B2     3.811555  
      30A2     3.812860    64A1     3.891556    52B2     3.922154  
      65A1     3.974000    66A1     3.994849    31A2     4.002756  
      41B1     4.003503    42B1     4.049895    67A1     4.070500  
      32A2     4.081450    53B2     4.090359    43B1     4.131641  
      68A1     4.142534    54B2     4.182742    69A1     4.183844  
      44B1     4.207499    55B2     4.215656    70A1     4.218613  
      33A2     4.253699    71A1     4.258480    72A1     4.298388  
      34A2     4.304756    56B2     4.311237    45B1     4.314640  
      46B1     4.377059    73A1     4.406520    35A2     4.433957  
      57B2     4.440311    47B1     4.445520    48B1     4.483977  
      36A2     4.489299    74A1     4.493711    58B2     4.499769  
      75A1     4.515116    59B2     4.542875    60B2     4.554989  
      49B1     4.562415    76A1     4.625933    37A2     4.734343  
      61B2     4.746023    50B1     4.751035    38A2     4.771695  
      39A2     4.782385    77A1     4.803117    62B2     4.833389  
      78A1     4.855659    79A1     4.889862    63B2     4.919963  
      64B2     4.950065    80A1     4.963162    51B1     4.998505  
      52B1     5.033069    53B1     5.103906    81A1     5.105385  
      65B2     5.112270    40A2     5.136925    66B2     5.148607  
      54B1     5.203342    41A2     5.207195    82A1     5.230922  
      83A1     5.269967    55B1     5.297349    42A2     5.303640  
      56B1     5.394494    84A1     5.399187    67B2     5.475599  
      68B2     5.488156    69B2     5.519475    43A2     5.654982  
      70B2     5.665657    85A1     5.734965    86A1     5.805306  
      44A2     5.875427    87A1     5.890349    71B2     5.967519  
      45A2     5.972708    57B1     6.012404    88A1     6.106673  
      46A2     6.131329    72B2     6.147332    58B1     6.180967  
      73B2     6.289120    89A1     6.554231    59B1     6.623191  
      74B2     6.779847    90A1     6.795751    47A2     6.854032  
      91A1     6.956526    75B2     7.029558    48A2     7.234250  
      60B1     7.325569    76B2     7.356789    61B1     7.375793  
      92A1     7.404992    77B2     7.726487    49A2     7.732061  
      93A1     7.761309    62B1     7.890753    50A2     7.915985  
      63B1     7.980405    78B2     7.985054    79B2     8.035353  
      94A1     8.050090    95A1     8.054493    51A2     8.063935  
      64B1     8.201881    80B2     8.241261    96A1     8.250763  
      97A1     8.365683    81B2     8.447219    98A1     8.469217  
      52A2     8.530645    65B1     8.542111    82B2     8.554541  
      99A1     8.649585   100A1     8.863157    53A2     8.865483  
      66B1     8.884984   101A1     9.036089    67B1     9.077008  
      54A2     9.091534   102A1     9.092930    68B1     9.114866  
      83B2     9.115248    84B2     9.134161   103A1     9.139060  
      85B2     9.222329   104A1     9.222640    55A2     9.257959  
      69B1     9.266248    70B1     9.297985    56A2     9.354686  
     105A1     9.383781    86B2     9.413903   106A1     9.439352  
      57A2     9.457927    87B2     9.520950    71B1     9.540518  
      88B2     9.650457    72B1     9.683463    58A2     9.722453  
     107A1     9.762465   108A1     9.895109    59A2     9.976524  
      73B1     9.978561    89B2    10.039327    74B1    10.144080  
     109A1    10.156304    90B2    10.159188    91B2    10.215464  
     110A1    10.271242   111A1    10.409944    92B2    10.444558  
      60A2    10.572245    75B1    10.686222   112A1    10.732053  
      93B2    10.736492    61A2    10.760860    76B1    10.809263  
     113A1    10.926192    94B2    10.937093    95B2    11.015876  
     114A1    11.026525    62A2    11.104865    96B2    11.163452  
      77B1    11.180214    78B1    11.298054    63A2    11.301586  
     115A1    11.374982    79B1    11.414167    64A2    11.500012  
      97B2    11.512650   116A1    11.538510   117A1    11.762084  
      98B2    12.504376   118A1    12.616842    80B1    12.628802  
      65A2    12.777278    99B2    12.885781   119A1    13.207768  
      81B1    13.410932   100B2    13.512702    66A2    13.625388  
     120A1    13.883828   101B2    13.890348   121A1    14.713582  
     102B2    16.206280   122A1    16.316053    82B1    17.186175  
     123A1    17.198251   103B2    17.232833    67A2    17.247964  
      83B1    17.305479    68A2    17.375588   124A1    17.387544  
     104B2    17.405595    69A2    17.518144   105B2    17.546230  
      84B1    17.568766   125A1    17.650247   126A1    17.911676  
      85B1    17.988609    70A2    18.205201   106B2    18.270058  
     107B2    18.736288    86B1    18.784516    71A2    18.785563  
     127A1    18.821114   108B2    19.023612   128A1    19.052256  
      87B1    20.048577    72A2    20.059288   129A1    20.076217  
     109B2    20.095413    73A2    20.352514   110B2    20.564191  
     130A1    20.659363    88B1    20.754061    89B1    21.169369  
     111B2    21.188983    90B1    21.193535    74A2    21.237639  
     131A1    21.302919    75A2    21.303172   112B2    21.323929  
     132A1    21.392634   113B2    21.634426   133A1    21.659251  
     134A1    22.500593    91B1    22.883038    76A2    22.903836  
     114B2    22.960735   115B2    23.021766   135A1    23.157153  
     136A1    23.787677    77A2    23.859917    92B1    23.878392  
     116B2    23.987783   137A1    24.197911    93B1    24.225290  
     138A1    24.241757   117B2    24.266114    78A2    24.269827  
      94B1    24.312329    79A2    24.355587   118B2    24.478265  
     119B2    24.530079   139A1    24.579951    95B1    24.905652  
      80A2    24.959583   140A1    25.194830   120B2    25.207558  
     121B2    25.292361   141A1    25.302909    96B1    30.460465  
     142A1    30.887831    81A2    30.925669   143A1    31.134981  
      97B1    31.284490   122B2    32.166599   144A1    34.376164  
      98B1    34.439203    82A2    34.454599   145A1    34.715788  
     123B2    34.761231   124B2    35.737129   146A1    36.981469  
     125B2    37.051084   147A1   248.870508  

    Beta Occupied:                                                        

       1A1   -92.353811     2A1    -9.351184     3A1    -7.033015  
       1B2    -7.032697     1B1    -7.013110     4A1    -1.270666  
       2B2    -0.910580     5A1    -0.819887  

    Beta Virtual:                                                         

       2B1    -0.298604     6A1    -0.136083     3B2    -0.128849  
       4B2    -0.087148     7A1    -0.079667     3B1    -0.070300  
       8A1    -0.056818     9A1    -0.041183     5B2    -0.030635  
      10A1    -0.030519     1A2    -0.025275     4B1    -0.021849  
       6B2     0.016491    11A1     0.042857     7B2     0.056541  
      12A1     0.057032     5B1     0.061678     2A2     0.064665  
      13A1     0.073843     8B2     0.077300     9B2     0.094733  
      14A1     0.098566     6B1     0.117018    15A1     0.132181  
      16A1     0.140715     7B1     0.170071     3A2     0.170905  
       8B1     0.203199    10B2     0.226904    17A1     0.270763  
      11B2     0.276089    18A1     0.278560    12B2     0.285999  
       4A2     0.308832     9B1     0.309096    19A1     0.311400  
      13B2     0.313157     5A2     0.315380    10B1     0.327471  
      20A1     0.328308     6A2     0.347427    14B2     0.347877  
      21A1     0.363329    11B1     0.364117    22A1     0.381463  
      15B2     0.389359    23A1     0.404243    16B2     0.421268  
      24A1     0.548390    17B2     0.600281    12B1     0.631119  
      25A1     0.636502     7A2     0.651118    13B1     0.668059  
      18B2     0.686908    26A1     0.696683    27A1     0.734648  
      14B1     0.738880     8A2     0.740581    28A1     0.749320  
      15B1     0.763178    19B2     0.768196    29A1     0.773597  
       9A2     0.781213    16B1     0.788416    20B2     0.790878  
      30A1     0.793084    10A2     0.800654    21B2     0.831882  
      31A1     0.838068    17B1     0.865097    22B2     0.867962  
      18B1     0.905343    11A2     0.918399    32A1     0.920893  
      23B2     0.923579    12A2     0.942506    19B1     0.961739  
      24B2     0.961757    33A1     0.993588    34A1     0.999877  
      35A1     1.021255    25B2     1.028139    20B1     1.038783  
      26B2     1.054458    36A1     1.078058    13A2     1.151531  
      27B2     1.164451    37A1     1.238937    21B1     1.249371  
      38A1     1.257426    28B2     1.257787    14A2     1.277413  
      29B2     1.367871    39A1     1.479929    30B2     1.616115  
      22B1     1.618369    40A1     1.623583    15A2     1.637168  
      23B1     1.677937    41A1     1.682441    16A2     1.698881  
      24B1     1.734776    42A1     1.736840    31B2     1.744924  
      17A2     1.770465    43A1     1.774919    32B2     1.777518  
      25B1     1.862210    44A1     1.869194    33B2     1.870302  
      45A1     1.886143    18A2     1.890220    34B2     1.909513  
      26B1     1.911464    19A2     1.919875    46A1     1.949156  
      27B1     1.959241    47A1     1.979662    35B2     1.987402  
      28B1     2.000960    48A1     2.002930    36B2     2.033188  
      49A1     2.058644    20A2     2.065180    29B1     2.083730  
      50A1     2.122963    37B2     2.123235    30B1     2.144437  
      38B2     2.168422    31B1     2.176007    21A2     2.176459  
      51A1     2.234887    39B2     2.281517    52A1     2.291238  
      32B1     2.304263    22A2     2.307209    40B2     2.313104  
      33B1     2.347013    53A1     2.363963    41B2     2.383051  
      54A1     2.420105    42B2     2.435531    34B1     2.461127  
      23A2     2.464282    43B2     2.465276    24A2     2.473706  
      55A1     2.502115    44B2     2.549115    35B1     2.550876  
      56A1     2.551846    25A2     2.562197    57A1     2.564074  
      45B2     2.612926    36B1     2.623928    26A2     2.702170  
      46B2     2.773651    58A1     2.816325    59A1     2.972033  
      47B2     3.028047    27A2     3.171986    60A1     3.178279  
      48B2     3.215133    37B1     3.250337    61A1     3.380910  
      28A2     3.438786    38B1     3.515268    62A1     3.584788  
      49B2     3.611976    50B2     3.638179    39B1     3.690034  
      29A2     3.752471    63A1     3.779517    40B1     3.808903  
      51B2     3.813504    30A2     3.823006    64A1     3.902207  
      52B2     3.922887    65A1     3.980810    66A1     4.002806  
      31A2     4.013766    41B1     4.016561    42B1     4.056867  
      67A1     4.079091    32A2     4.090229    53B2     4.099146  
      43B1     4.143222    68A1     4.149739    69A1     4.191852  
      54B2     4.192961    44B1     4.211738    55B2     4.223273  
      70A1     4.224029    33A2     4.262310    71A1     4.263869  
      72A1     4.305584    34A2     4.308078    56B2     4.311946  
      45B1     4.324894    46B1     4.383679    73A1     4.410798  
      35A2     4.439945    57B2     4.446465    47B1     4.454198  
      48B1     4.492568    36A2     4.495058    74A1     4.498773  
      58B2     4.505094    75A1     4.523720    59B2     4.549592  
      60B2     4.559326    49B1     4.567888    76A1     4.632825  
      37A2     4.740787    61B2     4.749879    50B1     4.770093  
      38A2     4.775763    39A2     4.792018    77A1     4.804931  
      62B2     4.837891    78A1     4.862516    79A1     4.897503  
      63B2     4.921607    64B2     4.956603    80A1     4.969095  
      51B1     5.003314    52B1     5.036072    81A1     5.107469  
      53B1     5.108682    65B2     5.113699    40A2     5.139658  
      66B2     5.150682    54B1     5.207555    41A2     5.209557  
      82A1     5.235203    83A1     5.272628    55B1     5.304537  
      42A2     5.304628    84A1     5.402690    56B1     5.406260  
      67B2     5.476361    68B2     5.488958    69B2     5.520814  
      43A2     5.657034    70B2     5.670972    85A1     5.736193  
      86A1     5.807064    44A2     5.881199    87A1     5.897485  
      71B2     5.968143    45A2     5.980068    57B1     6.019414  
      88A1     6.113014    46A2     6.139390    72B2     6.148954  
      58B1     6.189477    73B2     6.294607    89A1     6.555968  
      59B1     6.635055    74B2     6.781274    90A1     6.799453  
      47A2     6.861754    91A1     6.959626    75B2     7.030325  
      48A2     7.235741    60B1     7.328696    76B2     7.357409  
      61B1     7.394285    92A1     7.405857    77B2     7.729174  
      49A2     7.734750    93A1     7.765277    62B1     7.897333  
      50A2     7.923223    63B1     7.987804    78B2     7.989004  
      79B2     8.038572    94A1     8.053839    95A1     8.059604  
      51A2     8.069243    64B1     8.210987    80B2     8.244436  
      96A1     8.255157    97A1     8.375392    81B2     8.455792  
      98A1     8.480532    52A2     8.540204    65B1     8.551502  
      82B2     8.558005    99A1     8.657082   100A1     8.869269  
      53A2     8.875355    66B1     8.895073   101A1     9.043791  
      67B1     9.090979   102A1     9.100092    54A2     9.103676  
      68B1     9.128316    83B2     9.129424    84B2     9.143796  
     103A1     9.151596    85B2     9.226346   104A1     9.230269  
      55A2     9.266608    69B1     9.276435    70B1     9.306404  
      56A2     9.361337   105A1     9.389701    86B2     9.415900  
     106A1     9.442147    57A2     9.468818    87B2     9.525509  
      71B1     9.543638    88B2     9.652504    72B1     9.694380  
      58A2     9.724464   107A1     9.764112   108A1     9.897041  
      59A2     9.976861    73B1     9.980177    89B2    10.040123  
      74B1    10.147940   109A1    10.164803    90B2    10.166522  
      91B2    10.216827   110A1    10.274565   111A1    10.416111  
      92B2    10.446797    60A2    10.572772    75B1    10.688828  
      93B2    10.736573   112A1    10.737726    61A2    10.768589  
      76B1    10.816682   113A1    10.927581    94B2    10.939776  
      95B2    11.016765   114A1    11.028031    62A2    11.111540  
      96B2    11.165423    77B1    11.185539    78B1    11.303621  
      63A2    11.306645   115A1    11.380062    79B1    11.419756  
      64A2    11.504179    97B2    11.515625   116A1    11.542918  
     117A1    11.762526    98B2    12.505410   118A1    12.617455  
      80B1    12.631611    65A2    12.778718    99B2    12.885857  
     119A1    13.208004    81B1    13.413167   100B2    13.513596  
      66A2    13.628250   120A1    13.883666   101B2    13.889622  
     121A1    14.718942   102B2    16.206630   122A1    16.317463  
      82B1    17.185974   123A1    17.198038   103B2    17.232620  
      67A2    17.247749    83B1    17.305428    68A2    17.375594  
     124A1    17.387519   104B2    17.405567    69A2    17.518213  
     105B2    17.546428    84B1    17.569000   125A1    17.650449  
     126A1    17.912000    85B1    17.988901    70A2    18.205717  
     106B2    18.270479   107B2    18.736049    86B1    18.785474  
      71A2    18.786364   127A1    18.821972   108B2    19.023326  
     128A1    19.051989    87B1    20.048055    72A2    20.058764  
     129A1    20.075688   109B2    20.094879    73A2    20.352131  
     110B2    20.563826   130A1    20.658973    88B1    20.753757  
      89B1    21.169063   111B2    21.188496    90B1    21.193444  
      74A2    21.237273   131A1    21.302766    75A2    21.302871  
     112B2    21.323294   132A1    21.391965   113B2    21.633876  
     133A1    21.658687   134A1    22.499244    91B1    22.882099  
      76A2    22.902918   114B2    22.959794   115B2    23.020334  
     135A1    23.156321   136A1    23.786877    77A2    23.859104  
      92B1    23.877594   116B2    23.986950   137A1    24.196947  
      93B1    24.224586   138A1    24.241039   117B2    24.265047  
      78A2    24.269206    94B1    24.311770    79A2    24.354892  
     118B2    24.477543   119B2    24.529229   139A1    24.578989  
      95B1    24.905531    80A2    24.959355   140A1    25.194107  
     120B2    25.206843   121B2    25.291622   141A1    25.302458  
      96B1    30.480428   142A1    30.904367    81A2    30.940842  
     143A1    31.139751    97B1    31.304933   122B2    32.169659  
     144A1    34.379011    98B1    34.438485    82A2    34.453573  
     145A1    34.714567   123B2    34.760142   124B2    35.740570  
     146A1    36.980809   125B2    37.050542   147A1   248.875034  

    Final Occupation by Irrep:
             A1    A2    B1    B2 
    DOCC [     5,    0,    1,    2 ]
    SOCC [     0,    0,    1,    0 ]

  Energy converged.

  @UHF Final Energy:  -398.38194811351400

   => Energetics <=

    Nuclear Repulsion Energy =             12.7951256667447364
    One-Electron Energy =                -569.7683757090426298
    Two-Electron Energy =                 158.5913019287838779
    PCM Polarization Energy =               0.0000000000000000
    Total Energy =                       -398.3819481135139995

    Alert: EFP and PCM quantities not currently incorporated into SCF psivars.
  UHF NO Occupations:
  HONO-2 :    2 B2 1.9991789
  HONO-1 :    5 A1 1.9929584
  HONO-0 :    2 B1 1.0000000
  LUNO+0 :    6 A1 0.0070416
  LUNO+1 :    3 B2 0.0008211
  LUNO+2 :    7 A1 0.0004773
  LUNO+3 :    3 B1 0.0000056



Properties will be evaluated at   0.000000,   0.000000,   0.000000 Bohr

Properties computed using the SCF density matrix

  Nuclear Dipole Moment: (a.u.)
     X:     0.0000      Y:     0.0000      Z:     1.6390

  Electronic Dipole Moment: (a.u.)
     X:     0.0000      Y:     0.0000      Z:    -0.9882

  Dipole Moment: (a.u.)
     X:     0.0000      Y:     0.0000      Z:     0.6508     Total:     0.6508

  Dipole Moment: (Debye)
     X:     0.0000      Y:     0.0000      Z:     1.6541     Total:     1.6541


*** tstop() called on n411-012.vsc4.prov at Tue Nov  3 16:00:35 2020
Module time:
	user time   =    1639.93 seconds =      27.33 minutes
	system time =     212.81 seconds =       3.55 minutes
	total time  =       2229 seconds =      37.15 minutes
Total time:
	user time   =    1639.93 seconds =      27.33 minutes
	system time =     212.81 seconds =       3.55 minutes
	total time  =       2229 seconds =      37.15 minutes

*** tstart() called on n411-012.vsc4.prov
*** at Tue Nov  3 16:00:35 2020


	Wfn Parameters:
	--------------------
	Wavefunction         = CCSD
	Number of irreps     = 4
	Number of MOs        = 452
	Number of active MOs = 447
	AO-Basis             = NONE
	Semicanonical        = false
	Reference            = UHF
	Print Level          = 1

	IRREP	# MOs	# FZDC	# DOCC	# SOCC	# VIRT	# FZVR
	-----	-----	------	------	------	------	------
	 A1	   147	    3	    2	    0	    142	    0
	 A2	   82	    0	    0	    0	    82	    0
	 B1	   98	    1	    0	    1	    96	    0
	 B2	   125	    1	    1	    0	    123	    0
	Transforming integrals...
	IWL integrals will be deleted.
	(OO|OO)...
	Presorting SO-basis two-electron integrals.
	Sorting File: SO Ints (nn|nn) nbuckets = 1
	Transforming the one-electron integrals and constructing Fock matrices
	Starting AA/AB first half-transformation.
	Sorting AA/AB half-transformed integrals.
	Starting BB first half-transformation.
	Sorting BB half-transformed integrals.
	First half integral transformation complete.
	Starting AA second half-transformation.
	Starting AB second half-transformation.
	Starting BB second half-transformation.
	Two-electron integral transformation complete.
	(OO|OV)...
	Starting AA second half-transformation.
	Starting AB second half-transformation.
	Starting BB second half-transformation.
	Two-electron integral transformation complete.
	(OO|VV)...
	Starting AA second half-transformation.
	Starting AB second half-transformation.
	Starting BB second half-transformation.
	Two-electron integral transformation complete.
	(OV|OO)...
	Starting AA/AB first half-transformation.
	Sorting AA/AB half-transformed integrals.
	Starting BB first half-transformation.
	Sorting BB half-transformed integrals.
	First half integral transformation complete.
	Starting AA second half-transformation.
	Starting AB second half-transformation.
	Starting BB second half-transformation.
	Two-electron integral transformation complete.
	(OV|OV)...
	Starting AA second half-transformation.
	Starting AB second half-transformation.
	Starting BB second half-transformation.
	Two-electron integral transformation complete.
	(OV|VV)...
	Starting AA second half-transformation.
	Starting AB second half-transformation.
	Starting BB second half-transformation.
	Two-electron integral transformation complete.
	(VV|OO)...
	Starting AA/AB first half-transformation.
	Sorting AA/AB half-transformed integrals.
	Starting BB first half-transformation.
	Sorting BB half-transformed integrals.
	First half integral transformation complete.
	Starting AA second half-transformation.
	Starting AB second half-transformation.
	Starting BB second half-transformation.
	Two-electron integral transformation complete.
	(VV|OV)...
	Starting AA second half-transformation.
	Starting AB second half-transformation.
	Starting BB second half-transformation.
	Two-electron integral transformation complete.
	(VV|VV)...
	Starting AA second half-transformation.
	Starting AB second half-transformation.
	Starting BB second half-transformation.
	Two-electron integral transformation complete.
	Frozen core energy     =   -395.38240740036531

	Size of irrep 0 of <AB|CD> integrals:    644.906 (MW) /   5159.248 (MB)
	Size of irrep 1 of <AB|CD> integrals:    549.996 (MW) /   4399.970 (MB)
	Size of irrep 2 of <AB|CD> integrals:    562.544 (MW) /   4500.348 (MB)
	Size of irrep 3 of <AB|CD> integrals:    642.014 (MW) /   5136.114 (MB)
	Total:                                  2399.460 (MW) /  19195.681 (MB)

	Size of irrep 0 of <ab|cd> integrals:    649.791 (MW) /   5198.329 (MB)
	Size of irrep 1 of <ab|cd> integrals:    555.781 (MW) /   4446.245 (MB)
	Size of irrep 2 of <ab|cd> integrals:    569.300 (MW) /   4554.397 (MB)
	Size of irrep 3 of <ab|cd> integrals:    646.176 (MW) /   5169.411 (MB)
	Total:                                  2421.048 (MW) /  19368.382 (MB)

	Size of irrep 0 of <Ab|Cd> integrals:   2634.666 (MW) /  21077.330 (MB)
	Size of irrep 1 of <Ab|Cd> integrals:   2211.539 (MW) /  17692.310 (MB)
	Size of irrep 2 of <Ab|Cd> integrals:   2263.666 (MW) /  18109.329 (MB)
	Size of irrep 3 of <Ab|Cd> integrals:   2576.375 (MW) /  20610.997 (MB)
	Total:                                  9686.246 (MW) /  77489.965 (MB)

	Size of irrep 0 of <IA|BC> integrals:     25.770 (MW) /    206.162 (MB)
	Size of irrep 1 of <IA|BC> integrals:     17.964 (MW) /    143.714 (MB)
	Size of irrep 2 of <IA|BC> integrals:     19.733 (MW) /    157.867 (MB)
	Size of irrep 3 of <IA|BC> integrals:     23.818 (MW) /    190.542 (MB)
	Total:                                    87.286 (MW) /    698.284 (MB)

	Size of irrep 0 of <ia|bc> integrals:     20.930 (MW) /    167.443 (MB)
	Size of irrep 1 of <ia|bc> integrals:     12.306 (MW) /     98.449 (MB)
	Size of irrep 2 of <ia|bc> integrals:     13.171 (MW) /    105.366 (MB)
	Size of irrep 3 of <ia|bc> integrals:     19.726 (MW) /    157.807 (MB)
	Total:                                    66.133 (MW) /    529.065 (MB)

	Size of irrep 0 of <Ia|Bc> integrals:     25.870 (MW) /    206.959 (MB)
	Size of irrep 1 of <Ia|Bc> integrals:     18.058 (MW) /    144.467 (MB)
	Size of irrep 2 of <Ia|Bc> integrals:     19.888 (MW) /    159.101 (MB)
	Size of irrep 3 of <Ia|Bc> integrals:     23.856 (MW) /    190.850 (MB)
	Total:                                    87.672 (MW) /    701.376 (MB)

	Size of irrep 0 of <iA|bC> integrals:     20.891 (MW) /    167.127 (MB)
	Size of irrep 1 of <iA|bC> integrals:     12.227 (MW) /     97.816 (MB)
	Size of irrep 2 of <iA|bC> integrals:     13.036 (MW) /    104.291 (MB)
	Size of irrep 3 of <iA|bC> integrals:     19.694 (MW) /    157.553 (MB)
	Total:                                    65.848 (MW) /    526.787 (MB)

	Size of irrep 0 of tIjAb amplitudes:       0.257 (MW) /      2.053 (MB)
	Size of irrep 1 of tIjAb amplitudes:       0.047 (MW) /      0.376 (MB)
	Size of irrep 2 of tIjAb amplitudes:       0.095 (MW) /      0.761 (MB)
	Size of irrep 3 of tIjAb amplitudes:       0.203 (MW) /      1.624 (MB)
	Total:                                     0.602 (MW) /      4.815 (MB)

	Nuclear Rep. energy          =     12.79512566674474
	SCF energy                   =   -398.38194811351400
	One-electron energy          =    -24.65367354994837
	Two-electron (AA) energy     =      2.27969167786893
	Two-electron (BB) energy     =      1.07392380151371
	Two-electron (AB) energy     =      5.50539169067481
	Two-electron energy          =      8.85900717005745
	Reference energy             =   -398.38194811351150

*** tstop() called on n411-012.vsc4.prov at Tue Nov  3 16:44:32 2020
Module time:
	user time   =   11781.36 seconds =     196.36 minutes
	system time =     768.90 seconds =      12.81 minutes
	total time  =       2637 seconds =      43.95 minutes
Total time:
	user time   =   13421.30 seconds =     223.69 minutes
	system time =     981.71 seconds =      16.36 minutes
	total time  =       4866 seconds =      81.10 minutes

*** tstart() called on n411-012.vsc4.prov
*** at Tue Nov  3 16:44:32 2020

            **************************
            *                        *
            *        CCENERGY        *
            *                        *
            **************************

    Nuclear Rep. energy (wfn)     =   12.795125666744736
    SCF energy          (wfn)     = -398.381948113513999
    Reference energy    (file100) = -398.381948113511498

    Input parameters:
    -----------------
    Wave function   =     CCSD
    Reference wfn   =     UHF
    Brueckner       =     No
    Memory (Mbytes) =     250000.0
    Maxiter         =     50
    R_Convergence   =     1.0e-07
    E_Convergence   =     1.0e-06
    Restart         =     Yes
    DIIS            =     Yes
    AO Basis        =     NONE
    ABCD            =     NEW
    Cache Level     =     2
    Cache Type      =     LRU
    Print Level     =     1
    Num. of threads =     48
    # Amps to Print =     10
    Print MP2 Amps? =     No
    Analyze T2 Amps =     No
    Print Pair Ener =     No
    Local CC        =     No
    SCS-MP2         =     False
    SCSN-MP2        =     False
    SCS-CCSD        =     False

MP2 correlation energy -0.1694592623657277
                Solving CC Amplitude Equations
                ------------------------------
  Iter             Energy              RMS        T1Diag      D1Diag    New D1Diag    D2Diag
  ----     ---------------------    ---------   ----------  ----------  ----------   --------
     0        -0.169459262365749    0.000e+00    0.000000    0.000000    0.000000    0.000000
     1        -0.184218699607534    4.976e-02    0.010712    0.000000    0.000000    0.000000
     2        -0.191605528302351    1.879e-02    0.016110    0.000000    0.000000    0.000000
     3        -0.191849096033501    5.195e-03    0.018019    0.000000    0.000000    0.000000
     4        -0.191865511116308    1.746e-03    0.018632    0.000000    0.000000    0.000000
     5        -0.191866173099319    5.169e-04    0.018743    0.000000    0.000000    0.000000
     6        -0.191861389140136    1.696e-04    0.018762    0.000000    0.000000    0.000000
     7        -0.191862896646257    5.697e-05    0.018758    0.000000    0.000000    0.000000
     8        -0.191863927537599    1.700e-05    0.018756    0.000000    0.000000    0.000000
     9        -0.191863647286508    6.462e-06    0.018755    0.000000    0.000000    0.000000
    10        -0.191863715932385    2.517e-06    0.018755    0.000000    0.000000    0.000000
    11        -0.191863729660502    9.183e-07    0.018755    0.000000    0.000000    0.000000
    12        -0.191863758762132    3.290e-07    0.018755    0.000000    0.000000    0.000000
    13        -0.191863762846152    1.133e-07    0.018755    0.000000    0.000000    0.000000
    14        -0.191863761874887    3.804e-08    0.018755    0.000000    0.000000    0.000000
    14        -0.191863761874887    3.804e-08    0.018755    0.000000    0.000000    0.000000

    Iterations converged.


    CCSD corr. energy   =   -0.191863761874887
    PPL corr. energy    =    0.058175374670628
    OS PPL corr. energy =    0.051288935770967
    SS PPL corr. energy =    0.006886438899666
    Largest TIA Amplitudes:
              1   2         0.0108054883
              3 320        -0.0097303853
              2 225        -0.0092267896
              2 228         0.0083291992
              1   9        -0.0078896358
              1  11         0.0077704971
              1  20         0.0063516387
              1   1         0.0056151410
              1   7        -0.0048342928
              0   9         0.0042766458

    Largest Tia Amplitudes:
              2 321        -0.0168969200
              0   2         0.0124737626
              1  10         0.0101385079
              0   0        -0.0099494897
              0   7        -0.0099219455
              1   3        -0.0095232086
              1  13        -0.0076609501
              1   4        -0.0063628710
              0   9        -0.0059830248
              1   5         0.0059512186

    Largest TIJAB Amplitudes:
      3   1 320  10        -0.0233032706
      3   1 320   3         0.0190710355
      2   1 320 144         0.0182015491
      2   1 320 142         0.0162418809
      3   2 320 228        -0.0151969077
      3   2 144   2        -0.0148565303
      3   2 320 225         0.0137087092
      2   1 228   2         0.0135705597
      3   2 142   2        -0.0131346166
      3   2 144   1        -0.0129897424

    Largest Tijab Amplitudes:
      2   1 321  10        -0.0205289170
      2   1 321   3         0.0182234690
      1   0 229 224        -0.0120705910
      2   0 224 144         0.0111935323
      2   1 321   8        -0.0099318922
      2   1 321  15         0.0096046532
      2   1 321  19         0.0090960319
      1   0 226 224         0.0090583775
      2   1 321   1         0.0085367262
      2   1 321   2        -0.0083359221

    Largest TIjAb Amplitudes:
      1   1 320 321        -0.0702320602
      3   2 320 321        -0.0579426786
      2   0   2 224        -0.0330767297
      1   0 228 224        -0.0271344061
      3   0 144 224        -0.0267566842
      2   1 144 321        -0.0265574380
      2   0   1 224        -0.0254373952
      1   2 320   2         0.0242694816
      2   0   0 224         0.0238082016
      2   1 142 321        -0.0234965064

    SCF energy       (wfn)                    = -398.381948113513999
    Reference energy (file100)                = -398.381948113511498

    Opposite-spin MP2 correlation energy      =   -0.139663938274260
    Same-spin MP2 correlation energy          =   -0.029795324091193
    MP2 correlation energy                    =   -0.169459262365728
      * MP2 total energy                      = -398.551407375877204

    Opposite-spin CCSD correlation energy     =   -0.161022616559110
    Same-spin CCSD correlation energy         =   -0.030841145522547
    CCSD correlation energy                   =   -0.191863761874887
      * CCSD total energy                     = -398.573811875386411


*** tstop() called on n411-012.vsc4.prov at Tue Nov  3 17:37:12 2020
Module time:
	user time   =    9804.27 seconds =     163.40 minutes
	system time =    1315.39 seconds =      21.92 minutes
	total time  =       3160 seconds =      52.67 minutes
Total time:
	user time   =   23225.57 seconds =     387.09 minutes
	system time =    2297.10 seconds =      38.28 minutes
	total time  =       8026 seconds =     133.77 minutes

*** Psi4 exiting successfully. Buy a developer a beer!
