
    -----------------------------------------------------------------------
          Psi4: An Open-Source Ab Initio Electronic Structure Package
                               Psi4 1.2a1.dev939 

                         Git: Rev {HEAD} fa1ec19 


    R. M. Parrish, L. A. Burns, D. G. A. Smith, A. C. Simmonett,
    A. E. DePrince III, E. G. Hohenstein, U. Bozkaya, A. Yu. Sokolov,
    R. Di Remigio, R. M. Richard, J. F. Gonthier, A. M. James,
    H. R. McAlexander, A. Kumar, M. Saitow, X. Wang, B. P. Pritchard,
    P. Verma, H. F. Schaefer III, K. Patkowski, R. A. King, E. F. Valeev,
    F. A. Evangelista, J. M. Turney, T. D. Crawford, and C. D. Sherrill,
    J. Chem. Theory Comput. 13(7) pp 3185--3197 (2017).
    (doi: 10.1021/acs.jctc.7b00174)

    -----------------------------------------------------------------------


    Psi4 started on: Saturday, 27 April 2019 06:50PM

    Process ID:  18526
    PSIDATADIR: /home/grueneis/src/psi4/objdir/stage/usr/local/psi4/share/psi4
    Memory:     500.0 MiB
    Threads:    1
    
  ==> Input File <==

--------------------------------------------------------------------------
# Any line starting with the # character is a comment line

memory 32000 mb

molecule molecule {
0 1
C         -0.0131849130        0.0000000000       -0.7300158634
O          0.0640939097        0.0000000000        0.6915053898
H         -0.5186806976       -0.8893140541       -1.1100627930
H         -0.5186806976        0.8893140541       -1.1100627930
H          1.0094357309        0.0000000000       -1.0953577182
H         -0.8323439031        0.0000000000        1.0381148124
}

set {
  reference rhf
  basis aug-cc-pv(Q+d)z
  scf_type OUT_OF_CORE
  freeze_core true
}

energy('ccsd')
--------------------------------------------------------------------------

  Memory set to  29.802 GiB by Python driver.

*** tstart() called on cqc01
*** at Sat Apr 27 18:50:52 2019

   => Loading Basis Set <=

    Name: AUG-CC-PV(Q+D)Z
    Role: ORBITAL
    Keyword: BASIS
    atoms 1   entry C          line   319 file /home/grueneis/src/psi4/objdir/stage/usr/local/psi4/share/psi4/basis/aug-cc-pv_qpd_z.gbs 
    atoms 2   entry O          line   439 file /home/grueneis/src/psi4/objdir/stage/usr/local/psi4/share/psi4/basis/aug-cc-pv_qpd_z.gbs 
    atoms 3-6 entry H          line    56 file /home/grueneis/src/psi4/objdir/stage/usr/local/psi4/share/psi4/basis/aug-cc-pv_qpd_z.gbs 


         ---------------------------------------------------------
                                   SCF
            by Justin Turney, Rob Parrish, Andy Simmonett
                             and Daniel Smith
                              RHF Reference
                        1 Threads,  30517 MiB Core
         ---------------------------------------------------------

  ==> Geometry <==

    Molecular point group: cs
    Full point group: Cs

    Geometry (in Angstrom), charge = 0, multiplicity = 1:

       Center              X                  Y                   Z               Mass       
    ------------   -----------------  -----------------  -----------------  -----------------
           C          0.013183553268    -0.730177928595     0.000000000000    12.000000000000
           O         -0.064095269432     0.691343324605     0.000000000000    15.994914619560
           H          0.518679337868    -1.110224858195    -0.889314054100     1.007825032070
           H          0.518679337868    -1.110224858195     0.889314054100     1.007825032070
           H         -1.009437090632    -1.095519783395     0.000000000000     1.007825032070
           H          0.832342543368     1.037952747205     0.000000000000     1.007825032070

  Running in cs symmetry.

  Rotational constants: A =      4.29018  B =      0.82568  C =      0.79676 [cm^-1]
  Rotational constants: A = 128616.40474  B =  24753.17734  C =  23886.16673 [MHz]
  Nuclear repulsion =   40.295712580472404

  Charge       = 0
  Multiplicity = 1
  Electrons    = 18
  Nalpha       = 9
  Nbeta        = 9

  ==> Algorithm <==

  SCF Algorithm Type is OUT_OF_CORE.
  DIIS enabled.
  MOM disabled.
  Fractional occupation disabled.
  Guess Type is SAD.
  Energy threshold   = 1.00e-08
  Density threshold  = 1.00e-08
  Integral threshold = 0.00e+00

  ==> Primary Basis <==

  Basis Set: AUG-CC-PV(Q+D)Z
    Blend: AUG-CC-PV(Q+D)Z
    Number of shells: 96
    Number of basis function: 344
    Number of Cartesian functions: 430
    Spherical Harmonics?: true
    Max angular momentum: 4

  ==> Pre-Iterations <==

   -------------------------------------------------------
    Irrep   Nso     Nmo     Nalpha   Nbeta   Ndocc  Nsocc
   -------------------------------------------------------
     A'       206     206       0       0       0       0
     A"       138     138       0       0       0       0
   -------------------------------------------------------
    Total     344     344       9       9       9       0
   -------------------------------------------------------

  ==> Integral Setup <==

  ==> DiskJK: Disk-Based J/K Matrices <==

    J tasked:                  Yes
    K tasked:                  Yes
    wK tasked:                  No
    Memory (MB):             22888
    Schwarz Cutoff:          1E-12

  Minimum eigenvalue in the overlap matrix is 1.6087409716E-05.
  Using Symmetric Orthogonalization.

  SCF Guess: Superposition of Atomic Densities via on-the-fly atomic UHF.

  ==> Iterations <==

                        Total Energy        Delta E     RMS |[F,P]|

   @RHF iter   0:  -115.39324363225694   -1.15393e+02   1.03511e-02 
   @RHF iter   1:  -115.06314952908032    3.30094e-01   9.43740e-04 
   @RHF iter   2:  -115.09554079214020   -3.23913e-02   2.62734e-04 DIIS
   @RHF iter   3:  -115.09882381632933   -3.28302e-03   1.15419e-04 DIIS
   @RHF iter   4:  -115.09942649331627   -6.02677e-04   4.52406e-05 DIIS
   @RHF iter   5:  -115.09952167350284   -9.51802e-05   1.11737e-05 DIIS
   @RHF iter   6:  -115.09953119033132   -9.51683e-06   2.50819e-06 DIIS
   @RHF iter   7:  -115.09953156476131   -3.74430e-07   7.29864e-07 DIIS
   @RHF iter   8:  -115.09953159719305   -3.24317e-08   1.68954e-07 DIIS
   @RHF iter   9:  -115.09953159934454   -2.15149e-09   3.33578e-08 DIIS
   @RHF iter  10:  -115.09953159943669   -9.21432e-11   6.17047e-09 DIIS

  ==> Post-Iterations <==

    Orbital Energies (a.u.)
    -----------------------

    Doubly Occupied:                                                      

       1Ap   -20.556420     2Ap   -11.270047     3Ap    -1.355675  
       4Ap    -0.926161     5Ap    -0.690505     1App   -0.620759  
       6Ap    -0.592626     7Ap    -0.505045     2App   -0.452409  

    Virtual:                                                              

       8Ap     0.025324     9Ap     0.038994     3App    0.041966  
      10Ap     0.047749    11Ap     0.086494    12Ap     0.098203  
       4App    0.111256    13Ap     0.121659    14Ap     0.139125  
      15Ap     0.148981     5App    0.152668    16Ap     0.177090  
       6App    0.178372    17Ap     0.225755    18Ap     0.227582  
       7App    0.241887    19Ap     0.247271     8App    0.259177  
      20Ap     0.262449    21Ap     0.269882     9App    0.278243  
      10App    0.282454    22Ap     0.286872    23Ap     0.318919  
      24Ap     0.331539    25Ap     0.351192    26Ap     0.359724  
      11App    0.361925    27Ap     0.375828    12App    0.379728  
      28Ap     0.388948    13App    0.406114    29Ap     0.413224  
      30Ap     0.436074    31Ap     0.520905    14App    0.536817  
      32Ap     0.555438    33Ap     0.567797    15App    0.568177  
      16App    0.592205    34Ap     0.609111    35Ap     0.620926  
      17App    0.625760    18App    0.671673    19App    0.683181  
      36Ap     0.688340    37Ap     0.704503    20App    0.711845  
      38Ap     0.712029    39Ap     0.720330    40Ap     0.734183  
      41Ap     0.751238    21App    0.758010    42Ap     0.770820  
      43Ap     0.784198    22App    0.801633    44Ap     0.805979  
      45Ap     0.822403    46Ap     0.826664    23App    0.839257  
      24App    0.857225    25App    0.864275    47Ap     0.866126  
      48Ap     0.891340    26App    0.901498    49Ap     0.919506  
      50Ap     0.960506    51Ap     1.001448    27App    1.010270  
      52Ap     1.034548    28App    1.081969    53Ap     1.091636  
      29App    1.115320    54Ap     1.123015    30App    1.150239  
      55Ap     1.159023    56Ap     1.170204    31App    1.185450  
      32App    1.192381    57Ap     1.196335    58Ap     1.198762  
      59Ap     1.310558    33App    1.336952    60Ap     1.382270  
      34App    1.391361    35App    1.448379    61Ap     1.468513  
      62Ap     1.476408    36App    1.499790    63Ap     1.530762  
      64Ap     1.560635    37App    1.571164    65Ap     1.576626  
      66Ap     1.629985    38App    1.646539    67Ap     1.659358  
      68Ap     1.676297    39App    1.699761    69Ap     1.737260  
      40App    1.776718    70Ap     1.783976    71Ap     1.789264  
      41App    1.804669    72Ap     1.836146    42App    1.839390  
      73Ap     1.858402    43App    1.869924    44App    1.897967  
      74Ap     1.912059    75Ap     1.915851    76Ap     1.943718  
      45App    1.944533    77Ap     1.966240    46App    1.974163  
      78Ap     1.993963    79Ap     2.019163    47App    2.032658  
      80Ap     2.051283    81Ap     2.063233    48App    2.077955  
      49App    2.119308    82Ap     2.122939    50App    2.127690  
      51App    2.147280    83Ap     2.157785    84Ap     2.161512  
      52App    2.167060    53App    2.221960    85Ap     2.223939  
      86Ap     2.234561    87Ap     2.259844    54App    2.278952  
      88Ap     2.283931    89Ap     2.296833    90Ap     2.360776  
      55App    2.371986    56App    2.455492    91Ap     2.490600  
      92Ap     2.528830    57App    2.583540    58App    2.603753  
      93Ap     2.613084    59App    2.662118    94Ap     2.675049  
      95Ap     2.705597    60App    2.750518    96Ap     2.760639  
      61App    2.766180    97Ap     2.773939    62App    2.796474  
      98Ap     2.836762    63App    2.841229    99Ap     2.900863  
     100Ap     2.936661    64App    2.975920   101Ap     2.999196  
     102Ap     3.029913    65App    3.031435   103Ap     3.068215  
     104Ap     3.128502   105Ap     3.216585    66App    3.222568  
      67App    3.237574   106Ap     3.258494    68App    3.308814  
     107Ap     3.325540   108Ap     3.349884    69App    3.510432  
     109Ap     3.592091   110Ap     3.613007    70App    3.660174  
     111Ap     3.670052    71App    3.694253   112Ap     3.737647  
      72App    3.759723   113Ap     3.794014   114Ap     3.863072  
      73App    3.880160    74App    3.918011   115Ap     3.923718  
     116Ap     3.982629   117Ap     4.065209   118Ap     4.080664  
      75App    4.083125   119Ap     4.110517    76App    4.135520  
      77App    4.155969   120Ap     4.191265    78App    4.215055  
     121Ap     4.285926   122Ap     4.328300   123Ap     4.387606  
      79App    4.393719    80App    4.438153   124Ap     4.469962  
     125Ap     4.500945    81App    4.529908   126Ap     4.594363  
     127Ap     4.650554    82App    4.690008   128Ap     4.727149  
      83App    4.737242   129Ap     4.799562   130Ap     4.835825  
      84App    4.877809    85App    4.942087   131Ap     4.955973  
     132Ap     5.068025    86App    5.077848   133Ap     5.144853  
     134Ap     5.228159    87App    5.257453   135Ap     5.321079  
      88App    5.382780    89App    5.437434   136Ap     5.444866  
     137Ap     5.623499   138Ap     5.780491    90App    5.848350  
     139Ap     5.991626   140Ap     6.140440    91App    6.205593  
      92App    6.244212   141Ap     6.334266    93App    6.467279  
     142Ap     6.496811   143Ap     6.537753    94App    6.686271  
     144Ap     6.699374   145Ap     6.714487    95App    6.788586  
      96App    6.853689    97App    6.873990   146Ap     6.885380  
     147Ap     6.948487    98App    6.951682    99App    6.982608  
     148Ap     7.010095   100App    7.141633   149Ap     7.150962  
     150Ap     7.176759   101App    7.274041   151Ap     7.391587  
     152Ap     7.429219   102App    7.467428   153Ap     7.551239  
     154Ap     7.564627   103App    7.629334   104App    7.649755  
     155Ap     7.668282   156Ap     7.794916   105App    7.857284  
     157Ap     7.915096   158Ap     7.931557   106App    7.932440  
     159Ap     7.964024   107App    7.971859   160Ap     8.021008  
     108App    8.173995   161Ap     8.202266   162Ap     8.326710  
     109App    8.398818   163Ap     8.415608   164Ap     8.458854  
     110App    8.532700   165Ap     8.639064   166Ap     8.693282  
     111App    8.695394   167Ap     8.754128   168Ap     8.803434  
     112App    8.829398   113App    8.840120   169Ap     8.914351  
     170Ap     8.969803   114App    9.121936   171Ap     9.185103  
     115App    9.190822   116App    9.203590   172Ap     9.214906  
     173Ap     9.242494   117App    9.376825   174Ap     9.475702  
     118App    9.480283   175Ap     9.603976   119App    9.606851  
     176Ap     9.700504   177Ap     9.732476   120App    9.796561  
     178Ap     9.846625   179Ap    10.005024   121App   10.016421  
     122App   10.086306   180Ap    10.087844   181Ap    10.184567  
     123App   10.202216   182Ap    10.390880   124App   10.434792  
     183Ap    10.479353   184Ap    10.560964   125App   10.750114  
     185Ap    10.904421   186Ap    10.969452   126App   10.982027  
     187Ap    11.035922   188Ap    11.106880   127App   11.173677  
     189Ap    11.203204   128App   11.281965   190Ap    11.441100  
     129App   11.446768   130App   11.516021   131App   11.725103  
     191Ap    11.783322   132App   11.902552   192Ap    12.059994  
     193Ap    12.201358   194Ap    12.402879   133App   12.437937  
     195Ap    12.546992   196Ap    12.879855   134App   12.944275  
     135App   13.106002   197Ap    13.197368   136App   13.293600  
     198Ap    13.327125   199Ap    13.556319   200Ap    13.625941  
     137App   13.720936   201Ap    14.097079   138App   14.679487  
     202Ap    14.879818   203Ap    15.075078   204Ap    17.292724  
     205Ap    29.176747   206Ap    45.550244  

    Final Occupation by Irrep:
             Ap   App 
    DOCC [     7,    2 ]

  Energy converged.

  @RHF Final Energy:  -115.09953159943669

   => Energetics <=

    Nuclear Repulsion Energy =             40.2957125804724043
    One-Electron Energy =                -236.8511942772348959
    Two-Electron Energy =                  81.4559500973257968
    Total Energy =                       -115.0995315994366877



Properties will be evaluated at   0.000000,   0.000000,   0.000000 Bohr

Properties computed using the SCF density matrix

  Nuclear Dipole Moment: (a.u.)
     X:     0.8062      Y:    -2.1322      Z:     0.0000

  Electronic Dipole Moment: (a.u.)
     X:    -0.2157      Y:     1.7331      Z:     0.0000

  Dipole Moment: (a.u.)
     X:     0.5905      Y:    -0.3991      Z:     0.0000     Total:     0.7127

  Dipole Moment: (Debye)
     X:     1.5008      Y:    -1.0145      Z:     0.0000     Total:     1.8115


*** tstop() called on cqc01 at Sat Apr 27 19:00:39 2019
Module time:
	user time   =     272.98 seconds =       4.55 minutes
	system time =      56.01 seconds =       0.93 minutes
	total time  =        587 seconds =       9.78 minutes
Total time:
	user time   =     272.98 seconds =       4.55 minutes
	system time =      56.01 seconds =       0.93 minutes
	total time  =        587 seconds =       9.78 minutes

*** tstart() called on cqc01
*** at Sat Apr 27 19:00:39 2019


	Wfn Parameters:
	--------------------
	Wavefunction         = CCSD
	Number of irreps     = 2
	Number of MOs        = 344
	Number of active MOs = 342
	AO-Basis             = NONE
	Semicanonical        = false
	Reference            = RHF
	Print Level          = 1

	IRREP	# MOs	# FZDC	# DOCC	# SOCC	# VIRT	# FZVR
	-----	-----	------	------	------	------	------
	 Ap	   206	    2	    5	    0	    199	    0
	 App	   138	    0	    2	    0	    136	    0
	Transforming integrals...
	IWL integrals will be deleted.
	(OO|OO)...
	Presorting SO-basis two-electron integrals.
	Sorting File: SO Ints (nn|nn) nbuckets = 1
	Transforming the one-electron integrals and constructing Fock matrices
	Starting first half-transformation.
	Sorting half-transformed integrals.
	First half integral transformation complete.
	Starting second half-transformation.
	Two-electron integral transformation complete.
	(OO|OV)...
	Starting second half-transformation.
	Two-electron integral transformation complete.
	(OO|VV)...
	Starting second half-transformation.
	Two-electron integral transformation complete.
	(OV|OO)...
	Starting first half-transformation.
	Sorting half-transformed integrals.
	First half integral transformation complete.
	Starting second half-transformation.
	Two-electron integral transformation complete.
	(OV|OV)...
	Starting second half-transformation.
	Two-electron integral transformation complete.
	(OV|VV)...
	Starting second half-transformation.
	Two-electron integral transformation complete.
	(VV|OO)...
	Starting first half-transformation.
	Sorting half-transformed integrals.
	First half integral transformation complete.
	Starting second half-transformation.
	Two-electron integral transformation complete.
	(VV|OV)...
	Starting second half-transformation.
	Two-electron integral transformation complete.
	(VV|VV)...
	Starting second half-transformation.
	Two-electron integral transformation complete.
	Frozen core energy     =   -106.48165198701174

	Size of irrep 0 of <ab|cd> integrals:   3375.261 (MW) /  27002.091 (MB)
	Size of irrep 1 of <ab|cd> integrals:   2929.840 (MW) /  23438.723 (MB)
	Total:                                  6305.102 (MW) /  50440.814 (MB)

	Size of irrep 0 of <ia|bc> integrals:     73.609 (MW) /    588.871 (MB)
	Size of irrep 1 of <ia|bc> integrals:     58.350 (MW) /    466.800 (MB)
	Total:                                   131.959 (MW) /   1055.671 (MB)

	Size of irrep 0 of tijab amplitudes:       1.685 (MW) /     13.479 (MB)
	Size of irrep 1 of tijab amplitudes:       1.083 (MW) /      8.660 (MB)
	Total:                                     2.767 (MW) /     22.139 (MB)

	Nuclear Rep. energy          =     40.29571258047240
	SCF energy                   =   -115.09953159943669
	One-electron energy          =    -87.54082296733212
	Two-electron energy          =     38.62723077443133
	Reference energy             =   -115.09953159944013

*** tstop() called on cqc01 at Sat Apr 27 22:15:21 2019
Module time:
	user time   =    1011.51 seconds =      16.86 minutes
	system time =     524.35 seconds =       8.74 minutes
	total time  =      11682 seconds =     194.70 minutes
Total time:
	user time   =    1284.49 seconds =      21.41 minutes
	system time =     580.36 seconds =       9.67 minutes
	total time  =      12269 seconds =     204.48 minutes

*** tstart() called on cqc01
*** at Sat Apr 27 22:15:21 2019

            **************************
            *                        *
            *        CCENERGY        *
            *                        *
            **************************

    Nuclear Rep. energy (wfn)     =   40.295712580472404
    SCF energy          (wfn)     = -115.099531599436688
    Reference energy    (file100) = -115.099531599440127

    Input parameters:
    -----------------
    Wave function   =     CCSD
    Reference wfn   =     RHF
    Brueckner       =     No
    Memory (Mbytes) =     32000.0
    Maxiter         =     50
    R_Convergence   =     1.0e-07
    E_Convergence   =     1.0e-06
    Restart         =     Yes
    DIIS            =     Yes
    AO Basis        =     NONE
    ABCD            =     NEW
    Cache Level     =     2
    Cache Type      =     LOW
    Print Level     =     1
    Num. of threads =     1
    # Amps to Print =     10
    Print MP2 Amps? =     No
    Analyze T2 Amps =     No
    Print Pair Ener =     No
    Local CC        =     No
    SCS-MP2         =     False
    SCSN-MP2        =     False
    SCS-CCSD        =     False

MP2 correlation energy -0.4635626795205774
                Solving CC Amplitude Equations
                ------------------------------
  Iter             Energy              RMS        T1Diag      D1Diag    New D1Diag    D2Diag
  ----     ---------------------    ---------   ----------  ----------  ----------   --------
     0        -0.463562679520129    0.000e+00    0.000000    0.000000    0.000000    0.131009
     1        -0.490741550692963    2.729e-01    0.016665    0.036318    0.036318    0.146565
     2        -0.484085114376662    4.087e-02    0.009692    0.021231    0.021231    0.142210
     3        -0.477342760208049    1.126e-02    0.010148    0.023108    0.023108    0.138915
     4        -0.476571524075981    2.987e-03    0.009790    0.021967    0.021967    0.138428
     5        -0.476570892542455    7.132e-04    0.009703    0.021772    0.021772    0.138306
     6        -0.476538930348082    2.376e-04    0.009686    0.021708    0.021708    0.138254
     7        -0.476527647826561    8.023e-05    0.009677    0.021671    0.021671    0.138239
     8        -0.476530244265954    2.348e-05    0.009675    0.021660    0.021660    0.138238
     9        -0.476530665739666    8.364e-06    0.009674    0.021657    0.021657    0.138239
    10        -0.476530345781629    3.007e-06    0.009674    0.021655    0.021655    0.138238
    11        -0.476530326109068    9.045e-07    0.009674    0.021654    0.021654    0.138239
    12        -0.476530375783039    3.452e-07    0.009674    0.021654    0.021654    0.138239
    13        -0.476530384149745    1.229e-07    0.009674    0.021654    0.021654    0.138239
    14        -0.476530388117522    4.493e-08    0.009674    0.021654    0.021654    0.138239
    14        -0.476530388117522    4.493e-08    0.009674    0.021654    0.021654    0.138239

    Iterations converged.


    CCSD corr. energy   =   -0.476530388117522
    PPL corr. energy    =    0.112147562696597
    OS PPL corr. energy =    0.096135125726997
    SS PPL corr. energy =    0.016012436969593
    Largest TIA Amplitudes:
              6 201         0.0098404765
              5 209         0.0082192054
              3  20        -0.0068893200
              5 217         0.0059539415
              6 209        -0.0057351003
              5 211         0.0052007670
              6 207         0.0049004522
              5 208         0.0048758035
              3  22         0.0047945753
              5 201        -0.0047189915

    Largest TIjAb Amplitudes:
      3   3  22  22        -0.0256110915
      2   2  22  22        -0.0179917688
      5   5 208 208        -0.0161005864
      4   4  20  20        -0.0156852333
      1   1  22  22        -0.0136461191
      4   4  22  22        -0.0134090119
      2   3  22  22        -0.0127162360
      3   2  22  22        -0.0127162360
      3   3  20  20        -0.0127119696
      5   5 208 217        -0.0120846388

    SCF energy       (wfn)                    = -115.099531599436688
    Reference energy (file100)                = -115.099531599440127

    Opposite-spin MP2 correlation energy      =   -0.360430339633560
    Same-spin MP2 correlation energy          =   -0.103132339886569
    MP2 correlation energy                    =   -0.463562679520577
      * MP2 total energy                      = -115.563094278960705

    Opposite-spin CCSD correlation energy     =   -0.383083607274694
    Same-spin CCSD correlation energy         =   -0.093446776086669
    CCSD correlation energy                   =   -0.476530388117522
      * CCSD total energy                     = -115.576061987557651


*** tstop() called on cqc01 at Sat Apr 27 22:35:57 2019
Module time:
	user time   =     338.69 seconds =       5.64 minutes
	system time =     254.46 seconds =       4.24 minutes
	total time  =       1236 seconds =      20.60 minutes
Total time:
	user time   =    1623.18 seconds =      27.05 minutes
	system time =     834.83 seconds =      13.91 minutes
	total time  =      13505 seconds =     225.08 minutes

*** Psi4 exiting successfully. Buy a developer a beer!
