
    -----------------------------------------------------------------------
          Psi4: An Open-Source Ab Initio Electronic Structure Package
                               Psi4 1.2a1.dev939 

                         Git: Rev {HEAD} fa1ec19 


    R. M. Parrish, L. A. Burns, D. G. A. Smith, A. C. Simmonett,
    A. E. DePrince III, E. G. Hohenstein, U. Bozkaya, A. Yu. Sokolov,
    R. Di Remigio, R. M. Richard, J. F. Gonthier, A. M. James,
    H. R. McAlexander, A. Kumar, M. Saitow, X. Wang, B. P. Pritchard,
    P. Verma, H. F. Schaefer III, K. Patkowski, R. A. King, E. F. Valeev,
    F. A. Evangelista, J. M. Turney, T. D. Crawford, and C. D. Sherrill,
    J. Chem. Theory Comput. 13(7) pp 3185--3197 (2017).
    (doi: 10.1021/acs.jctc.7b00174)

    -----------------------------------------------------------------------


    Psi4 started on: Friday, 26 April 2019 03:30PM

    Process ID:  16754
    PSIDATADIR: /home/grueneis/src/psi4/objdir/stage/usr/local/psi4/share/psi4
    Memory:     500.0 MiB
    Threads:    1
    
  ==> Input File <==

--------------------------------------------------------------------------
# Any line starting with the # character is a comment line

memory 32000 mb

molecule molecule {
0 1
C         -0.0131849130        0.0000000000       -0.7300158634
O          0.0640939097        0.0000000000        0.6915053898
H         -0.5186806976       -0.8893140541       -1.1100627930
H         -0.5186806976        0.8893140541       -1.1100627930
H          1.0094357309        0.0000000000       -1.0953577182
H         -0.8323439031        0.0000000000        1.0381148124
}

set {
  reference rhf
  basis aug-cc-pv(D+d)z
  scf_type OUT_OF_CORE
  freeze_core true
}

energy('ccsd')
--------------------------------------------------------------------------

  Memory set to  29.802 GiB by Python driver.

*** tstart() called on cqc01
*** at Fri Apr 26 15:30:00 2019

   => Loading Basis Set <=

    Name: AUG-CC-PV(D+D)Z
    Role: ORBITAL
    Keyword: BASIS
    atoms 1   entry C          line   198 file /home/grueneis/src/psi4/objdir/stage/usr/local/psi4/share/psi4/basis/aug-cc-pv_dpd_z.gbs 
    atoms 2   entry O          line   270 file /home/grueneis/src/psi4/objdir/stage/usr/local/psi4/share/psi4/basis/aug-cc-pv_dpd_z.gbs 
    atoms 3-6 entry H          line    56 file /home/grueneis/src/psi4/objdir/stage/usr/local/psi4/share/psi4/basis/aug-cc-pv_dpd_z.gbs 


         ---------------------------------------------------------
                                   SCF
            by Justin Turney, Rob Parrish, Andy Simmonett
                             and Daniel Smith
                              RHF Reference
                        1 Threads,  30517 MiB Core
         ---------------------------------------------------------

  ==> Geometry <==

    Molecular point group: cs
    Full point group: Cs

    Geometry (in Angstrom), charge = 0, multiplicity = 1:

       Center              X                  Y                   Z               Mass       
    ------------   -----------------  -----------------  -----------------  -----------------
           C          0.013183553268    -0.730177928595     0.000000000000    12.000000000000
           O         -0.064095269432     0.691343324605     0.000000000000    15.994914619560
           H          0.518679337868    -1.110224858195    -0.889314054100     1.007825032070
           H          0.518679337868    -1.110224858195     0.889314054100     1.007825032070
           H         -1.009437090632    -1.095519783395     0.000000000000     1.007825032070
           H          0.832342543368     1.037952747205     0.000000000000     1.007825032070

  Running in cs symmetry.

  Rotational constants: A =      4.29018  B =      0.82568  C =      0.79676 [cm^-1]
  Rotational constants: A = 128616.40474  B =  24753.17734  C =  23886.16673 [MHz]
  Nuclear repulsion =   40.295712580472404

  Charge       = 0
  Multiplicity = 1
  Electrons    = 18
  Nalpha       = 9
  Nbeta        = 9

  ==> Algorithm <==

  SCF Algorithm Type is OUT_OF_CORE.
  DIIS enabled.
  MOM disabled.
  Fractional occupation disabled.
  Guess Type is SAD.
  Energy threshold   = 1.00e-08
  Density threshold  = 1.00e-08
  Integral threshold = 0.00e+00

  ==> Primary Basis <==

  Basis Set: AUG-CC-PV(D+D)Z
    Blend: AUG-CC-PV(D+D)Z
    Number of shells: 38
    Number of basis function: 82
    Number of Cartesian functions: 86
    Spherical Harmonics?: true
    Max angular momentum: 2

  ==> Pre-Iterations <==

   -------------------------------------------------------
    Irrep   Nso     Nmo     Nalpha   Nbeta   Ndocc  Nsocc
   -------------------------------------------------------
     A'        55      55       0       0       0       0
     A"        27      27       0       0       0       0
   -------------------------------------------------------
    Total      82      82       9       9       9       0
   -------------------------------------------------------

  ==> Integral Setup <==

  ==> DiskJK: Disk-Based J/K Matrices <==

    J tasked:                  Yes
    K tasked:                  Yes
    wK tasked:                  No
    Memory (MB):             22888
    Schwarz Cutoff:          1E-12

  Minimum eigenvalue in the overlap matrix is 6.2724006874E-04.
  Using Symmetric Orthogonalization.

  SCF Guess: Superposition of Atomic Densities via on-the-fly atomic UHF.

  ==> Iterations <==

                        Total Energy        Delta E     RMS |[F,P]|

   @RHF iter   0:  -115.20484691110290   -1.15205e+02   3.90623e-02 
   @RHF iter   1:  -114.98625214765408    2.18595e-01   6.39464e-03 
   @RHF iter   2:  -115.03731541950518   -5.10633e-02   4.07263e-03 DIIS
   @RHF iter   3:  -115.06042104078972   -2.31056e-02   5.59219e-04 DIIS
   @RHF iter   4:  -115.06143329214598   -1.01225e-03   1.02049e-04 DIIS
   @RHF iter   5:  -115.06148036766804   -4.70755e-05   2.93949e-05 DIIS
   @RHF iter   6:  -115.06148440070514   -4.03304e-06   8.38820e-06 DIIS
   @RHF iter   7:  -115.06148465888614   -2.58181e-07   2.17799e-06 DIIS
   @RHF iter   8:  -115.06148468171995   -2.28338e-08   4.83409e-07 DIIS
   @RHF iter   9:  -115.06148468272039   -1.00044e-09   9.48275e-08 DIIS
   @RHF iter  10:  -115.06148468276447   -4.40821e-11   1.42186e-08 DIIS
   @RHF iter  11:  -115.06148468276521   -7.38964e-13   2.47348e-09 DIIS

  ==> Post-Iterations <==

    Orbital Energies (a.u.)
    -----------------------

    Doubly Occupied:                                                      

       1Ap   -20.568432     2Ap   -11.278929     3Ap    -1.359883  
       4Ap    -0.927823     5Ap    -0.691311     1App   -0.620090  
       6Ap    -0.592832     7Ap    -0.504685     2App   -0.450956  

    Virtual:                                                              

       8Ap     0.034515     9Ap     0.051714     3App    0.058048  
      10Ap     0.065610    11Ap     0.115037    12Ap     0.140335  
       4App    0.153355    13Ap     0.171778    14Ap     0.208160  
      15Ap     0.222406     5App    0.243786     6App    0.281088  
      16Ap     0.281891    17Ap     0.325925    18Ap     0.338102  
      19Ap     0.384955     7App    0.394418    20Ap     0.420956  
      21Ap     0.436333     8App    0.440282    22Ap     0.463651  
       9App    0.471578    10App    0.518625    23Ap     0.552947  
      24Ap     0.576644    25Ap     0.610427    11App    0.627084  
      26Ap     0.634776    27Ap     0.654134    12App    0.663213  
      28Ap     0.682375    29Ap     0.727936    13App    0.743908  
      30Ap     0.755542    31Ap     0.916090    14App    0.970047  
      32Ap     1.000221    33Ap     1.046855    34Ap     1.111978  
      15App    1.194344    35Ap     1.231342    16App    1.232412  
      36Ap     1.370109    17App    1.428250    37Ap     1.524775  
      38Ap     1.616380    18App    1.716944    39Ap     1.766643  
      19App    1.777824    40Ap     1.792278    20App    1.880267  
      41Ap     1.900791    42Ap     2.089254    21App    2.108928  
      43Ap     2.113845    22App    2.181566    44Ap     2.246346  
      23App    2.268870    45Ap     2.313352    46Ap     2.399222  
      47Ap     2.533365    24App    2.631383    48Ap     2.709255  
      49Ap     2.787674    50Ap     2.898796    25App    2.912529  
      51Ap     3.055468    52Ap     3.150100    26App    3.738363  
      53Ap     3.756276    27App    3.791498    54Ap     3.892096  
      55Ap     4.280740  

    Final Occupation by Irrep:
             Ap   App 
    DOCC [     7,    2 ]

  Energy converged.

  @RHF Final Energy:  -115.06148468276521

   => Energetics <=

    Nuclear Repulsion Energy =             40.2957125804724043
    One-Electron Energy =                -236.7245110511611017
    Two-Electron Energy =                  81.3673137879234787
    Total Energy =                       -115.0614846827652116



Properties will be evaluated at   0.000000,   0.000000,   0.000000 Bohr

Properties computed using the SCF density matrix

  Nuclear Dipole Moment: (a.u.)
     X:     0.8062      Y:    -2.1322      Z:     0.0000

  Electronic Dipole Moment: (a.u.)
     X:    -0.2143      Y:     1.7304      Z:     0.0000

  Dipole Moment: (a.u.)
     X:     0.5918      Y:    -0.4019      Z:     0.0000     Total:     0.7154

  Dipole Moment: (Debye)
     X:     1.5043      Y:    -1.0215      Z:     0.0000     Total:     1.8183


*** tstop() called on cqc01 at Fri Apr 26 15:30:04 2019
Module time:
	user time   =       2.37 seconds =       0.04 minutes
	system time =       2.11 seconds =       0.04 minutes
	total time  =          4 seconds =       0.07 minutes
Total time:
	user time   =       2.37 seconds =       0.04 minutes
	system time =       2.11 seconds =       0.04 minutes
	total time  =          4 seconds =       0.07 minutes

*** tstart() called on cqc01
*** at Fri Apr 26 15:30:04 2019


	Wfn Parameters:
	--------------------
	Wavefunction         = CCSD
	Number of irreps     = 2
	Number of MOs        = 82
	Number of active MOs = 80
	AO-Basis             = NONE
	Semicanonical        = false
	Reference            = RHF
	Print Level          = 1

	IRREP	# MOs	# FZDC	# DOCC	# SOCC	# VIRT	# FZVR
	-----	-----	------	------	------	------	------
	 Ap	   55	    2	    5	    0	    48	    0
	 App	   27	    0	    2	    0	    25	    0
	Transforming integrals...
	IWL integrals will be deleted.
	(OO|OO)...
	Presorting SO-basis two-electron integrals.
	Sorting File: SO Ints (nn|nn) nbuckets = 1
	Transforming the one-electron integrals and constructing Fock matrices
	Starting first half-transformation.
	Sorting half-transformed integrals.
	First half integral transformation complete.
	Starting second half-transformation.
	Two-electron integral transformation complete.
	(OO|OV)...
	Starting second half-transformation.
	Two-electron integral transformation complete.
	(OO|VV)...
	Starting second half-transformation.
	Two-electron integral transformation complete.
	(OV|OO)...
	Starting first half-transformation.
	Sorting half-transformed integrals.
	First half integral transformation complete.
	Starting second half-transformation.
	Two-electron integral transformation complete.
	(OV|OV)...
	Starting second half-transformation.
	Two-electron integral transformation complete.
	(OV|VV)...
	Starting second half-transformation.
	Two-electron integral transformation complete.
	(VV|OO)...
	Starting first half-transformation.
	Sorting half-transformed integrals.
	First half integral transformation complete.
	Starting second half-transformation.
	Two-electron integral transformation complete.
	(VV|OV)...
	Starting second half-transformation.
	Two-electron integral transformation complete.
	(VV|VV)...
	Starting second half-transformation.
	Two-electron integral transformation complete.
	Frozen core energy     =   -106.47894343639511

	Size of irrep 0 of <ab|cd> integrals:      8.579 (MW) /     68.632 (MB)
	Size of irrep 1 of <ab|cd> integrals:      5.760 (MW) /     46.080 (MB)
	Total:                                    14.339 (MW) /    114.712 (MB)

	Size of irrep 0 of <ia|bc> integrals:      0.849 (MW) /      6.795 (MB)
	Size of irrep 1 of <ia|bc> integrals:      0.530 (MW) /      4.243 (MB)
	Total:                                     1.380 (MW) /     11.038 (MB)

	Size of irrep 0 of tijab amplitudes:       0.085 (MW) /      0.680 (MB)
	Size of irrep 1 of tijab amplitudes:       0.048 (MW) /      0.384 (MB)
	Total:                                     0.133 (MW) /      1.064 (MB)

	Nuclear Rep. energy          =     40.29571258047240
	SCF energy                   =   -115.06148468276521
	One-electron energy          =    -87.46134737647819
	Two-electron energy          =     38.58309354963571
	Reference energy             =   -115.06148468276518

*** tstop() called on cqc01 at Fri Apr 26 15:30:23 2019
Module time:
	user time   =       1.20 seconds =       0.02 minutes
	system time =       0.75 seconds =       0.01 minutes
	total time  =         19 seconds =       0.32 minutes
Total time:
	user time   =       3.57 seconds =       0.06 minutes
	system time =       2.87 seconds =       0.05 minutes
	total time  =         23 seconds =       0.38 minutes

*** tstart() called on cqc01
*** at Fri Apr 26 15:30:23 2019

            **************************
            *                        *
            *        CCENERGY        *
            *                        *
            **************************

    Nuclear Rep. energy (wfn)     =   40.295712580472404
    SCF energy          (wfn)     = -115.061484682765212
    Reference energy    (file100) = -115.061484682765183

    Input parameters:
    -----------------
    Wave function   =     CCSD
    Reference wfn   =     RHF
    Brueckner       =     No
    Memory (Mbytes) =     32000.0
    Maxiter         =     50
    R_Convergence   =     1.0e-07
    E_Convergence   =     1.0e-06
    Restart         =     Yes
    DIIS            =     Yes
    AO Basis        =     NONE
    ABCD            =     NEW
    Cache Level     =     2
    Cache Type      =     LOW
    Print Level     =     1
    Num. of threads =     1
    # Amps to Print =     10
    Print MP2 Amps? =     No
    Analyze T2 Amps =     No
    Print Pair Ener =     No
    Local CC        =     No
    SCS-MP2         =     False
    SCSN-MP2        =     False
    SCS-CCSD        =     False

MP2 correlation energy -0.3600756114520888
                Solving CC Amplitude Equations
                ------------------------------
  Iter             Energy              RMS        T1Diag      D1Diag    New D1Diag    D2Diag
  ----     ---------------------    ---------   ----------  ----------  ----------   --------
     0        -0.360075611452086    0.000e+00    0.000000    0.000000    0.000000    0.125792
     1        -0.406915402881866    2.453e-01    0.018336    0.045319    0.045319    0.148541
     2        -0.389300994607930    4.216e-02    0.010957    0.026442    0.026442    0.140260
     3        -0.384024881842060    1.113e-02    0.011490    0.029124    0.029124    0.137617
     4        -0.383498915048932    2.682e-03    0.011102    0.028131    0.028131    0.137155
     5        -0.383380914274653    6.539e-04    0.011009    0.027906    0.027906    0.137005
     6        -0.383347466821974    2.127e-04    0.010989    0.027851    0.027851    0.136953
     7        -0.383347871817036    5.961e-05    0.010983    0.027828    0.027828    0.136943
     8        -0.383349252898262    1.873e-05    0.010981    0.027820    0.027820    0.136942
     9        -0.383348739549319    6.324e-06    0.010980    0.027817    0.027817    0.136941
    10        -0.383348577362628    2.150e-06    0.010980    0.027816    0.027816    0.136941
    11        -0.383348601055973    7.153e-07    0.010980    0.027816    0.027816    0.136941
    12        -0.383348626270773    2.538e-07    0.010980    0.027816    0.027816    0.136941
    13        -0.383348632178456    9.892e-08    0.010980    0.027816    0.027816    0.136941
    13        -0.383348632178456    9.892e-08    0.010980    0.027816    0.027816    0.136941

    Iterations converged.


    CCSD corr. energy   =   -0.383348632178456
    PPL corr. energy    =    0.081333817609177
    OS PPL corr. energy =    0.068935771753843
    SS PPL corr. energy =    0.012398045855334
    Largest TIA Amplitudes:
              6  50        -0.0178986871
              5  50         0.0093701371
              6  53         0.0077609208
              4   6        -0.0076007234
              3  14         0.0072757198
              5  56         0.0070488563
              5  53        -0.0067970004
              2  39         0.0061251559
              5  49        -0.0060256608
              6  58         0.0058386573

    Largest TIjAb Amplitudes:
      5   5  51  51        -0.0201417216
      6   6  64  64        -0.0180136549
      5   5  59  59        -0.0173354596
      3   3  25  25        -0.0167835407
      4   4   8   8        -0.0167076575
      3   3  14  14        -0.0165835829
      2   2  10  10        -0.0156185682
      3   3   8   8        -0.0148981682
      3   3  10  10        -0.0141624315
      6   6  51  51        -0.0140946222

    SCF energy       (wfn)                    = -115.061484682765212
    Reference energy (file100)                = -115.061484682765183

    Opposite-spin MP2 correlation energy      =   -0.274090970917140
    Same-spin MP2 correlation energy          =   -0.085984640534947
    MP2 correlation energy                    =   -0.360075611452089
      * MP2 total energy                      = -115.421560294217272

    Opposite-spin CCSD correlation energy     =   -0.305461609565958
    Same-spin CCSD correlation energy         =   -0.077887022650654
    CCSD correlation energy                   =   -0.383348632178456
      * CCSD total energy                     = -115.444833314943637


*** tstop() called on cqc01 at Fri Apr 26 15:30:41 2019
Module time:
	user time   =       3.33 seconds =       0.06 minutes
	system time =       7.17 seconds =       0.12 minutes
	total time  =         18 seconds =       0.30 minutes
Total time:
	user time   =       6.90 seconds =       0.12 minutes
	system time =      10.04 seconds =       0.17 minutes
	total time  =         41 seconds =       0.68 minutes

*** Psi4 exiting successfully. Buy a developer a beer!
