
    -----------------------------------------------------------------------
          Psi4: An Open-Source Ab Initio Electronic Structure Package
                               Psi4 1.4a3.dev88 

                         Git: Rev {master} 262e345 


    D. G. A. Smith, L. A. Burns, A. C. Simmonett, R. M. Parrish,
    M. C. Schieber, R. Galvelis, P. Kraus, H. Kruse, R. Di Remigio,
    A. Alenaizan, A. M. James, S. Lehtola, J. P. Misiewicz, M. Scheurer,
    R. A. Shaw, J. B. Schriber, Y. Xie, Z. L. Glick, D. A. Sirianni,
    J. S. O'Brien, J. M. Waldrop, A. Kumar, E. G. Hohenstein,
    B. P. Pritchard, B. R. Brooks, H. F. Schaefer III, A. Yu. Sokolov,
    K. Patkowski, A. E. DePrince III, U. Bozkaya, R. A. King,
    F. A. Evangelista, J. M. Turney, T. D. Crawford, C. D. Sherrill,
    J. Chem. Phys. 152(18) 184108 (2020). https://doi.org/10.1063/5.0006002

                            Additional Code Authors
    E. T. Seidl, C. L. Janssen, E. F. Valeev, M. L. Leininger,
    J. F. Gonthier, R. M. Richard, H. R. McAlexander, M. Saitow, X. Wang,
    P. Verma, and M. H. Lechner

             Previous Authors, Complete List of Code Contributors,
                       and Citations for Specific Modules
    https://github.com/psi4/psi4/blob/master/codemeta.json
    https://github.com/psi4/psi4/graphs/contributors
    http://psicode.org/psi4manual/master/introduction.html#citing-psifour

    -----------------------------------------------------------------------


    Psi4 started on: Tuesday, 26 January 2021 06:37PM

    Process ID: 410897
    Host:       n412-039.vsc4.prov
    PSIDATADIR: /home/fs71337/gallo4/psi4/eri-6/psi4/build/stage/share/psi4
    Memory:     500.0 MiB
    Threads:    48
    
  ==> Input File <==

--------------------------------------------------------------------------
# Any line starting with the # character is a comment line
memory 250000 mb
molecule molecule{
0 3
S          0.0000000000        0.0000000000       -0.5025036822
O          0.0000000000        0.0000000000        1.0069295132
}

set {
  reference uhf
  basis aug-cc-pV(d+d)Z
  scf_type OUT_OF_CORE
  freeze_core true
}

energy('ccsd(t)')
--------------------------------------------------------------------------

  Memory set to 232.831 GiB by Python driver.

Scratch directory: /binfl/lv71337/airmler/temp/

*** tstart() called on n412-039.vsc4.prov
*** at Tue Jan 26 18:37:02 2021

   => Loading Basis Set <=

    Name: AUG-CC-PV(D+D)Z
    Role: ORBITAL
    Keyword: BASIS
    atoms 1 entry S          line   740 file /home/fs71337/gallo4/psi4/eri-6/psi4/build/stage/share/psi4/basis/aug-cc-pv_dpd_z.gbs 
    atoms 2 entry O          line   282 file /home/fs71337/gallo4/psi4/eri-6/psi4/build/stage/share/psi4/basis/aug-cc-pv_dpd_z.gbs 


         ---------------------------------------------------------
                                   SCF
               by Justin Turney, Rob Parrish, Andy Simmonett
                          and Daniel G. A. Smith
                              UHF Reference
                       48 Threads, 238418 MiB Core
         ---------------------------------------------------------

  ==> Geometry <==

    Molecular point group: c2v
    Full point group: C_inf_v

    Geometry (in Angstrom), charge = 0, multiplicity = 3:

       Center              X                  Y                   Z               Mass       
    ------------   -----------------  -----------------  -----------------  -----------------
         S            0.000000000000     0.000000000000    -0.503330669725    31.972071174400
         O            0.000000000000     0.000000000000     1.006102525675    15.994914619570

  Running in c2v symmetry.

  Rotational constants: A = ************  B =      0.69400  C =      0.69400 [cm^-1]
  Rotational constants: A = ************  B =  20805.54694  C =  20805.54694 [MHz]
  Nuclear repulsion =   44.874250263066671

  Charge       = 0
  Multiplicity = 3
  Electrons    = 24
  Nalpha       = 13
  Nbeta        = 11

  ==> Algorithm <==

  SCF Algorithm Type is OUT_OF_CORE.
  DIIS enabled.
  MOM disabled.
  Fractional occupation disabled.
  Guess Type is SAD.
  Energy threshold   = 1.00e-08
  Density threshold  = 1.00e-08
  Integral threshold = 1.00e-12

  ==> Primary Basis <==

  Basis Set: AUG-CC-PV(D+D)Z
    Blend: AUG-CC-PV(D+D)Z
    Number of shells: 21
    Number of basis function: 55
    Number of Cartesian functions: 60
    Spherical Harmonics?: true
    Max angular momentum: 2

  ==> Integral Setup <==

  ==> DiskJK: Disk-Based J/K Matrices <==

    J tasked:                  Yes
    K tasked:                  Yes
    wK tasked:                  No
    Memory [MiB]:           178813
    Schwarz Cutoff:          1E-12

  Minimum eigenvalue in the overlap matrix is 3.3113187755E-03.
  Reciprocal condition number of the overlap matrix is 8.1893091761E-04.
    Using symmetric orthogonalization.

  ==> Pre-Iterations <==

  SCF Guess: Superposition of Atomic Densities via on-the-fly atomic UHF (no occupation information).


 WARNING: Atomic UHF is not converging! Try casting from a smaller basis or call Rob at CCMST.

 WARNING: Atomic UHF is not converging! Try casting from a smaller basis or call Rob at CCMST.
   -------------------------
    Irrep   Nso     Nmo    
   -------------------------
     A1        26      26 
     A2         5       5 
     B1        12      12 
     B2        12      12 
   -------------------------
    Total      55      55
   -------------------------

  ==> Iterations <==

                        Total Energy        Delta E     RMS |[F,P]|

   @UHF iter SAD:  -461.79475356685720   -4.61795e+02   0.00000e+00 
   @UHF iter   1:  -468.63389125775046   -6.83914e+00   8.79385e-02 DIIS
   @UHF iter   2:  -460.84361364523699    7.79028e+00   9.64795e-02 DIIS
   @UHF iter   3:  -471.29933949542601   -1.04557e+01   4.65473e-02 DIIS
   @UHF iter   4:  -472.17325046874913   -8.73911e-01   1.84269e-02 DIIS
   @UHF iter   5:  -472.35293222561444   -1.79682e-01   2.96230e-03 DIIS
   @UHF iter   6:  -472.36374089538430   -1.08087e-02   1.34346e-03 DIIS
   @UHF iter   7:  -472.36721093418629   -3.47004e-03   1.09421e-03 DIIS
   @UHF iter   8:  -472.37028894325437   -3.07801e-03   4.57829e-04 DIIS
   @UHF iter   9:  -472.37122820268502   -9.39259e-04   2.11494e-04 DIIS
   @UHF iter  10:  -472.37132649372336   -9.82910e-05   8.25988e-05 DIIS
   @UHF iter  11:  -472.37133495793626   -8.46421e-06   2.24931e-05 DIIS
   @UHF iter  12:  -472.37133563091675   -6.72980e-07   7.08693e-06 DIIS
   @UHF iter  13:  -472.37133576556607   -1.34649e-07   3.19400e-06 DIIS
   @UHF iter  14:  -472.37133578883021   -2.32641e-08   7.77590e-07 DIIS
   @UHF iter  15:  -472.37133578977739   -9.47182e-10   2.29956e-07 DIIS
   @UHF iter  16:  -472.37133578986339   -8.60041e-11   9.89565e-08 DIIS
   @UHF iter  17:  -472.37133578989460   -3.12070e-11   7.43556e-08 DIIS
   @UHF iter  18:  -472.37133578992552   -3.09228e-11   6.41433e-08 DIIS
   @UHF iter  19:  -472.37133578998538   -5.98561e-11   4.24858e-08 DIIS
   @UHF iter  20:  -472.37133579002000   -3.46176e-11   1.03456e-08 DIIS
   @UHF iter  21:  -472.37133579002108   -1.08002e-12   2.17484e-09 DIIS
  Energy and wave function converged.


  ==> Post-Iterations <==

   @Spin Contamination Metric:   5.708715722E-02
   @S^2 Expected:                2.000000000E+00
   @S^2 Observed:                2.057087157E+00
   @S   Expected:                1.000000000E+00
   @S   Observed:                1.000000000E+00

    Orbital Energies [Eh]
    ---------------------

    Alpha Occupied:                                                       

       1A1   -92.074774     2A1   -20.671396     3A1    -9.069300  
       1B2    -6.757206     1B1    -6.757206     4A1    -6.745290  
       5A1    -1.459562     6A1    -0.959023     2B1    -0.678605  
       2B2    -0.678605     7A1    -0.643149     3B2    -0.432787  
       3B1    -0.432787  

    Alpha Virtual:                                                        

       8A1     0.070541     9A1     0.094760     4B2     0.104876  
       4B1     0.104876    10A1     0.197085    11A1     0.231795  
       5B1     0.240927     5B2     0.240927    12A1     0.318840  
       1A2     0.318840    13A1     0.398793     6B2     0.441670  
       6B1     0.441670    14A1     0.615706     7B2     0.747166  
       7B1     0.747166    15A1     0.782628    16A1     0.940723  
       8B2     0.972938     8B1     0.972938    17A1     0.984002  
       2A2     0.984002    18A1     1.013223     3A2     1.013223  
      19A1     1.208792     9B1     1.256545     9B2     1.256545  
      20A1     1.468161    10B1     1.523008    10B2     1.523008  
      21A1     1.719145    22A1     2.826416    23A1     3.507304  
       4A2     3.507304    11B1     3.607330    11B2     3.607330  
      24A1     3.652673    25A1     4.953072     5A2     4.953072  
      12B2     5.031710    12B1     5.031710    26A1     5.111462  

    Beta Occupied:                                                        

       1A1   -92.062636     2A1   -20.626932     3A1    -9.056118  
       4A1    -6.741906     1B1    -6.725505     1B2    -6.725505  
       5A1    -1.351081     6A1    -0.810617     7A1    -0.573044  
       2B2    -0.492111     2B1    -0.492111  

    Beta Virtual:                                                         

       3B2     0.025492     3B1     0.025492     8A1     0.076273  
       9A1     0.100719     4B1     0.125119     4B2     0.125119  
      10A1     0.209998    11A1     0.248889     5B2     0.257345  
       5B1     0.257345    12A1     0.372433     1A2     0.372433  
      13A1     0.406949     6B2     0.488351     6B1     0.488351  
      14A1     0.646407    15A1     0.792465     7B1     0.798983  
       7B2     0.798983    16A1     0.946230     8B2     1.004434  
       8B1     1.004434    17A1     1.019702     2A2     1.019702  
      18A1     1.066254     3A2     1.066254    19A1     1.246533  
       9B2     1.305915     9B1     1.305915    20A1     1.488979  
      10B2     1.588691    10B1     1.588691    21A1     1.743350  
      22A1     2.849074    23A1     3.599503     4A2     3.599503  
      11B2     3.659976    11B1     3.659976    24A1     3.699336  
      25A1     4.966689     5A2     4.966689    12B2     5.039452  
      12B1     5.039452    26A1     5.117978  

    Final Occupation by Irrep:
             A1    A2    B1    B2 
    DOCC [     7,    0,    2,    2 ]
    SOCC [     0,    0,    1,    1 ]

  @UHF Final Energy:  -472.37133579002108

   => Energetics <=

    Nuclear Repulsion Energy =             44.8742502630666706
    One-Electron Energy =                -741.4739136598007008
    Two-Electron Energy =                 224.2283276067129805
    Total Energy =                       -472.3713357900210781

  UHF NO Occupations:
  HONO-2 :    2 B1 1.9892169
  HONO-1 :    3 B1 1.0000000
  HONO-0 :    3 B2 1.0000000
  LUNO+0 :    4 B1 0.0107831
  LUNO+1 :    4 B2 0.0107831
  LUNO+2 :    8 A1 0.0056275
  LUNO+3 :    9 A1 0.0011153


Computation Completed


Properties will be evaluated at   0.000000,   0.000000,   0.000000 [a0]

Properties computed using the SCF density matrix

  Nuclear Dipole Moment: [e a0]
     X:     0.0000      Y:     0.0000      Z:    -0.0084

  Electronic Dipole Moment: [e a0]
     X:     0.0000      Y:     0.0000      Z:    -0.7378

  Dipole Moment: [e a0]
     X:     0.0000      Y:     0.0000      Z:    -0.7463     Total:     0.7463

  Dipole Moment: [D]
     X:     0.0000      Y:     0.0000      Z:    -1.8968     Total:     1.8968


*** tstop() called on n412-039.vsc4.prov at Tue Jan 26 18:37:05 2021
Module time:
	user time   =      33.73 seconds =       0.56 minutes
	system time =       1.73 seconds =       0.03 minutes
	total time  =          3 seconds =       0.05 minutes
Total time:
	user time   =      33.73 seconds =       0.56 minutes
	system time =       1.73 seconds =       0.03 minutes
	total time  =          3 seconds =       0.05 minutes

*** tstart() called on n412-039.vsc4.prov
*** at Tue Jan 26 18:37:05 2021


	Wfn Parameters:
	--------------------
	Wavefunction         = CCSD_T
	Number of irreps     = 4
	Number of MOs        = 55
	Number of active MOs = 49
	AO-Basis             = NONE
	Semicanonical        = false
	Reference            = UHF
	Print Level          = 1

	IRREP	# MOs	# FZDC	# DOCC	# SOCC	# VIRT	# FZVR
	-----	-----	------	------	------	------	------
	 A1	   26	    4	    3	    0	    19	    0
	 A2	   5	    0	    0	    0	    5	    0
	 B1	   12	    1	    1	    1	    9	    0
	 B2	   12	    1	    1	    1	    9	    0
	Transforming integrals...
	IWL integrals will be deleted.
	(OO|OO)...
	Presorting SO-basis two-electron integrals.
	Sorting File: SO Ints (nn|nn) nbuckets = 1
	Constructing frozen core operators
	Starting AA/AB first half-transformation.
	Sorting AA/AB half-transformed integrals.
	Starting BB first half-transformation.
	Sorting BB half-transformed integrals.
	First half integral transformation complete.
	Starting AA second half-transformation.
	Starting AB second half-transformation.
	Starting BB second half-transformation.
	Two-electron integral transformation complete.
	(OO|OV)...
	Starting AA second half-transformation.
	Starting AB second half-transformation.
	Starting BB second half-transformation.
	Two-electron integral transformation complete.
	(OO|VV)...
	Starting AA second half-transformation.
	Starting AB second half-transformation.
	Starting BB second half-transformation.
	Two-electron integral transformation complete.
	(OV|OO)...
	Starting AA/AB first half-transformation.
	Sorting AA/AB half-transformed integrals.
	Starting BB first half-transformation.
	Sorting BB half-transformed integrals.
	First half integral transformation complete.
	Starting AA second half-transformation.
	Starting AB second half-transformation.
	Starting BB second half-transformation.
	Two-electron integral transformation complete.
	(OV|OV)...
	Starting AA second half-transformation.
	Starting AB second half-transformation.
	Starting BB second half-transformation.
	Two-electron integral transformation complete.
	(OV|VV)...
	Starting AA second half-transformation.
	Starting AB second half-transformation.
	Starting BB second half-transformation.
	Two-electron integral transformation complete.
	(VV|OO)...
	Starting AA/AB first half-transformation.
	Sorting AA/AB half-transformed integrals.
	Starting BB first half-transformation.
	Sorting BB half-transformed integrals.
	First half integral transformation complete.
	Starting AA second half-transformation.
	Starting AB second half-transformation.
	Starting BB second half-transformation.
	Two-electron integral transformation complete.
	(VV|OV)...
	Starting AA second half-transformation.
	Starting AB second half-transformation.
	Starting BB second half-transformation.
	Two-electron integral transformation complete.
	(VV|VV)...
	Starting AA second half-transformation.
	Starting AB second half-transformation.
	Starting BB second half-transformation.
	Two-electron integral transformation complete.
	Frozen core energy     =   -478.90701642651379

	Size of irrep 0 of <AB|CD> integrals:      0.064 (MW) /      0.512 (MB)
	Size of irrep 1 of <AB|CD> integrals:      0.031 (MW) /      0.248 (MB)
	Size of irrep 2 of <AB|CD> integrals:      0.047 (MW) /      0.373 (MB)
	Size of irrep 3 of <AB|CD> integrals:      0.047 (MW) /      0.373 (MB)
	Total:                                     0.188 (MW) /      1.506 (MB)

	Size of irrep 0 of <ab|cd> integrals:      0.073 (MW) /      0.588 (MB)
	Size of irrep 1 of <ab|cd> integrals:      0.038 (MW) /      0.304 (MB)
	Size of irrep 2 of <ab|cd> integrals:      0.058 (MW) /      0.461 (MB)
	Size of irrep 3 of <ab|cd> integrals:      0.058 (MW) /      0.461 (MB)
	Total:                                     0.227 (MW) /      1.813 (MB)

	Size of irrep 0 of <Ab|Cd> integrals:      0.320 (MW) /      2.563 (MB)
	Size of irrep 1 of <Ab|Cd> integrals:      0.137 (MW) /      1.095 (MB)
	Size of irrep 2 of <Ab|Cd> integrals:      0.208 (MW) /      1.663 (MB)
	Size of irrep 3 of <Ab|Cd> integrals:      0.208 (MW) /      1.663 (MB)
	Total:                                     0.873 (MW) /      6.985 (MB)

	Size of irrep 0 of <IA|BC> integrals:      0.051 (MW) /      0.408 (MB)
	Size of irrep 1 of <IA|BC> integrals:      0.018 (MW) /      0.144 (MB)
	Size of irrep 2 of <IA|BC> integrals:      0.032 (MW) /      0.259 (MB)
	Size of irrep 3 of <IA|BC> integrals:      0.032 (MW) /      0.259 (MB)
	Total:                                     0.134 (MW) /      1.070 (MB)

	Size of irrep 0 of <ia|bc> integrals:      0.045 (MW) /      0.361 (MB)
	Size of irrep 1 of <ia|bc> integrals:      0.014 (MW) /      0.109 (MB)
	Size of irrep 2 of <ia|bc> integrals:      0.026 (MW) /      0.207 (MB)
	Size of irrep 3 of <ia|bc> integrals:      0.026 (MW) /      0.207 (MB)
	Total:                                     0.111 (MW) /      0.885 (MB)

	Size of irrep 0 of <Ia|Bc> integrals:      0.055 (MW) /      0.439 (MB)
	Size of irrep 1 of <Ia|Bc> integrals:      0.020 (MW) /      0.163 (MB)
	Size of irrep 2 of <Ia|Bc> integrals:      0.036 (MW) /      0.285 (MB)
	Size of irrep 3 of <Ia|Bc> integrals:      0.036 (MW) /      0.285 (MB)
	Total:                                     0.146 (MW) /      1.171 (MB)

	Size of irrep 0 of <iA|bC> integrals:      0.042 (MW) /      0.340 (MB)
	Size of irrep 1 of <iA|bC> integrals:      0.012 (MW) /      0.098 (MB)
	Size of irrep 2 of <iA|bC> integrals:      0.023 (MW) /      0.186 (MB)
	Size of irrep 3 of <iA|bC> integrals:      0.023 (MW) /      0.186 (MB)
	Total:                                     0.101 (MW) /      0.809 (MB)

	Size of irrep 0 of tIjAb amplitudes:       0.007 (MW) /      0.059 (MB)
	Size of irrep 1 of tIjAb amplitudes:       0.001 (MW) /      0.012 (MB)
	Size of irrep 2 of tIjAb amplitudes:       0.004 (MW) /      0.033 (MB)
	Size of irrep 3 of tIjAb amplitudes:       0.004 (MW) /      0.033 (MB)
	Total:                                     0.017 (MW) /      0.136 (MB)

	Nuclear Rep. energy          =     44.87425026306667
	SCF energy                   =   -472.37133579002108
	One-electron energy          =    -67.67365469454387
	Two-electron (AA) energy     =      8.44509689607080
	Two-electron (BB) energy     =      4.12338049315552
	Two-electron (AB) energy     =     16.76660767874318
	Two-electron energy          =     29.33508506796950
	Reference energy             =   -472.37133579002148

*** tstop() called on n412-039.vsc4.prov at Tue Jan 26 18:37:08 2021
Module time:
	user time   =       0.21 seconds =       0.00 minutes
	system time =       0.38 seconds =       0.01 minutes
	total time  =          3 seconds =       0.05 minutes
Total time:
	user time   =      33.95 seconds =       0.57 minutes
	system time =       2.11 seconds =       0.04 minutes
	total time  =          6 seconds =       0.10 minutes
            **************************
            *                        *
            *        CCENERGY        *
            *                        *
            **************************

    Nuclear Rep. energy (wfn)     =   44.874250263066671
    SCF energy          (wfn)     = -472.371335790021078
    Reference energy    (file100) = -472.371335790021476

    Input parameters:
    -----------------
    Wave function   =     CCSD_T
    Reference wfn   =     UHF
    Brueckner       =     No
    Memory (Mbytes) =     250000.0
    Maxiter         =     50
    R_Convergence   =     1.0e-07
    E_Convergence   =     1.0e-06
    Restart         =     Yes
    DIIS            =     Yes
    AO Basis        =     NONE
    ABCD            =     NEW
    Cache Level     =     2
    Cache Type      =     LRU
    Print Level     =     1
    Num. of threads =     48
    # Amps to Print =     10
    Print MP2 Amps? =     No
    Analyze T2 Amps =     No
    Print Pair Ener =     No
    Local CC        =     No
    SCS-MP2         =     False
    SCSN-MP2        =     False
    SCS-CCSD        =     False

MP2 correlation energy -0.3154499064085801
                Solving CC Amplitude Equations
                ------------------------------
  Iter             Energy              RMS        T1Diag      D1Diag    New D1Diag    D2Diag
  ----     ---------------------    ---------   ----------  ----------  ----------   --------
     0        -0.315449906408580    0.000e+00    0.000000    0.000000    0.000000    0.000000
     1        -0.313313251172863    9.500e-02    0.021535    0.000000    0.000000    0.000000
     2        -0.325274619281544    3.115e-02    0.022574    0.000000    0.000000    0.000000
     3        -0.328711336835753    1.629e-02    0.027867    0.000000    0.000000    0.000000
     4        -0.328627640111240    4.286e-03    0.029018    0.000000    0.000000    0.000000
     5        -0.328633993374594    1.717e-03    0.029493    0.000000    0.000000    0.000000
     6        -0.328638357357114    6.227e-04    0.029562    0.000000    0.000000    0.000000
     7        -0.328640955418405    2.611e-04    0.029564    0.000000    0.000000    0.000000
     8        -0.328645442570110    1.008e-04    0.029563    0.000000    0.000000    0.000000
     9        -0.328645946068996    3.170e-05    0.029564    0.000000    0.000000    0.000000
    10        -0.328645222976725    1.150e-05    0.029563    0.000000    0.000000    0.000000
    11        -0.328645492360961    4.909e-06    0.029563    0.000000    0.000000    0.000000
    12        -0.328645389861618    2.022e-06    0.029563    0.000000    0.000000    0.000000
    13        -0.328645492020232    8.700e-07    0.029563    0.000000    0.000000    0.000000
    14        -0.328645503791264    2.592e-07    0.029563    0.000000    0.000000    0.000000
    15        -0.328645501523285    9.413e-08    0.029563    0.000000    0.000000    0.000000

    Iterations converged.


    Largest TIA Amplitudes:
              2   2         0.0295265980
              3  26        -0.0290843355
              5  35        -0.0290843347
              3  25        -0.0252902261
              5  34        -0.0252902252
              2   0        -0.0186561512
              2   5        -0.0160244997
              2   3        -0.0137750232
              6  34        -0.0111199484
              4  25        -0.0111199483

    Largest Tia Amplitudes:
              3  31        -0.0202425742
              4  41        -0.0202425714
              3  27         0.0197992051
              4  37         0.0197991968
              1   3        -0.0187520452
              4  34         0.0157124980
              3  24         0.0157124592
              1   2         0.0150138056
              1   5        -0.0133814447
              4  35         0.0121524434

    Largest TIJAB Amplitudes:
      6   4  19   4        -0.0278745183
      6   4  35  26        -0.0173551440
      6   2  35   2         0.0171769639
      4   2  26   2         0.0171769637
      6   4  19   9        -0.0133647098
      6   4  20   4        -0.0133647098
      5   4  19   4         0.0133440369
      6   3  19   4         0.0133440363
      6   4  36  27        -0.0128203293
      6   4  20   9        -0.0113793257

    Largest Tijab Amplitudes:
      4   3  34  24        -0.0638086499
      4   3  35  24        -0.0246423674
      4   3  34  25        -0.0246423667
      3   2  24   3         0.0243582382
      4   2  34   3         0.0243582373
      3   2  24   2        -0.0203326155
      4   2  34   2        -0.0203326148
      4   3  34  26         0.0196764802
      4   3  36  24         0.0196764790
      4   3  34  27         0.0177451675

    Largest TIjAb Amplitudes:
      2   3   2  24        -0.0282945052
      2   4   2  34        -0.0282945041
      4   3  26  24         0.0272624851
      6   4  35  34         0.0272624842
      2   2   2   3         0.0235060697
      2   2   2   2        -0.0223578072
      4   1  19  34         0.0222914405
      4   1   4  24         0.0222914402
      6   1   4  34        -0.0222914401
      6   1  19  24         0.0222914398

    SCF energy       (wfn)                    = -472.371335790021078
    Reference energy (file100)                = -472.371335790021476

    Opposite-spin MP2 correlation energy      =   -0.223302328040989
    Same-spin MP2 correlation energy          =   -0.092147578367591
    Singles MP2 correlation energy            =   -0.000000000000000
    MP2 correlation energy                    =   -0.315449906408580
      * MP2 total energy                      = -472.686785696430036

    Opposite-spin CCSD correlation energy     =   -0.245737807975751
    Same-spin CCSD correlation energy         =   -0.082907693547534
    Singles CCSD correlation energy           =    0.000000000000000
    CCSD correlation energy                   =   -0.328645501523285
      * CCSD total energy                     = -472.699981291544759

            **************************
            *                        *
            *        CCTRIPLES       *
            *                        *
            **************************


    Wave function   =    CCSD_T
    Reference wfn   =      UHF

    Nuclear Rep. energy (wfn)                =   44.874250263066671
    SCF energy          (wfn)                = -472.371335790021078
    Reference energy    (file100)            = -472.371335790021476
    CCSD energy         (file100)            =   -0.328645501523285
    Total CCSD energy   (file100)            = -472.699981291544759

    Number of ijk index combinations:
    Spin Case AAA:                                  35
    Spin Case BBB:                                  10
    Spin Case AAB:                                 105
    Spin Case ABB:                                  70
    AAA (T) energy                             =   -0.000214173181007
    BBB (T) energy                             =   -0.000649316192436
    AAB (T) energy                             =   -0.005565716002086
    ABB (T) energy                             =   -0.006820772172970
    (T) energy                                   =   -0.013249977548499
      * CCSD(T) total energy                     = -472.713231269093285


    Psi4 stopped on: Tuesday, 26 January 2021 06:37PM
    Psi4 wall time for execution: 0:00:13.22

*** Psi4 exiting successfully. Buy a developer a beer!
