
    -----------------------------------------------------------------------
          Psi4: An Open-Source Ab Initio Electronic Structure Package
                               Psi4 1.4a3.dev88 

                         Git: Rev {master} 262e345 


    D. G. A. Smith, L. A. Burns, A. C. Simmonett, R. M. Parrish,
    M. C. Schieber, R. Galvelis, P. Kraus, H. Kruse, R. Di Remigio,
    A. Alenaizan, A. M. James, S. Lehtola, J. P. Misiewicz, M. Scheurer,
    R. A. Shaw, J. B. Schriber, Y. Xie, Z. L. Glick, D. A. Sirianni,
    J. S. O'Brien, J. M. Waldrop, A. Kumar, E. G. Hohenstein,
    B. P. Pritchard, B. R. Brooks, H. F. Schaefer III, A. Yu. Sokolov,
    K. Patkowski, A. E. DePrince III, U. Bozkaya, R. A. King,
    F. A. Evangelista, J. M. Turney, T. D. Crawford, C. D. Sherrill,
    J. Chem. Phys. 152(18) 184108 (2020). https://doi.org/10.1063/5.0006002

                            Additional Code Authors
    E. T. Seidl, C. L. Janssen, E. F. Valeev, M. L. Leininger,
    J. F. Gonthier, R. M. Richard, H. R. McAlexander, M. Saitow, X. Wang,
    P. Verma, and M. H. Lechner

             Previous Authors, Complete List of Code Contributors,
                       and Citations for Specific Modules
    https://github.com/psi4/psi4/blob/master/codemeta.json
    https://github.com/psi4/psi4/graphs/contributors
    http://psicode.org/psi4manual/master/introduction.html#citing-psifour

    -----------------------------------------------------------------------


    Psi4 started on: Wednesday, 20 January 2021 09:50PM

    Process ID: 8026
    Host:       l43
    PSIDATADIR: /home/fs71337/gallo4/psi4/psi4/build/stage/share/psi4
    Memory:     500.0 MiB
    Threads:    48
    
  ==> Input File <==

--------------------------------------------------------------------------
# Any line starting with the # character is a comment line
memory 250000 mb
molecule molecule{
0 3
S          0.0000000000        0.0000000000       -0.5025036822
O          0.0000000000        0.0000000000        1.0069295132
}

set {
  reference uhf
  basis aug-cc-pV(Q+d)Z
  scf_type OUT_OF_CORE
  freeze_core true
}

energy('ccsd(t)')
--------------------------------------------------------------------------

  Memory set to 232.831 GiB by Python driver.

Scratch directory: /tmp/

*** tstart() called on l43
*** at Wed Jan 20 21:50:29 2021

   => Loading Basis Set <=

    Name: AUG-CC-PV(Q+D)Z
    Role: ORBITAL
    Keyword: BASIS
    atoms 1 entry S          line  1164 file /home/fs71337/gallo4/psi4/psi4/build/stage/share/psi4/basis/aug-cc-pv_qpd_z.gbs 
    atoms 2 entry O          line   451 file /home/fs71337/gallo4/psi4/psi4/build/stage/share/psi4/basis/aug-cc-pv_qpd_z.gbs 


         ---------------------------------------------------------
                                   SCF
               by Justin Turney, Rob Parrish, Andy Simmonett
                          and Daniel G. A. Smith
                              UHF Reference
                       48 Threads, 238418 MiB Core
         ---------------------------------------------------------

  ==> Geometry <==

    Molecular point group: c2v
    Full point group: C_inf_v

    Geometry (in Angstrom), charge = 0, multiplicity = 3:

       Center              X                  Y                   Z               Mass       
    ------------   -----------------  -----------------  -----------------  -----------------
         S            0.000000000000     0.000000000000    -0.503330669725    31.972071174400
         O            0.000000000000     0.000000000000     1.006102525675    15.994914619570

  Running in c2v symmetry.

  Rotational constants: A = ************  B =      0.69400  C =      0.69400 [cm^-1]
  Rotational constants: A = ************  B =  20805.54694  C =  20805.54694 [MHz]
  Nuclear repulsion =   44.874250263066671

  Charge       = 0
  Multiplicity = 3
  Electrons    = 24
  Nalpha       = 13
  Nbeta        = 11

  ==> Algorithm <==

  SCF Algorithm Type is OUT_OF_CORE.
  DIIS enabled.
  MOM disabled.
  Fractional occupation disabled.
  Guess Type is SAD.
  Energy threshold   = 1.00e-08
  Density threshold  = 1.00e-08
  Integral threshold = 1.00e-12

  ==> Primary Basis <==

  Basis Set: AUG-CC-PV(Q+D)Z
    Blend: AUG-CC-PV(Q+D)Z
    Number of shells: 43
    Number of basis function: 169
    Number of Cartesian functions: 220
    Spherical Harmonics?: true
    Max angular momentum: 4

  ==> Integral Setup <==

  ==> DiskJK: Disk-Based J/K Matrices <==

    J tasked:                  Yes
    K tasked:                  Yes
    wK tasked:                  No
    Memory [MiB]:           178813
    Schwarz Cutoff:          1E-12

  Minimum eigenvalue in the overlap matrix is 1.4408487207E-04.
  Reciprocal condition number of the overlap matrix is 2.5369126394E-05.
    Using symmetric orthogonalization.

  ==> Pre-Iterations <==

  SCF Guess: Superposition of Atomic Densities via on-the-fly atomic UHF (no occupation information).


 WARNING: Atomic UHF is not converging! Try casting from a smaller basis or call Rob at CCMST.

 WARNING: Atomic UHF is not converging! Try casting from a smaller basis or call Rob at CCMST.
   -------------------------
    Irrep   Nso     Nmo    
   -------------------------
     A1        66      66 
     A2        23      23 
     B1        40      40 
     B2        40      40 
   -------------------------
    Total     169     169
   -------------------------

  ==> Iterations <==

                        Total Energy        Delta E     RMS |[F,P]|

   @UHF iter SAD:  -458.99140103687114   -4.58991e+02   0.00000e+00 
    Occupation by irrep:
             A1    A2    B1    B2 
    DOCC [     7,    0,    2,    2 ]
    SOCC [     0,    0,    1,    1 ]

   @UHF iter   1:  -468.33959422246602   -9.34819e+00   2.75525e-02 DIIS
   @UHF iter   2:  -467.58132259475218    7.58272e-01   4.30231e-02 DIIS
   @UHF iter   3:  -471.60192480712783   -4.02060e+00   1.60320e-02 DIIS
   @UHF iter   4:  -472.33644261954760   -7.34518e-01   4.34443e-03 DIIS
   @UHF iter   5:  -472.41028708048287   -7.38445e-02   5.68333e-04 DIIS
   @UHF iter   6:  -472.41278515633974   -2.49808e-03   4.15140e-04 DIIS
   @UHF iter   7:  -472.41455684412023   -1.77169e-03   2.13925e-04 DIIS
   @UHF iter   8:  -472.41565600995642   -1.09917e-03   1.03444e-04 DIIS
   @UHF iter   9:  -472.41603365374692   -3.77644e-04   5.03799e-05 DIIS
   @UHF iter  10:  -472.41607476703905   -4.11133e-05   1.67193e-05 DIIS
   @UHF iter  11:  -472.41607745488824   -2.68785e-06   3.81850e-06 DIIS
   @UHF iter  12:  -472.41607768942436   -2.34536e-07   1.82017e-06 DIIS
   @UHF iter  13:  -472.41607776231325   -7.28889e-08   7.33824e-07 DIIS
   @UHF iter  14:  -472.41607777430113   -1.19879e-08   3.15940e-07 DIIS
   @UHF iter  15:  -472.41607777786470   -3.56357e-09   2.56150e-07 DIIS
   @UHF iter  16:  -472.41607778131390   -3.44920e-09   2.19590e-07 DIIS
   @UHF iter  17:  -472.41607778825687   -6.94297e-09   1.05286e-07 DIIS
   @UHF iter  18:  -472.41607778995706   -1.70019e-09   1.90210e-08 DIIS
   @UHF iter  19:  -472.41607778997331   -1.62572e-11   5.07296e-09 DIIS
  Energy and wave function converged.


  ==> Post-Iterations <==

   @Spin Contamination Metric:   6.249659431E-02
   @S^2 Expected:                2.000000000E+00
   @S^2 Observed:                2.062496594E+00
   @S   Expected:                1.000000000E+00
   @S   Observed:                1.000000000E+00

    Orbital Energies [Eh]
    ---------------------

    Alpha Occupied:                                                       

       1A1   -92.068919     2A1   -20.656118     3A1    -9.063358  
       1B2    -6.752513     1B1    -6.752513     4A1    -6.738008  
       5A1    -1.450155     6A1    -0.956065     2B1    -0.675511  
       2B2    -0.675511     7A1    -0.640172     3B1    -0.434195  
       3B2    -0.434195  

    Alpha Virtual:                                                        

       8A1     0.056410     9A1     0.061987     4B1     0.073459  
       4B2     0.073459    10A1     0.143853     5B1     0.163985  
       5B2     0.163985    11A1     0.166693    12A1     0.187347  
       1A2     0.187347     6B1     0.260799     6B2     0.260799  
      13A1     0.279042    14A1     0.293735     7B2     0.367424  
       7B1     0.367424    15A1     0.418068    16A1     0.465825  
       2A2     0.465825    17A1     0.506910    18A1     0.518116  
       3A2     0.518116     8B2     0.527276     8B1     0.527276  
       9B1     0.540515     9B2     0.540515    10B1     0.630566  
      10B2     0.630566    19A1     0.637085    11B1     0.670710  
      11B2     0.670710    20A1     0.682101     4A2     0.682101  
      21A1     0.744047    22A1     0.790335    12B1     0.944101  
      12B2     0.944101    23A1     1.067889    24A1     1.197976  
      25A1     1.254646     5A2     1.254646    13B2     1.304537  
      13B1     1.304537    26A1     1.309348    14B2     1.333348  
      14B1     1.333348    27A1     1.363417     6A2     1.363417  
      28A1     1.440409     7A2     1.440409    15B2     1.456028  
      15B1     1.456028    16B1     1.469910    16B2     1.469910  
      29A1     1.563478     8A2     1.563478    17B2     1.563717  
      17B1     1.563717    30A1     1.603493    18B1     1.648110  
      18B2     1.648110    31A1     1.660530    32A1     1.663686  
       9A2     1.663686    19B2     1.676436    19B1     1.676436  
      33A1     1.899578    20B1     2.050161    20B2     2.050161  
      34A1     2.156287    35A1     2.173384    10A2     2.173384  
      21B1     2.332054    21B2     2.332054    36A1     2.363921  
      37A1     2.703227    22B1     2.961232    22B2     2.961232  
      38A1     3.014012    11A2     3.014012    39A1     3.218440  
      23B1     3.444943    23B2     3.444943    12A2     3.467958  
      40A1     3.467958    41A1     3.507678    24B2     3.531279  
      24B1     3.531279    25B1     3.614947    25B2     3.614947  
      26B1     3.617148    26B2     3.617148    42A1     3.671786  
      13A2     3.671786    43A1     3.771255    14A2     3.771255  
      44A1     3.779135    15A2     3.779135    45A1     3.966961  
      27B1     4.028535    27B2     4.028535    28B1     4.050011  
      28B2     4.050011    29B1     4.173924    29B2     4.173924  
      46A1     4.179676    16A2     4.280005    47A1     4.280005  
      30B1     4.455194    30B2     4.455194    48A1     4.491038  
      17A2     4.627331    49A1     4.627331    50A1     4.706273  
      18A2     4.919024    51A1     4.919024    31B1     5.000760  
      31B2     5.000760    52A1     5.367389    32B1     5.429965  
      32B2     5.429965    53A1     6.029577    33B2     6.335390  
      33B1     6.335390    54A1     7.765875    55A1     9.211162  
      19A2     9.211162    34B2     9.392528    34B1     9.392528  
      56A1     9.734699    20A2    10.603782    57A1    10.603782  
      35B1    10.703168    35B2    10.703168    36B1    10.874787  
      36B2    10.874787    21A2    10.913821    58A1    10.913821  
      37B1    10.959461    37B2    10.959461    59A1    11.041157  
      60A1    11.761470    38B2    11.856217    38B1    11.856217  
      22A2    12.003600    61A1    12.003600    39B1    12.423850  
      39B2    12.423850    23A2    12.797279    62A1    12.797279  
      63A1    12.820580    40B1    13.247554    40B2    13.247554  
      64A1    13.660484    65A1    20.696052    66A1    42.654173  

    Beta Occupied:                                                        

       1A1   -92.056551     2A1   -20.612699     3A1    -9.049853  
       4A1    -6.734859     1B1    -6.719559     1B2    -6.719559  
       5A1    -1.342908     6A1    -0.805835     7A1    -0.571923  
       2B2    -0.491217     2B1    -0.491217  

    Beta Virtual:                                                         

       3B2     0.026219     3B1     0.026219     8A1     0.061529  
       9A1     0.062583     4B1     0.087244     4B2     0.087244  
      10A1     0.149639     5B2     0.170521     5B1     0.170521  
      11A1     0.179487     1A2     0.201327    12A1     0.201327  
       6B2     0.277787     6B1     0.277787    13A1     0.282376  
      14A1     0.310148     7B1     0.389243     7B2     0.389243  
      15A1     0.429758    16A1     0.498831     2A2     0.498831  
      17A1     0.504535     8B2     0.548177     8B1     0.548177  
       3A2     0.551316    18A1     0.551316     9B1     0.553366  
       9B2     0.553366    19A1     0.645172    10B2     0.664806  
      10B1     0.664806     4A2     0.689299    20A1     0.689299  
      11B2     0.696893    11B1     0.696894    21A1     0.762695  
      22A1     0.807014    12B2     0.958910    12B1     0.958910  
      23A1     1.087768    24A1     1.201018     5A2     1.303308  
      25A1     1.303308    26A1     1.328787    13B1     1.332618  
      13B2     1.332618    14B1     1.343868    14B2     1.343868  
      27A1     1.385458     6A2     1.385458     7A2     1.454529  
      28A1     1.454529    15B2     1.478386    15B1     1.478386  
      16B1     1.513067    16B2     1.513067    17B2     1.579537  
      17B1     1.579537     8A2     1.585405    29A1     1.585405  
      30A1     1.612977    31A1     1.670439    18B2     1.673259  
      18B1     1.673259     9A2     1.673830    32A1     1.673830  
      19B2     1.684030    19B1     1.684030    33A1     1.915812  
      20B2     2.068098    20B1     2.068098    34A1     2.168584  
      10A2     2.197633    35A1     2.197633    21B2     2.367317  
      21B1     2.367317    36A1     2.389036    37A1     2.719127  
      22B2     2.989537    22B1     2.989537    11A2     3.038627  
      38A1     3.038627    39A1     3.229129    12A2     3.479098  
      40A1     3.479098    23B2     3.482936    23B1     3.482936  
      41A1     3.525764    24B1     3.548440    24B2     3.548440  
      25B1     3.624616    25B2     3.624616    26B1     3.664903  
      26B2     3.664903    13A2     3.676435    42A1     3.676435  
      14A2     3.798691    43A1     3.798691    44A1     3.816685  
      15A2     3.816685    45A1     3.986587    27B2     4.043127  
      27B1     4.043127    28B1     4.064894    28B2     4.064894  
      46A1     4.201633    29B2     4.202084    29B1     4.202084  
      16A2     4.312682    47A1     4.312682    30B2     4.468401  
      30B1     4.468401    48A1     4.500190    17A2     4.678303  
      49A1     4.678303    50A1     4.732480    18A2     4.941985  
      51A1     4.941985    31B2     5.032265    31B1     5.032265  
      52A1     5.381294    32B2     5.462071    32B1     5.462071  
      53A1     6.053166    33B2     6.360202    33B1     6.360202  
      54A1     7.779424    19A2     9.227970    55A1     9.227970  
      34B2     9.401628    34B1     9.401628    56A1     9.744063  
      20A2    10.635082    57A1    10.635082    35B1    10.726996  
      35B2    10.726996    36B2    10.899495    36B1    10.899495  
      21A2    10.932785    58A1    10.932785    37B2    11.008214  
      37B1    11.008214    59A1    11.056315    60A1    11.792513  
      38B2    11.912593    38B1    11.912593    22A2    12.044347  
      61A1    12.044347    39B2    12.454254    39B1    12.454254  
      62A1    12.837741    23A2    12.866647    63A1    12.866647  
      40B2    13.288940    40B1    13.288940    64A1    13.689062  
      65A1    20.709205    66A1    42.680268  

    Final Occupation by Irrep:
             A1    A2    B1    B2 
    DOCC [     7,    0,    2,    2 ]
    SOCC [     0,    0,    1,    1 ]

  @UHF Final Energy:  -472.41607778997331

   => Energetics <=

    Nuclear Repulsion Energy =             44.8742502630666706
    One-Electron Energy =                -741.6872447723617370
    Two-Electron Energy =                 224.3969167193217515
    Total Energy =                       -472.4160777899733148

  UHF NO Occupations:
  HONO-2 :    2 B1 1.9885723
  HONO-1 :    3 B2 1.0000000
  HONO-0 :    3 B1 1.0000000
  LUNO+0 :    4 B1 0.0114277
  LUNO+1 :    4 B2 0.0114277
  LUNO+2 :    8 A1 0.0069114
  LUNO+3 :    9 A1 0.0012128


Computation Completed


Properties will be evaluated at   0.000000,   0.000000,   0.000000 [a0]

Properties computed using the SCF density matrix

  Nuclear Dipole Moment: [e a0]
     X:     0.0000      Y:     0.0000      Z:    -0.0084

  Electronic Dipole Moment: [e a0]
     X:     0.0000      Y:     0.0000      Z:    -0.7555

  Dipole Moment: [e a0]
     X:     0.0000      Y:     0.0000      Z:    -0.7640     Total:     0.7640

  Dipole Moment: [D]
     X:     0.0000      Y:     0.0000      Z:    -1.9419     Total:     1.9419


*** tstop() called on l43 at Wed Jan 20 21:51:09 2021
Module time:
	user time   =      42.68 seconds =       0.71 minutes
	system time =       6.96 seconds =       0.12 minutes
	total time  =         40 seconds =       0.67 minutes
Total time:
	user time   =      42.68 seconds =       0.71 minutes
	system time =       6.96 seconds =       0.12 minutes
	total time  =         40 seconds =       0.67 minutes

*** tstart() called on l43
*** at Wed Jan 20 21:51:09 2021


	Wfn Parameters:
	--------------------
	Wavefunction         = CCSD_T
	Number of irreps     = 4
	Number of MOs        = 169
	Number of active MOs = 163
	AO-Basis             = NONE
	Semicanonical        = false
	Reference            = UHF
	Print Level          = 1

	IRREP	# MOs	# FZDC	# DOCC	# SOCC	# VIRT	# FZVR
	-----	-----	------	------	------	------	------
	 A1	   66	    4	    3	    0	    59	    0
	 A2	   23	    0	    0	    0	    23	    0
	 B1	   40	    1	    1	    1	    37	    0
	 B2	   40	    1	    1	    1	    37	    0
	Transforming integrals...
	IWL integrals will be deleted.
	(OO|OO)...
	Presorting SO-basis two-electron integrals.
	Sorting File: SO Ints (nn|nn) nbuckets = 1
	Constructing frozen core operators
	Starting AA/AB first half-transformation.
	Sorting AA/AB half-transformed integrals.
	Starting BB first half-transformation.
	Sorting BB half-transformed integrals.
	First half integral transformation complete.
	Starting AA second half-transformation.
	Starting AB second half-transformation.
	Starting BB second half-transformation.
	Two-electron integral transformation complete.
	(OO|OV)...
	Starting AA second half-transformation.
	Starting AB second half-transformation.
	Starting BB second half-transformation.
	Two-electron integral transformation complete.
	(OO|VV)...
	Starting AA second half-transformation.
	Starting AB second half-transformation.
	Starting BB second half-transformation.
	Two-electron integral transformation complete.
	(OV|OO)...
	Starting AA/AB first half-transformation.
	Sorting AA/AB half-transformed integrals.
	Starting BB first half-transformation.
	Sorting BB half-transformed integrals.
	First half integral transformation complete.
	Starting AA second half-transformation.
	Starting AB second half-transformation.
	Starting BB second half-transformation.
	Two-electron integral transformation complete.
	(OV|OV)...
	Starting AA second half-transformation.
	Starting AB second half-transformation.
	Starting BB second half-transformation.
	Two-electron integral transformation complete.
	(OV|VV)...
	Starting AA second half-transformation.
	Starting AB second half-transformation.
	Starting BB second half-transformation.
	Two-electron integral transformation complete.
	(VV|OO)...
	Starting AA/AB first half-transformation.
	Sorting AA/AB half-transformed integrals.
	Starting BB first half-transformation.
	Sorting BB half-transformed integrals.
	First half integral transformation complete.
	Starting AA second half-transformation.
	Starting AB second half-transformation.
	Starting BB second half-transformation.
	Two-electron integral transformation complete.
	(VV|OV)...
	Starting AA second half-transformation.
	Starting AB second half-transformation.
	Starting BB second half-transformation.
	Two-electron integral transformation complete.
	(VV|VV)...
	Starting AA second half-transformation.
	Starting AB second half-transformation.
	Starting BB second half-transformation.
	Two-electron integral transformation complete.
	Frozen core energy     =   -478.91618678133079

	Size of irrep 0 of <AB|CD> integrals:     10.864 (MW) /     86.909 (MB)
	Size of irrep 1 of <AB|CD> integrals:      7.431 (MW) /     59.449 (MB)
	Size of irrep 2 of <AB|CD> integrals:      9.205 (MW) /     73.641 (MB)
	Size of irrep 3 of <AB|CD> integrals:      9.205 (MW) /     73.641 (MB)
	Total:                                    36.705 (MW) /    293.640 (MB)

	Size of irrep 0 of <ab|cd> integrals:     11.357 (MW) /     90.855 (MB)
	Size of irrep 1 of <ab|cd> integrals:      7.846 (MW) /     62.765 (MB)
	Size of irrep 2 of <ab|cd> integrals:      9.709 (MW) /     77.676 (MB)
	Size of irrep 3 of <ab|cd> integrals:      9.709 (MW) /     77.676 (MB)
	Total:                                    38.621 (MW) /    308.971 (MB)

	Size of irrep 0 of <Ab|Cd> integrals:     46.540 (MW) /    372.317 (MB)
	Size of irrep 1 of <Ab|Cd> integrals:     30.537 (MW) /    244.293 (MB)
	Size of irrep 2 of <Ab|Cd> integrals:     37.822 (MW) /    302.580 (MB)
	Size of irrep 3 of <Ab|Cd> integrals:     37.822 (MW) /    302.580 (MB)
	Total:                                   152.721 (MW) /   1221.771 (MB)

	Size of irrep 0 of <IA|BC> integrals:      2.193 (MW) /     17.545 (MB)
	Size of irrep 1 of <IA|BC> integrals:      1.183 (MW) /      9.465 (MB)
	Size of irrep 2 of <IA|BC> integrals:      1.669 (MW) /     13.350 (MB)
	Size of irrep 3 of <IA|BC> integrals:      1.669 (MW) /     13.350 (MB)
	Total:                                     6.714 (MW) /     53.709 (MB)

	Size of irrep 0 of <ia|bc> integrals:      1.745 (MW) /     13.962 (MB)
	Size of irrep 1 of <ia|bc> integrals:      0.812 (MW) /      6.498 (MB)
	Size of irrep 2 of <ia|bc> integrals:      1.221 (MW) /      9.772 (MB)
	Size of irrep 3 of <ia|bc> integrals:      1.221 (MW) /      9.772 (MB)
	Total:                                     5.000 (MW) /     40.003 (MB)

	Size of irrep 0 of <Ia|Bc> integrals:      2.244 (MW) /     17.956 (MB)
	Size of irrep 1 of <Ia|Bc> integrals:      1.221 (MW) /      9.770 (MB)
	Size of irrep 2 of <Ia|Bc> integrals:      1.710 (MW) /     13.678 (MB)
	Size of irrep 3 of <Ia|Bc> integrals:      1.710 (MW) /     13.678 (MB)
	Total:                                     6.885 (MW) /     55.081 (MB)

	Size of irrep 0 of <iA|bC> integrals:      1.712 (MW) /     13.699 (MB)
	Size of irrep 1 of <iA|bC> integrals:      0.790 (MW) /      6.322 (MB)
	Size of irrep 2 of <iA|bC> integrals:      1.187 (MW) /      9.496 (MB)
	Size of irrep 3 of <iA|bC> integrals:      1.187 (MW) /      9.496 (MB)
	Total:                                     4.876 (MW) /     39.012 (MB)

	Size of irrep 0 of tIjAb amplitudes:       0.089 (MW) /      0.709 (MB)
	Size of irrep 1 of tIjAb amplitudes:       0.022 (MW) /      0.177 (MB)
	Size of irrep 2 of tIjAb amplitudes:       0.055 (MW) /      0.443 (MB)
	Size of irrep 3 of tIjAb amplitudes:       0.055 (MW) /      0.443 (MB)
	Total:                                     0.221 (MW) /      1.772 (MB)

	Nuclear Rep. energy          =     44.87425026306667
	SCF energy                   =   -472.41607778997331
	One-electron energy          =    -67.77937934223520
	Two-electron (AA) energy     =      8.45622887396258
	Two-electron (BB) energy     =      4.13950417922408
	Two-electron (AB) energy     =     16.80950501733673
	Two-electron energy          =     29.40523807052339
	Reference energy             =   -472.41607778997593

*** tstop() called on l43 at Wed Jan 20 21:51:43 2021
Module time:
	user time   =      22.82 seconds =       0.38 minutes
	system time =      11.22 seconds =       0.19 minutes
	total time  =         34 seconds =       0.57 minutes
Total time:
	user time   =      65.50 seconds =       1.09 minutes
	system time =      18.18 seconds =       0.30 minutes
	total time  =         74 seconds =       1.23 minutes
            **************************
            *                        *
            *        CCENERGY        *
            *                        *
            **************************

    Nuclear Rep. energy (wfn)     =   44.874250263066671
    SCF energy          (wfn)     = -472.416077789973315
    Reference energy    (file100) = -472.416077789975930

    Input parameters:
    -----------------
    Wave function   =     CCSD_T
    Reference wfn   =     UHF
    Brueckner       =     No
    Memory (Mbytes) =     250000.0
    Maxiter         =     50
    R_Convergence   =     1.0e-07
    E_Convergence   =     1.0e-06
    Restart         =     Yes
    DIIS            =     Yes
    AO Basis        =     NONE
    ABCD            =     NEW
    Cache Level     =     2
    Cache Type      =     LRU
    Print Level     =     1
    Num. of threads =     48
    # Amps to Print =     10
    Print MP2 Amps? =     No
    Analyze T2 Amps =     No
    Print Pair Ener =     No
    Local CC        =     No
    SCS-MP2         =     False
    SCSN-MP2        =     False
    SCS-CCSD        =     False

MP2 correlation energy -0.4130044047510118
                Solving CC Amplitude Equations
                ------------------------------
  Iter             Energy              RMS        T1Diag      D1Diag    New D1Diag    D2Diag
  ----     ---------------------    ---------   ----------  ----------  ----------   --------
     0        -0.413004404751012    0.000e+00    0.000000    0.000000    0.000000    0.000000
     1        -0.403671378147074    9.785e-02    0.021901    0.000000    0.000000    0.000000
     2        -0.417879165324488    3.301e-02    0.022706    0.000000    0.000000    0.000000
     3        -0.421473839779180    1.702e-02    0.028227    0.000000    0.000000    0.000000
     4        -0.421271955996561    4.709e-03    0.029516    0.000000    0.000000    0.000000
     5        -0.421256743493504    1.915e-03    0.030124    0.000000    0.000000    0.000000
     6        -0.421258464939576    6.440e-04    0.030206    0.000000    0.000000    0.000000
     7        -0.421259216956200    2.696e-04    0.030212    0.000000    0.000000    0.000000
     8        -0.421264246266528    9.722e-05    0.030215    0.000000    0.000000    0.000000
     9        -0.421264805255587    3.424e-05    0.030214    0.000000    0.000000    0.000000
    10        -0.421263674502818    1.528e-05    0.030214    0.000000    0.000000    0.000000
    11        -0.421264043988585    7.267e-06    0.030214    0.000000    0.000000    0.000000
    12        -0.421263754102600    2.897e-06    0.030214    0.000000    0.000000    0.000000
    13        -0.421263897254265    1.471e-06    0.030214    0.000000    0.000000    0.000000
    14        -0.421263933858202    3.965e-07    0.030214    0.000000    0.000000    0.000000
    15        -0.421263929166975    1.321e-07    0.030214    0.000000    0.000000    0.000000
    16        -0.421263931159863    5.298e-08    0.030214    0.000000    0.000000    0.000000

    Iterations converged.


    Largest TIA Amplitudes:
              2   2         0.0231733514
              3  88        -0.0207684781
              5 125        -0.0207684753
              5 121        -0.0202197425
              3  84        -0.0202197423
              2   3         0.0185973461
              2   7        -0.0170691972
              5 123         0.0166626957
              3  86         0.0166626943
              3  83         0.0145596478

    Largest Tia Amplitudes:
              3  90         0.0225724855
              4 128         0.0225724718
              1   3        -0.0199588254
              1   6         0.0156421917
              4 121         0.0148830276
              3  83         0.0148829992
              4 124        -0.0147420045
              3  86        -0.0147419994
              4 120        -0.0145719824
              3  82        -0.0145719111

    Largest TIJAB Amplitudes:
      6   4  60   8        -0.0215257889
      6   4  59   8        -0.0143194341
      6   4  60   4        -0.0143194341
      5   4  60   8         0.0110518773
      6   3  60   8         0.0110518748
      6   4  59   4        -0.0109115727
      6   4 123  86        -0.0106872815
      4   2  86   2        -0.0105007813
      6   2 123   2        -0.0105007809
      4   2  86   7         0.0099937260

    Largest Tijab Amplitudes:
      4   3 120  82        -0.0565758226
      4   3 121  82         0.0250972607
      4   3 120  83         0.0250972592
      3   2  82   3        -0.0200515021
      4   2 120   3        -0.0200515002
      3   2  82   7         0.0197705766
      4   2 120   7         0.0197705751
      3   2  82   6         0.0173905546
      4   2 120   6         0.0173905535
      4   3 120  85        -0.0167711409

    Largest TIjAb Amplitudes:
      5   4 125 120        -0.0201358113
      3   3  88  82        -0.0201358113
      2   3   2  82         0.0196748531
      2   4   2 120         0.0196748511
      2   2   7   7         0.0195940293
      4   3  88  82        -0.0193229442
      6   4 125 120        -0.0193229429
      4   1  60 120        -0.0188321005
      6   1   8 120         0.0188320998
      4   1   8  82        -0.0188320994

    SCF energy       (wfn)                    = -472.416077789973315
    Reference energy (file100)                = -472.416077789975930

    Opposite-spin MP2 correlation energy      =   -0.303301338797455
    Same-spin MP2 correlation energy          =   -0.109703065953557
    Singles MP2 correlation energy            =   -0.000000000000000
    MP2 correlation energy                    =   -0.413004404751012
      * MP2 total energy                      = -472.829082194726936

    Opposite-spin CCSD correlation energy     =   -0.322064117314127
    Same-spin CCSD correlation energy         =   -0.099199813845735
    Singles CCSD correlation energy           =   -0.000000000000001
    CCSD correlation energy                   =   -0.421263931159863
      * CCSD total energy                     = -472.837341721135772

            **************************
            *                        *
            *        CCTRIPLES       *
            *                        *
            **************************


    Wave function   =    CCSD_T
    Reference wfn   =      UHF

    Nuclear Rep. energy (wfn)                =   44.874250263066671
    SCF energy          (wfn)                = -472.416077789973315
    Reference energy    (file100)            = -472.416077789975930
    CCSD energy         (file100)            =   -0.421263931159863
    Total CCSD energy   (file100)            = -472.837341721135772

    Number of ijk index combinations:
    Spin Case AAA:                                  35
    Spin Case BBB:                                  10
    Spin Case AAB:                                 105
    Spin Case ABB:                                  70
    AAA (T) energy                             =   -0.000489588661177
    BBB (T) energy                             =   -0.000839375784291
    AAB (T) energy                             =   -0.010196659087845
    ABB (T) energy                             =   -0.010614126751941
    (T) energy                                   =   -0.022139750285253
      * CCSD(T) total energy                     = -472.859481471421020


    Psi4 stopped on: Wednesday, 20 January 2021 09:52PM
    Psi4 wall time for execution: 0:02:26.59

*** Psi4 exiting successfully. Buy a developer a beer!
