
    -----------------------------------------------------------------------
          Psi4: An Open-Source Ab Initio Electronic Structure Package
                               Psi4 1.2a1.dev939 

                         Git: Rev {HEAD} fa1ec19 


    R. M. Parrish, L. A. Burns, D. G. A. Smith, A. C. Simmonett,
    A. E. DePrince III, E. G. Hohenstein, U. Bozkaya, A. Yu. Sokolov,
    R. Di Remigio, R. M. Richard, J. F. Gonthier, A. M. James,
    H. R. McAlexander, A. Kumar, M. Saitow, X. Wang, B. P. Pritchard,
    P. Verma, H. F. Schaefer III, K. Patkowski, R. A. King, E. F. Valeev,
    F. A. Evangelista, J. M. Turney, T. D. Crawford, and C. D. Sherrill,
    J. Chem. Theory Comput. 13(7) pp 3185--3197 (2017).
    (doi: 10.1021/acs.jctc.7b00174)

    -----------------------------------------------------------------------


    Psi4 started on: Tuesday, 04 August 2020 05:30PM

    Process ID:  14107
    PSIDATADIR: /home/grueneis/src/psi4/objdir/stage/usr/local/psi4/share/psi4
    Memory:     500.0 MiB
    Threads:    1
    
  ==> Input File <==

--------------------------------------------------------------------------
# Any line starting with the # character is a comment line

memory 32000 mb

molecule molecule {
0 1
F          0.0000000000        0.0000000000       -0.7006833392
F          0.0000000000        0.0000000000        0.7006833392
}

set {
  reference rhf


  basis aug-cc-pv(6+d)z
  scf_type OUT_OF_CORE
  freeze_core true
}

energy('ccsd')
--------------------------------------------------------------------------

  Memory set to  29.802 GiB by Python driver.

*** tstart() called on cqc05
*** at Tue Aug  4 17:30:24 2020

   => Loading Basis Set <=

    Name: AUG-CC-PV(6+D)Z
    Role: ORBITAL
    Keyword: BASIS
    atoms 1-2 entry F          line   555 file /home/grueneis/src/psi4/objdir/stage/usr/local/psi4/share/psi4/basis/aug-cc-pv_6pd_z.gbs 


         ---------------------------------------------------------
                                   SCF
            by Justin Turney, Rob Parrish, Andy Simmonett
                             and Daniel Smith
                              RHF Reference
                        1 Threads,  30517 MiB Core
         ---------------------------------------------------------

  ==> Geometry <==

    Molecular point group: d2h
    Full point group: D_inf_h

    Geometry (in Angstrom), charge = 0, multiplicity = 1:

       Center              X                  Y                   Z               Mass       
    ------------   -----------------  -----------------  -----------------  -----------------
           F          0.000000000000     0.000000000000    -0.700683339200    18.998403224000
           F          0.000000000000     0.000000000000     0.700683339200    18.998403224000

  Running in d2h symmetry.

  Rotational constants: A = ************  B =      0.90366  C =      0.90366 [cm^-1]
  Rotational constants: A = ************  B =  27091.09239  C =  27091.09239 [MHz]
  Nuclear repulsion =   30.586822532935425

  Charge       = 0
  Multiplicity = 1
  Electrons    = 18
  Nalpha       = 9
  Nbeta        = 9

  ==> Algorithm <==

  SCF Algorithm Type is OUT_OF_CORE.
  DIIS enabled.
  MOM disabled.
  Fractional occupation disabled.
  Guess Type is SAD.
  Energy threshold   = 1.00e-08
  Density threshold  = 1.00e-08
  Integral threshold = 0.00e+00

  ==> Primary Basis <==

  Basis Set: AUG-CC-PV(6+D)Z
    Blend: AUG-CC-PV(6+D)Z
    Number of shells: 70
    Number of basis function: 378
    Number of Cartesian functions: 588
    Spherical Harmonics?: true
    Max angular momentum: 6

  ==> Pre-Iterations <==

   -------------------------------------------------------
    Irrep   Nso     Nmo     Nalpha   Nbeta   Ndocc  Nsocc
   -------------------------------------------------------
     Ag        66      66       0       0       0       0
     B1g       31      31       0       0       0       0
     B2g       46      46       0       0       0       0
     B3g       46      46       0       0       0       0
     Au        31      31       0       0       0       0
     B1u       66      66       0       0       0       0
     B2u       46      46       0       0       0       0
     B3u       46      46       0       0       0       0
   -------------------------------------------------------
    Total     378     378       9       9       9       0
   -------------------------------------------------------

  ==> Integral Setup <==

  ==> DiskJK: Disk-Based J/K Matrices <==

    J tasked:                  Yes
    K tasked:                  Yes
    wK tasked:                  No
    Memory (MB):             22888
    Schwarz Cutoff:          1E-12

  Minimum eigenvalue in the overlap matrix is 1.2724275884E-05.
  Using Symmetric Orthogonalization.

  SCF Guess: Superposition of Atomic Densities via on-the-fly atomic UHF.

  ==> Iterations <==

                        Total Energy        Delta E     RMS |[F,P]|

   @RHF iter   0:  -198.58821923848296   -1.98588e+02   5.51052e-03 
   @RHF iter   1:  -198.76888419715121   -1.80665e-01   1.06802e-03 
   @RHF iter   2:  -198.77423448033798   -5.35028e-03   2.70072e-04 DIIS
   @RHF iter   3:  -198.77469785753433   -4.63377e-04   8.81378e-05 DIIS
   @RHF iter   4:  -198.77474964225888   -5.17847e-05   1.90618e-05 DIIS
   @RHF iter   5:  -198.77475168449038   -2.04223e-06   3.62550e-06 DIIS
   @RHF iter   6:  -198.77475179256305   -1.08073e-07   2.81903e-07 DIIS
   @RHF iter   7:  -198.77475179369634   -1.13329e-09   3.31496e-08 DIIS
   @RHF iter   8:  -198.77475179371271   -1.63709e-11   3.80155e-09 DIIS

  ==> Post-Iterations <==

    Orbital Energies (a.u.)
    -----------------------

    Doubly Occupied:                                                      

       1Ag   -26.427061     1B1u  -26.426808     2Ag    -1.769938  
       2B1u   -1.494614     1B3u   -0.813635     1B2u   -0.813635  
       3Ag    -0.755836     1B2g   -0.664860     1B3g   -0.664860  

    Virtual:                                                              

       3B1u    0.056310     4Ag     0.105920     2B3u    0.106252  
       2B2u    0.106252     4B1u    0.116051     2B2g    0.145784  
       2B3g    0.145784     5Ag     0.164679     5B1u    0.260634  
       6Ag     0.419514     1B1g    0.419514     3B3u    0.439658  
       3B2u    0.439658     7Ag     0.480375     3B2g    0.500251  
       3B3g    0.500251     6B1u    0.514405     8Ag     0.537736  
       4B3u    0.551486     4B2u    0.551486     7B1u    0.556766  
       1Au     0.556766     8B1u    0.599624     4B2g    0.632982  
       4B3g    0.632982     9Ag     0.818180     5B2u    1.023243  
       5B3u    1.023243    10Ag     1.158207     2B1g    1.158207  
       9B1u    1.212711     5B2g    1.247919     5B3g    1.247919  
       6B3u    1.266602     6B2u    1.266602    11Ag     1.302592  
       6B2g    1.325051     6B3g    1.325051    12Ag     1.326960  
       3B1g    1.326960     2Au     1.332172    10B1u    1.332172  
      11B1u    1.348239    13Ag     1.368742     7B3u    1.369569  
       7B2u    1.369569     7B2g    1.428920     7B3g    1.428920  
       8B3u    1.497982     8B2u    1.497982    12B1u    1.568030  
       3Au     1.655719    13B1u    1.655719    14Ag     2.152020  
       8B2g    2.271046     8B3g    2.271046    14B1u    2.327582  
       4B1g    2.466588    15Ag     2.466588     9B3u    2.552575  
       9B2u    2.552575    16Ag     2.554294     4Au     2.772621  
      15B1u    2.772621    17Ag     2.846378     5B1g    2.846378  
      10B3u    2.864669    10B2u    2.864669    11B2u    3.021086  
      11B3u    3.021086    16B1u    3.042289     5Au     3.042289  
       9B2g    3.045122     9B3g    3.045122    17B1u    3.068855  
      18Ag     3.076263    12B3u    3.095529    12B2u    3.095529  
      10B3g    3.109354    10B2g    3.109354    19Ag     3.158711  
       6B1g    3.158711    20Ag     3.175505    11B3g    3.322618  
      11B2g    3.322618    21Ag     3.351248     7B1g    3.351248  
      18B1u    3.449713     6Au     3.449713    19B1u    3.553551  
      12B2g    3.617222    12B3g    3.617222    13B3u    3.628709  
      13B2u    3.628709    22Ag     3.711723    13B2g    3.818635  
      13B3g    3.818635    20B1u    3.833443    21B1u    4.234286  
       7Au     4.234286    22B1u    4.257768    14B3u    4.376273  
      14B2u    4.376273    23Ag     4.925803    14B2g    5.256826  
      14B3g    5.256826     8B1g    5.475145    24Ag     5.475145  
      15B2u    5.667898    15B3u    5.667898    16B2u    5.757668  
      16B3u    5.757668    15B3g    5.899516    15B2g    5.899516  
      23B1u    6.173675    25Ag     6.185327     9B1g    6.185327  
      17B3u    6.342167    17B2u    6.342167     8Au     6.385659  
      24B1u    6.385659    26Ag     6.386103    27Ag     6.762041  
      10B1g    6.762041    25B1u    6.779417     9Au     6.779417  
      18B2u    6.779601    18B3u    6.779601    19B3u    6.858249  
      19B2u    6.858249    26B1u    6.885627    16B2g    6.906555  
      16B3g    6.906555    27B1u    6.923035    10Au     6.923035  
      17B3g    6.996200    17B2g    6.996200    28Ag     7.083967  
      11B1g    7.083967    29Ag     7.137362    20B2u    7.269777  
      20B3u    7.269777    18B2g    7.289769    18B3g    7.289769  
      30Ag     7.495783    19B2g    7.499799    19B3g    7.499799  
      31Ag     7.520996    12B1g    7.520996    11Au     7.620340  
      28B1u    7.620340    20B2g    7.622698    20B3g    7.622698  
      32Ag     7.796449    13B1g    7.796449    21B3u    7.840332  
      21B2u    7.840332    29B1u    7.873328    12Au     7.873328  
      30B1u    7.945091    33Ag     8.216956    21B2g    8.284375  
      21B3g    8.284375    31B1u    8.368330    32B1u    9.027859  
      13Au     9.302023    33B1u    9.302023    22B3u    9.305687  
      22B2u    9.305687    34Ag     9.340724    22B2g    9.343268  
      22B3g    9.343268    23B3u    9.537202    23B2u    9.537202  
      34B1u   10.316503    35Ag    11.507387    14B1g   11.507387  
      36Ag    11.560023    24B2u   11.635110    24B3u   11.635110  
      23B3g   11.679412    23B2g   11.679412    25B3u   11.829626  
      25B2u   11.829626    37Ag    12.051757    15B1g   12.051757  
      35B1u   12.106076    14Au    12.106076    38Ag    12.209871  
      16B1g   12.209871    24B3g   12.309147    24B2g   12.309147  
      26B3u   12.674858    26B2u   12.674858    36B1u   13.018105  
      15Au    13.018105    39Ag    13.110116    37B1u   13.436783  
      17B1g   13.869558    40Ag    13.869558    27B3u   13.933501  
      27B2u   13.933501    25B3g   14.041051    25B2g   14.041051  
      26B2g   14.121161    26B3g   14.121161    28B2u   14.160410  
      28B3u   14.160410    27B3g   14.230971    27B2g   14.230971  
      38B1u   14.287688    16Au    14.287688    39B1u   14.409302  
      17Au    14.409302    29B3u   14.570036    29B2u   14.570036  
      41Ag    14.756282    28B2g   14.781225    28B3g   14.781225  
      40B1u   14.894793    42Ag    14.965247    18B1g   14.965247  
      18Au    15.193860    41B1u   15.193860    42B1u   15.447771  
      29B3g   15.553465    29B2g   15.553465    30B2u   16.325945  
      30B3u   16.325945    19B1g   16.359758    43Ag    16.359758  
      44Ag    16.447755    20B1g   16.447755    19Au    16.467020  
      43B1u   16.467020    31B2u   16.663197    31B3u   16.663197  
      30B2g   16.766422    30B3g   16.766422    31B3g   16.800046  
      31B2g   16.800046    32B2u   16.815449    32B3u   16.815449  
      32B3g   16.875670    32B2g   16.875670    45Ag    17.004693  
      21B1g   17.004693    46Ag    17.011149    20Au    17.236502  
      44B1u   17.236502    47Ag    17.276355    45B1u   17.522597  
      21Au    17.827254    46B1u   17.827254    33B2u   18.011474  
      33B3u   18.011474    48Ag    18.134103    22B1g   18.134103  
      33B3g   18.745582    33B2g   18.745582    47B1u   18.995230  
      22Au    19.397796    48B1u   19.397796    34B2u   19.511199  
      34B3u   19.511199    49Ag    20.499856    34B3g   21.875442  
      34B2g   21.875442    49B1u   22.654765    50Ag    26.204074  
      50B1u   27.150041    35B2u   27.845037    35B3u   27.845037  
      35B3g   28.923117    35B2g   28.923117    23B1g   29.052630  
      51Ag    29.052630    36B3u   29.160817    36B2u   29.160817  
      52Ag    29.282845    24B1g   29.282845    23Au    29.309144  
      51B1u   29.309144    37B2u   29.357665    37B3u   29.357665  
      36B3g   29.383555    36B2g   29.383555    53Ag    29.527032  
      52B1u   29.695215    24Au    29.695215    53B1u   29.786580  
      37B3g   29.943887    37B2g   29.943887    25B1g   30.203308  
      54Ag    30.203308    38B2g   30.209217    38B3g   30.209217  
      25Au    30.228975    54B1u   30.228975    38B2u   30.536985  
      38B3u   30.536985    55Ag    31.198657    55B1u   31.427133  
      26B1g   34.863921    56Ag    34.863921    39B2u   34.917315  
      39B3u   34.917315    40B2u   34.932428    40B3u   34.932428  
      39B3g   34.985688    39B2g   34.985688    41B2u   35.041576  
      41B3u   35.041576    56B1u   35.071131    26Au    35.071131  
      57Ag    35.085512    27B1g   35.085512    58Ag    35.200682  
      40B2g   35.307628    40B3g   35.307628    57B1u   35.646444  
      27Au    35.646444    58B1u   35.738782    41B3g   36.044469  
      41B2g   36.044469    42B2u   39.144746    42B3u   39.144746  
      28B1g   39.183167    59Ag    39.183167    42B2g   39.227109  
      42B3g   39.227109    43B2u   39.604426    43B3u   39.604426  
      59B1u   39.605232    28Au    39.605232    60Ag    39.862945  
      44B2u   40.150195    44B3u   40.150195    29B1g   40.190249  
      61Ag    40.190249    60B1u   40.253926    29Au    40.253926  
      30B1g   40.311127    62Ag    40.311127    43B3g   40.400099  
      43B2g   40.400099    44B3g   40.484096    44B2g   40.484096  
      61B1u   40.790475    63Ag    40.843547    30Au    41.060446  
      62B1u   41.060446    45B2u   41.256714    45B3u   41.256714  
      45B3g   41.383764    45B2g   41.383764    63B1u   42.788094  
      64Ag    43.915263    31B1g   43.915263    31Au    44.235988  
      64B1u   44.235988    46B2u   44.344916    46B3u   44.344916  
      46B3g   45.965158    46B2g   45.965158    65Ag    46.120364  
      65B1u   46.473671    66Ag   129.895144    66B1u  130.252150  

    Final Occupation by Irrep:
             Ag   B1g   B2g   B3g    Au   B1u   B2u   B3u 
    DOCC [     3,    0,    1,    1,    0,    2,    1,    1 ]

  Energy converged.

  @RHF Final Energy:  -198.77475179371271

   => Energetics <=

    Nuclear Repulsion Energy =             30.5868225329354253
    One-Electron Energy =                -339.0606570619846707
    Two-Electron Energy =                 109.6990827353365603
    PCM Polarization Energy =               0.0000000000000000
    Total Energy =                       -198.7747517937127100

    Alert: EFP and PCM quantities not currently incorporated into SCF psivars.

Properties will be evaluated at   0.000000,   0.000000,   0.000000 Bohr

Properties computed using the SCF density matrix

  Nuclear Dipole Moment: (a.u.)
     X:     0.0000      Y:     0.0000      Z:     0.0000

  Electronic Dipole Moment: (a.u.)
     X:     0.0000      Y:     0.0000      Z:     0.0000

  Dipole Moment: (a.u.)
     X:     0.0000      Y:     0.0000      Z:     0.0000     Total:     0.0000

  Dipole Moment: (Debye)
     X:     0.0000      Y:     0.0000      Z:     0.0000     Total:     0.0000


*** tstop() called on cqc05 at Tue Aug  4 17:38:41 2020
Module time:
	user time   =     486.08 seconds =       8.10 minutes
	system time =      10.93 seconds =       0.18 minutes
	total time  =        497 seconds =       8.28 minutes
Total time:
	user time   =     486.08 seconds =       8.10 minutes
	system time =      10.93 seconds =       0.18 minutes
	total time  =        497 seconds =       8.28 minutes

*** tstart() called on cqc05
*** at Tue Aug  4 17:38:41 2020


	Wfn Parameters:
	--------------------
	Wavefunction         = CCSD
	Number of irreps     = 8
	Number of MOs        = 378
	Number of active MOs = 376
	AO-Basis             = NONE
	Semicanonical        = false
	Reference            = RHF
	Print Level          = 1

	IRREP	# MOs	# FZDC	# DOCC	# SOCC	# VIRT	# FZVR
	-----	-----	------	------	------	------	------
	 Ag	   66	    1	    2	    0	    63	    0
	 B1g	   31	    0	    0	    0	    31	    0
	 B2g	   46	    0	    1	    0	    45	    0
	 B3g	   46	    0	    1	    0	    45	    0
	 Au	   31	    0	    0	    0	    31	    0
	 B1u	   66	    1	    1	    0	    64	    0
	 B2u	   46	    0	    1	    0	    45	    0
	 B3u	   46	    0	    1	    0	    45	    0
	Transforming integrals...
	IWL integrals will be deleted.
	(OO|OO)...
	Presorting SO-basis two-electron integrals.
	Sorting File: SO Ints (nn|nn) nbuckets = 1
	Transforming the one-electron integrals and constructing Fock matrices
	Starting first half-transformation.
	Sorting half-transformed integrals.
	First half integral transformation complete.
	Starting second half-transformation.
	Two-electron integral transformation complete.
	(OO|OV)...
	Starting second half-transformation.
	Two-electron integral transformation complete.
	(OO|VV)...
	Starting second half-transformation.
	Two-electron integral transformation complete.
	(OV|OO)...
	Starting first half-transformation.
	Sorting half-transformed integrals.
	First half integral transformation complete.
	Starting second half-transformation.
	Two-electron integral transformation complete.
	(OV|OV)...
	Starting second half-transformation.
	Two-electron integral transformation complete.
	(OV|VV)...
	Starting second half-transformation.
	Two-electron integral transformation complete.
	(VV|OO)...
	Starting first half-transformation.
	Sorting half-transformed integrals.
	First half integral transformation complete.
	Starting second half-transformation.
	Two-electron integral transformation complete.
	(VV|OV)...
	Starting second half-transformation.
	Two-electron integral transformation complete.
	(VV|VV)...
	Starting second half-transformation.
	Two-electron integral transformation complete.
	Frozen core energy     =   -163.04408527068395

	Size of irrep 0 of <ab|cd> integrals:    327.140 (MW) /   2617.117 (MB)
	Size of irrep 1 of <ab|cd> integrals:    255.169 (MW) /   2041.349 (MB)
	Size of irrep 2 of <ab|cd> integrals:    289.340 (MW) /   2314.721 (MB)
	Size of irrep 3 of <ab|cd> integrals:    289.340 (MW) /   2314.721 (MB)
	Size of irrep 4 of <ab|cd> integrals:    255.169 (MW) /   2041.349 (MB)
	Size of irrep 5 of <ab|cd> integrals:    327.103 (MW) /   2616.827 (MB)
	Size of irrep 6 of <ab|cd> integrals:    289.340 (MW) /   2314.721 (MB)
	Size of irrep 7 of <ab|cd> integrals:    289.340 (MW) /   2314.721 (MB)
	Total:                                  2321.941 (MW) /  18575.526 (MB)

	Size of irrep 0 of <ia|bc> integrals:      6.692 (MW) /     53.538 (MB)
	Size of irrep 1 of <ia|bc> integrals:      4.361 (MW) /     34.887 (MB)
	Size of irrep 2 of <ia|bc> integrals:      5.511 (MW) /     44.090 (MB)
	Size of irrep 3 of <ia|bc> integrals:      5.511 (MW) /     44.090 (MB)
	Size of irrep 4 of <ia|bc> integrals:      4.361 (MW) /     34.887 (MB)
	Size of irrep 5 of <ia|bc> integrals:      6.710 (MW) /     53.679 (MB)
	Size of irrep 6 of <ia|bc> integrals:      5.511 (MW) /     44.090 (MB)
	Size of irrep 7 of <ia|bc> integrals:      5.511 (MW) /     44.090 (MB)
	Total:                                    44.169 (MW) /    353.351 (MB)

	Size of irrep 0 of tijab amplitudes:       0.163 (MW) /      1.302 (MB)
	Size of irrep 1 of tijab amplitudes:       0.064 (MW) /      0.511 (MB)
	Size of irrep 2 of tijab amplitudes:       0.102 (MW) /      0.816 (MB)
	Size of irrep 3 of tijab amplitudes:       0.102 (MW) /      0.816 (MB)
	Size of irrep 4 of tijab amplitudes:       0.064 (MW) /      0.511 (MB)
	Size of irrep 5 of tijab amplitudes:       0.145 (MW) /      1.158 (MB)
	Size of irrep 6 of tijab amplitudes:       0.102 (MW) /      0.816 (MB)
	Size of irrep 7 of tijab amplitudes:       0.102 (MW) /      0.816 (MB)
	Total:                                     0.844 (MW) /      6.748 (MB)

	Nuclear Rep. energy          =     30.58682253293543
	SCF energy                   =   -198.77475179371271
	One-electron energy          =   -118.68022360098138
	Two-electron energy          =     52.36273454501703
	Reference energy             =   -198.77475179371288

*** tstop() called on cqc05 at Tue Aug  4 17:44:41 2020
Module time:
	user time   =     193.65 seconds =       3.23 minutes
	system time =      87.56 seconds =       1.46 minutes
	total time  =        360 seconds =       6.00 minutes
Total time:
	user time   =     679.73 seconds =      11.33 minutes
	system time =      98.49 seconds =       1.64 minutes
	total time  =        857 seconds =      14.28 minutes

*** tstart() called on cqc05
*** at Tue Aug  4 17:44:41 2020

            **************************
            *                        *
            *        CCENERGY        *
            *                        *
            **************************

    Nuclear Rep. energy (wfn)     =   30.586822532935425
    SCF energy          (wfn)     = -198.774751793712710
    Reference energy    (file100) = -198.774751793712880

    Input parameters:
    -----------------
    Wave function   =     CCSD
    Reference wfn   =     RHF
    Brueckner       =     No
    Memory (Mbytes) =     32000.0
    Maxiter         =     50
    R_Convergence   =     1.0e-07
    E_Convergence   =     1.0e-06
    Restart         =     Yes
    DIIS            =     Yes
    AO Basis        =     NONE
    ABCD            =     NEW
    Cache Level     =     2
    Cache Type      =     LOW
    Print Level     =     1
    Num. of threads =     1
    # Amps to Print =     10
    Print MP2 Amps? =     No
    Analyze T2 Amps =     No
    Print Pair Ener =     No
    Local CC        =     No
    SCS-MP2         =     False
    SCSN-MP2        =     False
    SCS-CCSD        =     False

MP2 correlation energy -0.5991498421520152
                Solving CC Amplitude Equations
                ------------------------------
  Iter             Energy              RMS        T1Diag      D1Diag    New D1Diag    D2Diag
  ----     ---------------------    ---------   ----------  ----------  ----------   --------
     0        -0.599149842151994    0.000e+00    0.000000    0.000000    0.000000    0.185064
     1        -0.595545505186807    2.868e-01    0.020461    0.047402    0.047402    0.231096
     2        -0.604014012767655    4.443e-02    0.012720    0.029653    0.029653    0.226760
     3        -0.593531860053580    1.499e-02    0.012720    0.029381    0.029381    0.214895
     4        -0.593074488265694    3.404e-03    0.012101    0.028227    0.028227    0.212675
     5        -0.593035914759575    1.058e-03    0.011970    0.027847    0.027847    0.211818
     6        -0.592925920175204    3.864e-04    0.011933    0.027781    0.027781    0.211489
     7        -0.592938222891854    1.363e-04    0.011935    0.027784    0.027784    0.211489
     8        -0.592944564816538    6.315e-05    0.011937    0.027788    0.027788    0.211506
     9        -0.592941667901534    2.641e-05    0.011937    0.027788    0.027788    0.211510
    10        -0.592942608200788    9.533e-06    0.011937    0.027789    0.027789    0.211515
    11        -0.592943559517116    3.374e-06    0.011937    0.027789    0.027789    0.211517
    12        -0.592943464232007    1.093e-06    0.011937    0.027789    0.027789    0.211517
    13        -0.592943497055727    3.076e-07    0.011937    0.027789    0.027789    0.211518
    14        -0.592943498501612    9.995e-08    0.011937    0.027789    0.027789    0.211518
    14        -0.592943498501612    9.995e-08    0.011937    0.027789    0.027789    0.211518

    Iterations converged.


    CCSD corr. energy   =   -0.592943498501612
    PPL corr. energy    =    0.124851768080698
    OS PPL corr. energy =    0.106013829793033
    SS PPL corr. energy =    0.018837938287665
    Largest TIA Amplitudes:
              1  10        -0.0166715489
              5 280        -0.0129331382
              6 325        -0.0129331356
              1  18         0.0115087103
              1   7         0.0111153348
              4 216         0.0108342098
              1   3         0.0103903457
              5 279        -0.0096805786
              6 324        -0.0096805768
              3 140        -0.0076766862

    Largest TIjAb Amplitudes:
      1   1 216 216        -0.1341433423
      1   1 215 216         0.1011316026
      1   1 216 215         0.1011316026
      1   1 215 215        -0.0769005415
      1   1 216 217         0.0546309639
      1   1 217 216         0.0546309639
      1   1 216 218         0.0425405884
      1   1 218 216         0.0425405884
      1   1 215 217        -0.0403152006
      1   1 217 215        -0.0403152006

    SCF energy       (wfn)                    = -198.774751793712710
    Reference energy (file100)                = -198.774751793712880

    Opposite-spin MP2 correlation energy      =   -0.457024618624663
    Same-spin MP2 correlation energy          =   -0.142125223527330
    MP2 correlation energy                    =   -0.599149842152015
      * MP2 total energy                      = -199.373901635864883

    Opposite-spin CCSD correlation energy     =   -0.468600398651380
    Same-spin CCSD correlation energy         =   -0.124343098791955
    CCSD correlation energy                   =   -0.592943498501612
      * CCSD total energy                     = -199.367695292214506


*** tstop() called on cqc05 at Tue Aug  4 17:46:13 2020
Module time:
	user time   =      35.75 seconds =       0.60 minutes
	system time =      48.09 seconds =       0.80 minutes
	total time  =         92 seconds =       1.53 minutes
Total time:
	user time   =     715.48 seconds =      11.92 minutes
	system time =     146.59 seconds =       2.44 minutes
	total time  =        949 seconds =      15.82 minutes

*** Psi4 exiting successfully. Buy a developer a beer!
