
    -----------------------------------------------------------------------
          Psi4: An Open-Source Ab Initio Electronic Structure Package
                               Psi4 1.2a1.dev939 

                         Git: Rev {HEAD} fa1ec19 


    R. M. Parrish, L. A. Burns, D. G. A. Smith, A. C. Simmonett,
    A. E. DePrince III, E. G. Hohenstein, U. Bozkaya, A. Yu. Sokolov,
    R. Di Remigio, R. M. Richard, J. F. Gonthier, A. M. James,
    H. R. McAlexander, A. Kumar, M. Saitow, X. Wang, B. P. Pritchard,
    P. Verma, H. F. Schaefer III, K. Patkowski, R. A. King, E. F. Valeev,
    F. A. Evangelista, J. M. Turney, T. D. Crawford, and C. D. Sherrill,
    J. Chem. Theory Comput. 13(7) pp 3185--3197 (2017).
    (doi: 10.1021/acs.jctc.7b00174)

    -----------------------------------------------------------------------


    Psi4 started on: Sunday, 28 April 2019 07:23AM

    Process ID:  28544
    PSIDATADIR: /home/grueneis/src/psi4/objdir/stage/usr/local/psi4/share/psi4
    Memory:     500.0 MiB
    Threads:    1
    
  ==> Input File <==

--------------------------------------------------------------------------
# Any line starting with the # character is a comment line

memory 32000 mb

molecule molecule {
0 1
F          0.0000000000        0.0000000000       -0.7006833392
F          0.0000000000        0.0000000000        0.7006833392
}

set {
  reference rhf
  basis aug-cc-pv(Q+d)z
  scf_type OUT_OF_CORE
  freeze_core true
}

energy('ccsd')
--------------------------------------------------------------------------

  Memory set to  29.802 GiB by Python driver.

*** tstart() called on cqc01
*** at Sun Apr 28 07:23:21 2019

   => Loading Basis Set <=

    Name: AUG-CC-PV(Q+D)Z
    Role: ORBITAL
    Keyword: BASIS
    atoms 1-2 entry F          line   499 file /home/grueneis/src/psi4/objdir/stage/usr/local/psi4/share/psi4/basis/aug-cc-pv_qpd_z.gbs 


         ---------------------------------------------------------
                                   SCF
            by Justin Turney, Rob Parrish, Andy Simmonett
                             and Daniel Smith
                              RHF Reference
                        1 Threads,  30517 MiB Core
         ---------------------------------------------------------

  ==> Geometry <==

    Molecular point group: d2h
    Full point group: D_inf_h

    Geometry (in Angstrom), charge = 0, multiplicity = 1:

       Center              X                  Y                   Z               Mass       
    ------------   -----------------  -----------------  -----------------  -----------------
           F          0.000000000000     0.000000000000    -0.700683339200    18.998403224000
           F          0.000000000000     0.000000000000     0.700683339200    18.998403224000

  Running in d2h symmetry.

  Rotational constants: A = ************  B =      0.90366  C =      0.90366 [cm^-1]
  Rotational constants: A = ************  B =  27091.09239  C =  27091.09239 [MHz]
  Nuclear repulsion =   30.586822532935425

  Charge       = 0
  Multiplicity = 1
  Electrons    = 18
  Nalpha       = 9
  Nbeta        = 9

  ==> Algorithm <==

  SCF Algorithm Type is OUT_OF_CORE.
  DIIS enabled.
  MOM disabled.
  Fractional occupation disabled.
  Guess Type is SAD.
  Energy threshold   = 1.00e-08
  Density threshold  = 1.00e-08
  Integral threshold = 0.00e+00

  ==> Primary Basis <==

  Basis Set: AUG-CC-PV(Q+D)Z
    Blend: AUG-CC-PV(Q+D)Z
    Number of shells: 40
    Number of basis function: 160
    Number of Cartesian functions: 210
    Spherical Harmonics?: true
    Max angular momentum: 4

  ==> Pre-Iterations <==

   -------------------------------------------------------
    Irrep   Nso     Nmo     Nalpha   Nbeta   Ndocc  Nsocc
   -------------------------------------------------------
     Ag        31      31       0       0       0       0
     B1g       11      11       0       0       0       0
     B2g       19      19       0       0       0       0
     B3g       19      19       0       0       0       0
     Au        11      11       0       0       0       0
     B1u       31      31       0       0       0       0
     B2u       19      19       0       0       0       0
     B3u       19      19       0       0       0       0
   -------------------------------------------------------
    Total     160     160       9       9       9       0
   -------------------------------------------------------

  ==> Integral Setup <==

  ==> DiskJK: Disk-Based J/K Matrices <==

    J tasked:                  Yes
    K tasked:                  Yes
    wK tasked:                  No
    Memory (MB):             22888
    Schwarz Cutoff:          1E-12

  Minimum eigenvalue in the overlap matrix is 2.8585229645E-04.
  Using Symmetric Orthogonalization.

  SCF Guess: Superposition of Atomic Densities via on-the-fly atomic UHF.

  ==> Iterations <==

                        Total Energy        Delta E     RMS |[F,P]|

   @RHF iter   0:  -198.86435201679868   -1.98864e+02   2.37068e-02 
   @RHF iter   1:  -198.70894628904551    1.55406e-01   7.22641e-03 
   @RHF iter   2:  -198.76351630770702   -5.45700e-02   2.82464e-03 DIIS
   @RHF iter   3:  -198.76982473015852   -6.30842e-03   4.88171e-04 DIIS
   @RHF iter   4:  -198.77032499098380   -5.00261e-04   1.20093e-04 DIIS
   @RHF iter   5:  -198.77035813627140   -3.31453e-05   2.52018e-05 DIIS
   @RHF iter   6:  -198.77035937546376   -1.23919e-06   2.93389e-06 DIIS
   @RHF iter   7:  -198.77035939260551   -1.71418e-08   3.62662e-07 DIIS
   @RHF iter   8:  -198.77035939291738   -3.11871e-10   5.57502e-08 DIIS
   @RHF iter   9:  -198.77035939292477   -7.38964e-12   6.87085e-09 DIIS

  ==> Post-Iterations <==

    Orbital Energies (a.u.)
    -----------------------

    Doubly Occupied:                                                      

       1Ag   -26.428401     1B1u  -26.428149     2Ag    -1.770606  
       2B1u   -1.495263     1B2u   -0.813807     1B3u   -0.813807  
       3Ag    -0.756142     1B3g   -0.665024     1B2g   -0.665024  

    Virtual:                                                              

       3B1u    0.065367     4B1u    0.147844     4Ag     0.153211  
       2B2u    0.164359     2B3u    0.164359     2B3g    0.211819  
       2B2g    0.211819     5Ag     0.226611     5B1u    0.374323  
       1B1g    0.572865     6Ag     0.572865     7Ag     0.704770  
       3B2u    0.728151     3B3u    0.728151     6B1u    0.753748  
       1Au     0.765922     7B1u    0.765922     3B3g    0.776466  
       3B2g    0.776466     4B2u    0.838931     4B3u    0.838931  
       8B1u    0.968618     8Ag     1.005413     4B3g    1.095550  
       4B2g    1.095550     9Ag     1.301345     5B2u    1.738127  
       5B3u    1.738127     2B1g    1.766044    10Ag     1.766044  
       6B2u    1.792440     6B3u    1.792440     9B1u    1.935489  
      11Ag     1.968640     3B1g    2.014657    12Ag     2.014657  
       5B3g    2.039568     5B2g    2.039568     2Au     2.068452  
      10B1u    2.068452     6B3g    2.096148     6B2g    2.096148  
      11B1u    2.312915     7B2u    2.380776     7B3u    2.380776  
       3Au     2.493602    12B1u    2.493602    13B1u    2.545205  
      13Ag     2.794427     7B3g    2.867444     7B2g    2.867444  
      14Ag     3.266643     8B2u    3.361876     8B3u    3.361876  
       8B3g    3.725769     8B2g    3.725769     9B2u    4.378488  
       9B3u    4.378488    15Ag     4.573337     4B1g    4.573337  
      16Ag     4.589298     5B1g    4.589298    17Ag     4.765006  
      10B2u    4.775653    10B3u    4.775653     4Au     4.814529  
      14B1u    4.814529    15B1u    5.016124    18Ag     5.190792  
       9B3g    5.311788     9B2g    5.311788    10B3g    5.316528  
      10B2g    5.316528    11B2u    5.402940    11B3u    5.402940  
      16B1u    5.490693    11B3g    5.546591    11B2g    5.546591  
      19Ag     5.547040     6B1g    5.547040    17B1u    5.548832  
       5Au     5.548832    12B2u    5.575251    12B3u    5.575251  
      20Ag     5.609462    21Ag     5.648504     7B1g    5.648504  
      18B1u    5.781232     6Au     5.781232    19B1u    5.811378  
      20B1u    6.015536    12B3g    6.230871    12B2g    6.230871  
      21B1u    6.474705     7Au     6.474705    13B2u    6.553920  
      13B3u    6.553920    13B3g    7.538020    13B2g    7.538020  
      22Ag     7.572321    22B1u    8.072129    14B2u   12.917824  
      14B3u   12.917824    23Ag    13.033110    14B3g   13.500857  
      14B2g   13.500857    15B2u   13.518681    15B3u   13.518681  
      24Ag    13.561974     8B1g   13.561974     8Au    13.658595  
      23B1u   13.658595    25Ag    13.783916     9B1g   13.783916  
      15B3g   13.799521    15B2g   13.799521    16B2u   13.933924  
      16B3u   13.933924    26Ag    13.967246    24B1u   14.007245  
       9Au    14.007245    16B3g   14.133980    16B2g   14.133980  
      25B1u   14.353601    26B1u   15.168199    27Ag    15.666035  
      10B1g   15.666035    17B3u   15.728345    17B2u   15.728345  
      18B3u   15.759147    18B2u   15.759147    17B2g   15.821617  
      17B3g   15.821617    27B1u   16.012103    10Au    16.012103  
      28Ag    16.099847    28B1u   16.314200    29Ag    16.618219  
      11B1g   16.618219    29B1u   16.746661    11Au    16.746661  
      18B2g   16.822193    18B3g   16.822193    19B3u   16.889951  
      19B2u   16.889951    19B2g   17.179845    19B3g   17.179845  
      30Ag    18.127062    30B1u   18.168560    31Ag    53.838992  
      31B1u   55.746284  

    Final Occupation by Irrep:
             Ag   B1g   B2g   B3g    Au   B1u   B2u   B3u 
    DOCC [     3,    0,    1,    1,    0,    2,    1,    1 ]

  Energy converged.

  @RHF Final Energy:  -198.77035939292477

   => Energetics <=

    Nuclear Repulsion Energy =             30.5868225329354253
    One-Electron Energy =                -339.0419203923908640
    Two-Electron Energy =                 109.6847384665306890
    Total Energy =                       -198.7703593929247745



Properties will be evaluated at   0.000000,   0.000000,   0.000000 Bohr

Properties computed using the SCF density matrix

  Nuclear Dipole Moment: (a.u.)
     X:     0.0000      Y:     0.0000      Z:     0.0000

  Electronic Dipole Moment: (a.u.)
     X:     0.0000      Y:     0.0000      Z:     0.0000

  Dipole Moment: (a.u.)
     X:     0.0000      Y:     0.0000      Z:     0.0000     Total:     0.0000

  Dipole Moment: (Debye)
     X:     0.0000      Y:     0.0000      Z:     0.0000     Total:     0.0000


*** tstop() called on cqc01 at Sun Apr 28 07:23:32 2019
Module time:
	user time   =       7.10 seconds =       0.12 minutes
	system time =       1.47 seconds =       0.02 minutes
	total time  =         11 seconds =       0.18 minutes
Total time:
	user time   =       7.10 seconds =       0.12 minutes
	system time =       1.47 seconds =       0.02 minutes
	total time  =         11 seconds =       0.18 minutes

*** tstart() called on cqc01
*** at Sun Apr 28 07:23:32 2019


	Wfn Parameters:
	--------------------
	Wavefunction         = CCSD
	Number of irreps     = 8
	Number of MOs        = 160
	Number of active MOs = 158
	AO-Basis             = NONE
	Semicanonical        = false
	Reference            = RHF
	Print Level          = 1

	IRREP	# MOs	# FZDC	# DOCC	# SOCC	# VIRT	# FZVR
	-----	-----	------	------	------	------	------
	 Ag	   31	    1	    2	    0	    28	    0
	 B1g	   11	    0	    0	    0	    11	    0
	 B2g	   19	    0	    1	    0	    18	    0
	 B3g	   19	    0	    1	    0	    18	    0
	 Au	   11	    0	    0	    0	    11	    0
	 B1u	   31	    1	    1	    0	    29	    0
	 B2u	   19	    0	    1	    0	    18	    0
	 B3u	   19	    0	    1	    0	    18	    0
	Transforming integrals...
	IWL integrals will be deleted.
	(OO|OO)...
	Presorting SO-basis two-electron integrals.
	Sorting File: SO Ints (nn|nn) nbuckets = 1
	Transforming the one-electron integrals and constructing Fock matrices
	Starting first half-transformation.
	Sorting half-transformed integrals.
	First half integral transformation complete.
	Starting second half-transformation.
	Two-electron integral transformation complete.
	(OO|OV)...
	Starting second half-transformation.
	Two-electron integral transformation complete.
	(OO|VV)...
	Starting second half-transformation.
	Two-electron integral transformation complete.
	(OV|OO)...
	Starting first half-transformation.
	Sorting half-transformed integrals.
	First half integral transformation complete.
	Starting second half-transformation.
	Two-electron integral transformation complete.
	(OV|OV)...
	Starting second half-transformation.
	Two-electron integral transformation complete.
	(OV|VV)...
	Starting second half-transformation.
	Two-electron integral transformation complete.
	(VV|OO)...
	Starting first half-transformation.
	Sorting half-transformed integrals.
	First half integral transformation complete.
	Starting second half-transformation.
	Two-electron integral transformation complete.
	(VV|OV)...
	Starting second half-transformation.
	Two-electron integral transformation complete.
	(VV|VV)...
	Starting second half-transformation.
	Two-electron integral transformation complete.
	Frozen core energy     =   -163.04362328488781

	Size of irrep 0 of <ab|cd> integrals:     10.005 (MW) /     80.037 (MB)
	Size of irrep 1 of <ab|cd> integrals:      6.503 (MW) /     52.020 (MB)
	Size of irrep 2 of <ab|cd> integrals:      8.088 (MW) /     64.707 (MB)
	Size of irrep 3 of <ab|cd> integrals:      8.088 (MW) /     64.707 (MB)
	Size of irrep 4 of <ab|cd> integrals:      6.503 (MW) /     52.020 (MB)
	Size of irrep 5 of <ab|cd> integrals:      9.998 (MW) /     79.986 (MB)
	Size of irrep 6 of <ab|cd> integrals:      8.088 (MW) /     64.707 (MB)
	Size of irrep 7 of <ab|cd> integrals:      8.088 (MW) /     64.707 (MB)
	Total:                                    65.361 (MW) /    522.889 (MB)

	Size of irrep 0 of <ia|bc> integrals:      0.497 (MW) /      3.973 (MB)
	Size of irrep 1 of <ia|bc> integrals:      0.268 (MW) /      2.142 (MB)
	Size of irrep 2 of <ia|bc> integrals:      0.378 (MW) /      3.026 (MB)
	Size of irrep 3 of <ia|bc> integrals:      0.378 (MW) /      3.026 (MB)
	Size of irrep 4 of <ia|bc> integrals:      0.268 (MW) /      2.142 (MB)
	Size of irrep 5 of <ia|bc> integrals:      0.500 (MW) /      3.997 (MB)
	Size of irrep 6 of <ia|bc> integrals:      0.378 (MW) /      3.026 (MB)
	Size of irrep 7 of <ia|bc> integrals:      0.378 (MW) /      3.026 (MB)
	Total:                                     3.045 (MW) /     24.358 (MB)

	Size of irrep 0 of tijab amplitudes:       0.028 (MW) /      0.228 (MB)
	Size of irrep 1 of tijab amplitudes:       0.010 (MW) /      0.082 (MB)
	Size of irrep 2 of tijab amplitudes:       0.017 (MW) /      0.137 (MB)
	Size of irrep 3 of tijab amplitudes:       0.017 (MW) /      0.137 (MB)
	Size of irrep 4 of tijab amplitudes:       0.010 (MW) /      0.082 (MB)
	Size of irrep 5 of tijab amplitudes:       0.025 (MW) /      0.202 (MB)
	Size of irrep 6 of tijab amplitudes:       0.017 (MW) /      0.137 (MB)
	Size of irrep 7 of tijab amplitudes:       0.017 (MW) /      0.137 (MB)
	Total:                                     0.142 (MW) /      1.139 (MB)

	Nuclear Rep. energy          =     30.58682253293543
	SCF energy                   =   -198.77035939292477
	One-electron energy          =   -118.66777309412728
	Two-electron energy          =     52.35421445315532
	Reference energy             =   -198.77035939292435

*** tstop() called on cqc01 at Sun Apr 28 07:25:04 2019
Module time:
	user time   =       3.99 seconds =       0.07 minutes
	system time =       2.31 seconds =       0.04 minutes
	total time  =         92 seconds =       1.53 minutes
Total time:
	user time   =      11.09 seconds =       0.18 minutes
	system time =       3.78 seconds =       0.06 minutes
	total time  =        103 seconds =       1.72 minutes

*** tstart() called on cqc01
*** at Sun Apr 28 07:25:04 2019

            **************************
            *                        *
            *        CCENERGY        *
            *                        *
            **************************

    Nuclear Rep. energy (wfn)     =   30.586822532935425
    SCF energy          (wfn)     = -198.770359392924775
    Reference energy    (file100) = -198.770359392924348

    Input parameters:
    -----------------
    Wave function   =     CCSD
    Reference wfn   =     RHF
    Brueckner       =     No
    Memory (Mbytes) =     32000.0
    Maxiter         =     50
    R_Convergence   =     1.0e-07
    E_Convergence   =     1.0e-06
    Restart         =     Yes
    DIIS            =     Yes
    AO Basis        =     NONE
    ABCD            =     NEW
    Cache Level     =     2
    Cache Type      =     LOW
    Print Level     =     1
    Num. of threads =     1
    # Amps to Print =     10
    Print MP2 Amps? =     No
    Analyze T2 Amps =     No
    Print Pair Ener =     No
    Local CC        =     No
    SCS-MP2         =     False
    SCSN-MP2        =     False
    SCS-CCSD        =     False

MP2 correlation energy -0.5745354036448421
                Solving CC Amplitude Equations
                ------------------------------
  Iter             Energy              RMS        T1Diag      D1Diag    New D1Diag    D2Diag
  ----     ---------------------    ---------   ----------  ----------  ----------   --------
     0        -0.574535403644832    0.000e+00    0.000000    0.000000    0.000000    0.184805
     1        -0.582374741771109    2.825e-01    0.020761    0.046571    0.046571    0.232863
     2        -0.584916441498022    4.412e-02    0.012981    0.029647    0.029647    0.227373
     3        -0.574325101478617    1.450e-02    0.012936    0.029145    0.029145    0.215750
     4        -0.574119142210299    3.343e-03    0.012333    0.028041    0.028041    0.213743
     5        -0.574042502108888    1.057e-03    0.012200    0.027656    0.027656    0.212854
     6        -0.573922718577296    3.742e-04    0.012165    0.027593    0.027593    0.212522
     7        -0.573949297698608    1.341e-04    0.012170    0.027599    0.027599    0.212549
     8        -0.573952631181271    6.318e-05    0.012171    0.027604    0.027604    0.212564
     9        -0.573950168459217    2.505e-05    0.012171    0.027604    0.027604    0.212569
    10        -0.573951558014723    8.890e-06    0.012171    0.027605    0.027605    0.212575
    11        -0.573952238597022    2.951e-06    0.012171    0.027604    0.027604    0.212576
    12        -0.573952140762208    8.906e-07    0.012171    0.027604    0.027604    0.212576
    13        -0.573952178108565    2.570e-07    0.012171    0.027604    0.027604    0.212577
    14        -0.573952171670697    6.794e-08    0.012171    0.027604    0.027604    0.212577
    14        -0.573952171670697    6.794e-08    0.012171    0.027604    0.027604    0.212577

    Iterations converged.


    CCSD corr. energy   =   -0.573952171670697
    PPL corr. energy    =    0.117504382439069
    OS PPL corr. energy =    0.099143572979579
    SS PPL corr. energy =    0.018360809459488
    Largest TIA Amplitudes:
              1  10        -0.0142413348
              1   5         0.0140519613
              6 133        -0.0140453098
              5 115        -0.0140452687
              6 135        -0.0121350050
              5 117        -0.0121349634
              1   9         0.0101218151
              4  87        -0.0100564618
              1   3        -0.0092833528
              4  86         0.0089672927

    Largest TIjAb Amplitudes:
      1   1  86  86        -0.1231209443
      1   1  86  87         0.1126775480
      1   1  87  86         0.1126775480
      1   1  87  87        -0.1047225987
      1   1  86  88        -0.0422688225
      1   1  88  86        -0.0422688225
      1   1  87  88         0.0410417637
      1   1  88  87         0.0410417637
      2   2  86  86        -0.0279787101
      3   3  86  86        -0.0279787068

    SCF energy       (wfn)                    = -198.770359392924775
    Reference energy (file100)                = -198.770359392924348

    Opposite-spin MP2 correlation energy      =   -0.434637423194368
    Same-spin MP2 correlation energy          =   -0.139897980450464
    MP2 correlation energy                    =   -0.574535403644842
      * MP2 total energy                      = -199.344894796569179

    Opposite-spin CCSD correlation energy     =   -0.451506937640288
    Same-spin CCSD correlation energy         =   -0.122445232582134
    CCSD correlation energy                   =   -0.573952171670697
      * CCSD total energy                     = -199.344311564595046


*** tstop() called on cqc01 at Sun Apr 28 07:25:29 2019
Module time:
	user time   =       3.21 seconds =       0.05 minutes
	system time =       6.11 seconds =       0.10 minutes
	total time  =         25 seconds =       0.42 minutes
Total time:
	user time   =      14.30 seconds =       0.24 minutes
	system time =       9.89 seconds =       0.16 minutes
	total time  =        128 seconds =       2.13 minutes

*** Psi4 exiting successfully. Buy a developer a beer!
