
    -----------------------------------------------------------------------
          Psi4: An Open-Source Ab Initio Electronic Structure Package
                               Psi4 1.2a1.dev939 

                         Git: Rev {HEAD} fa1ec19 


    R. M. Parrish, L. A. Burns, D. G. A. Smith, A. C. Simmonett,
    A. E. DePrince III, E. G. Hohenstein, U. Bozkaya, A. Yu. Sokolov,
    R. Di Remigio, R. M. Richard, J. F. Gonthier, A. M. James,
    H. R. McAlexander, A. Kumar, M. Saitow, X. Wang, B. P. Pritchard,
    P. Verma, H. F. Schaefer III, K. Patkowski, R. A. King, E. F. Valeev,
    F. A. Evangelista, J. M. Turney, T. D. Crawford, and C. D. Sherrill,
    J. Chem. Theory Comput. 13(7) pp 3185--3197 (2017).
    (doi: 10.1021/acs.jctc.7b00174)

    -----------------------------------------------------------------------


    Psi4 started on: Friday, 26 April 2019 06:31PM

    Process ID:   7983
    PSIDATADIR: /home/grueneis/src/psi4/objdir/stage/usr/local/psi4/share/psi4
    Memory:     500.0 MiB
    Threads:    1
    
  ==> Input File <==

--------------------------------------------------------------------------
# Any line starting with the # character is a comment line

memory 32000 mb

molecule molecule {
0 1
F          0.0000000000        0.0000000000       -0.7006833392
F          0.0000000000        0.0000000000        0.7006833392
}

set {
  reference rhf
  basis aug-cc-pv(T+d)z
  scf_type OUT_OF_CORE
  freeze_core true
}

energy('ccsd')
--------------------------------------------------------------------------

  Memory set to  29.802 GiB by Python driver.

*** tstart() called on cqc01
*** at Fri Apr 26 18:31:22 2019

   => Loading Basis Set <=

    Name: AUG-CC-PV(T+D)Z
    Role: ORBITAL
    Keyword: BASIS
    atoms 1-2 entry F          line   393 file /home/grueneis/src/psi4/objdir/stage/usr/local/psi4/share/psi4/basis/aug-cc-pv_tpd_z.gbs 


         ---------------------------------------------------------
                                   SCF
            by Justin Turney, Rob Parrish, Andy Simmonett
                             and Daniel Smith
                              RHF Reference
                        1 Threads,  30517 MiB Core
         ---------------------------------------------------------

  ==> Geometry <==

    Molecular point group: d2h
    Full point group: D_inf_h

    Geometry (in Angstrom), charge = 0, multiplicity = 1:

       Center              X                  Y                   Z               Mass       
    ------------   -----------------  -----------------  -----------------  -----------------
           F          0.000000000000     0.000000000000    -0.700683339200    18.998403224000
           F          0.000000000000     0.000000000000     0.700683339200    18.998403224000

  Running in d2h symmetry.

  Rotational constants: A = ************  B =      0.90366  C =      0.90366 [cm^-1]
  Rotational constants: A = ************  B =  27091.09239  C =  27091.09239 [MHz]
  Nuclear repulsion =   30.586822532935425

  Charge       = 0
  Multiplicity = 1
  Electrons    = 18
  Nalpha       = 9
  Nbeta        = 9

  ==> Algorithm <==

  SCF Algorithm Type is OUT_OF_CORE.
  DIIS enabled.
  MOM disabled.
  Fractional occupation disabled.
  Guess Type is SAD.
  Energy threshold   = 1.00e-08
  Density threshold  = 1.00e-08
  Integral threshold = 0.00e+00

  ==> Primary Basis <==

  Basis Set: AUG-CC-PV(T+D)Z
    Blend: AUG-CC-PV(T+D)Z
    Number of shells: 28
    Number of basis function: 92
    Number of Cartesian functions: 110
    Spherical Harmonics?: true
    Max angular momentum: 3

  ==> Pre-Iterations <==

   -------------------------------------------------------
    Irrep   Nso     Nmo     Nalpha   Nbeta   Ndocc  Nsocc
   -------------------------------------------------------
     Ag        19      19       0       0       0       0
     B1g        5       5       0       0       0       0
     B2g       11      11       0       0       0       0
     B3g       11      11       0       0       0       0
     Au         5       5       0       0       0       0
     B1u       19      19       0       0       0       0
     B2u       11      11       0       0       0       0
     B3u       11      11       0       0       0       0
   -------------------------------------------------------
    Total      92      92       9       9       9       0
   -------------------------------------------------------

  ==> Integral Setup <==

  ==> DiskJK: Disk-Based J/K Matrices <==

    J tasked:                  Yes
    K tasked:                  Yes
    wK tasked:                  No
    Memory (MB):             22888
    Schwarz Cutoff:          1E-12

  Minimum eigenvalue in the overlap matrix is 7.8784406872E-04.
  Using Symmetric Orthogonalization.

  SCF Guess: Superposition of Atomic Densities via on-the-fly atomic UHF.

  ==> Iterations <==

                        Total Energy        Delta E     RMS |[F,P]|

   @RHF iter   0:  -198.56047327428351   -1.98560e+02   2.21041e-02 
   @RHF iter   1:  -198.75005881062339   -1.89586e-01   4.11402e-03 
   @RHF iter   2:  -198.75560965471971   -5.55084e-03   1.09519e-03 DIIS
   @RHF iter   3:  -198.75608568867327   -4.76034e-04   3.18657e-04 DIIS
   @RHF iter   4:  -198.75613350866851   -4.78200e-05   6.94444e-05 DIIS
   @RHF iter   5:  -198.75613551252340   -2.00385e-06   1.28065e-05 DIIS
   @RHF iter   6:  -198.75613561480796   -1.02285e-07   1.00191e-06 DIIS
   @RHF iter   7:  -198.75613561574272   -9.34762e-10   1.12578e-07 DIIS
   @RHF iter   8:  -198.75613561575494   -1.22213e-11   1.20210e-08 DIIS
   @RHF iter   9:  -198.75613561575526   -3.12639e-13   1.03095e-09 DIIS

  ==> Post-Iterations <==

    Orbital Energies (a.u.)
    -----------------------

    Doubly Occupied:                                                      

       1Ag   -26.432528     1B1u  -26.432286     2Ag    -1.772540  
       2B1u   -1.497141     1B2u   -0.814269     1B3u   -0.814269  
       3Ag    -0.756990     1B3g   -0.665425     1B2g   -0.665425  

    Virtual:                                                              

       3B1u    0.068446     4B1u    0.174327     4Ag     0.177679  
       2B2u    0.191952     2B3u    0.191952     2B3g    0.245430  
       2B2g    0.245430     5Ag     0.264575     5B1u    0.434031  
       6Ag     0.777358     1B1g    0.777358     3B3u    0.932295  
       3B2u    0.932295     7Ag     0.961884     6B1u    1.028377  
       1Au     1.028377     7B1u    1.052031     3B3g    1.071235  
       3B2g    1.071235     4B2u    1.080396     4B3u    1.080396  
       8B1u    1.211081     8Ag     1.408412     4B3g    1.468436  
       4B2g    1.468436     9Ag     1.783030     5B2u    2.462589  
       5B3u    2.462589    10Ag     2.584020     2B1g    2.584020  
      11Ag     2.660482     6B3u    2.752966     6B2u    2.752966  
      12Ag     2.849158     3B1g    2.849158     2Au     2.885176  
       9B1u    2.885176    10B1u    2.989238     5B3g    3.032197  
       5B2g    3.032197     6B3g    3.046568     6B2g    3.046568  
      11B1u    3.251576     7B2u    3.393283     7B3u    3.393283  
       3Au     3.559958    12B1u    3.559958    13Ag     3.798602  
      13B1u    3.913181     7B3g    4.229513     7B2g    4.229513  
       8B2u    5.157154     8B3u    5.157154     8B3g    5.351369  
       8B2g    5.351369    14Ag     5.372544    14B1u    6.842892  
      15Ag     8.515223     9B2u    8.707582     9B3u    8.707582  
       4B1g    8.745158    16Ag     8.745158     9B3g    8.823398  
       9B2g    8.823398    10B3u    8.925561    10B2u    8.925561  
       4Au     8.954642    15B1u    8.954642    11B3u    9.151552  
      11B2u    9.151552     5B1g    9.160466    17Ag     9.160466  
      16B1u    9.172479    10B2g    9.204735    10B3g    9.204735  
       5Au     9.282359    17B1u    9.282359    18Ag     9.524395  
      11B2g    9.684410    11B3g    9.684410    18B1u   10.330782  
      19Ag    12.478975    19B1u   15.578147  

    Final Occupation by Irrep:
             Ag   B1g   B2g   B3g    Au   B1u   B2u   B3u 
    DOCC [     3,    0,    1,    1,    0,    2,    1,    1 ]

  Energy converged.

  @RHF Final Energy:  -198.75613561575526

   => Energetics <=

    Nuclear Repulsion Energy =             30.5868225329354253
    One-Electron Energy =                -338.9841711200754162
    Two-Electron Energy =                 109.6412129713847605
    Total Energy =                       -198.7561356157552552



Properties will be evaluated at   0.000000,   0.000000,   0.000000 Bohr

Properties computed using the SCF density matrix

  Nuclear Dipole Moment: (a.u.)
     X:     0.0000      Y:     0.0000      Z:     0.0000

  Electronic Dipole Moment: (a.u.)
     X:     0.0000      Y:     0.0000      Z:     0.0000

  Dipole Moment: (a.u.)
     X:     0.0000      Y:     0.0000      Z:     0.0000     Total:     0.0000

  Dipole Moment: (Debye)
     X:     0.0000      Y:     0.0000      Z:     0.0000     Total:     0.0000


*** tstop() called on cqc01 at Fri Apr 26 18:31:24 2019
Module time:
	user time   =       1.13 seconds =       0.02 minutes
	system time =       0.81 seconds =       0.01 minutes
	total time  =          2 seconds =       0.03 minutes
Total time:
	user time   =       1.13 seconds =       0.02 minutes
	system time =       0.81 seconds =       0.01 minutes
	total time  =          2 seconds =       0.03 minutes

*** tstart() called on cqc01
*** at Fri Apr 26 18:31:24 2019


	Wfn Parameters:
	--------------------
	Wavefunction         = CCSD
	Number of irreps     = 8
	Number of MOs        = 92
	Number of active MOs = 90
	AO-Basis             = NONE
	Semicanonical        = false
	Reference            = RHF
	Print Level          = 1

	IRREP	# MOs	# FZDC	# DOCC	# SOCC	# VIRT	# FZVR
	-----	-----	------	------	------	------	------
	 Ag	   19	    1	    2	    0	    16	    0
	 B1g	   5	    0	    0	    0	    5	    0
	 B2g	   11	    0	    1	    0	    10	    0
	 B3g	   11	    0	    1	    0	    10	    0
	 Au	   5	    0	    0	    0	    5	    0
	 B1u	   19	    1	    1	    0	    17	    0
	 B2u	   11	    0	    1	    0	    10	    0
	 B3u	   11	    0	    1	    0	    10	    0
	Transforming integrals...
	IWL integrals will be deleted.
	(OO|OO)...
	Presorting SO-basis two-electron integrals.
	Sorting File: SO Ints (nn|nn) nbuckets = 1
	Transforming the one-electron integrals and constructing Fock matrices
	Starting first half-transformation.
	Sorting half-transformed integrals.
	First half integral transformation complete.
	Starting second half-transformation.
	Two-electron integral transformation complete.
	(OO|OV)...
	Starting second half-transformation.
	Two-electron integral transformation complete.
	(OO|VV)...
	Starting second half-transformation.
	Two-electron integral transformation complete.
	(OV|OO)...
	Starting first half-transformation.
	Sorting half-transformed integrals.
	First half integral transformation complete.
	Starting second half-transformation.
	Two-electron integral transformation complete.
	(OV|OV)...
	Starting second half-transformation.
	Two-electron integral transformation complete.
	(OV|VV)...
	Starting second half-transformation.
	Two-electron integral transformation complete.
	(VV|OO)...
	Starting first half-transformation.
	Sorting half-transformed integrals.
	First half integral transformation complete.
	Starting second half-transformation.
	Two-electron integral transformation complete.
	(VV|OV)...
	Starting second half-transformation.
	Two-electron integral transformation complete.
	(VV|VV)...
	Starting second half-transformation.
	Two-electron integral transformation complete.
	Frozen core energy     =   -163.04051624444935

	Size of irrep 0 of <ab|cd> integrals:      0.990 (MW) /      7.920 (MB)
	Size of irrep 1 of <ab|cd> integrals:      0.533 (MW) /      4.263 (MB)
	Size of irrep 2 of <ab|cd> integrals:      0.740 (MW) /      5.917 (MB)
	Size of irrep 3 of <ab|cd> integrals:      0.740 (MW) /      5.917 (MB)
	Size of irrep 4 of <ab|cd> integrals:      0.533 (MW) /      4.263 (MB)
	Size of irrep 5 of <ab|cd> integrals:      0.988 (MW) /      7.904 (MB)
	Size of irrep 6 of <ab|cd> integrals:      0.740 (MW) /      5.917 (MB)
	Size of irrep 7 of <ab|cd> integrals:      0.740 (MW) /      5.917 (MB)
	Total:                                     6.002 (MW) /     48.018 (MB)

	Size of irrep 0 of <ia|bc> integrals:      0.089 (MW) /      0.708 (MB)
	Size of irrep 1 of <ia|bc> integrals:      0.040 (MW) /      0.321 (MB)
	Size of irrep 2 of <ia|bc> integrals:      0.063 (MW) /      0.502 (MB)
	Size of irrep 3 of <ia|bc> integrals:      0.063 (MW) /      0.502 (MB)
	Size of irrep 4 of <ia|bc> integrals:      0.040 (MW) /      0.321 (MB)
	Size of irrep 5 of <ia|bc> integrals:      0.089 (MW) /      0.716 (MB)
	Size of irrep 6 of <ia|bc> integrals:      0.063 (MW) /      0.502 (MB)
	Size of irrep 7 of <ia|bc> integrals:      0.063 (MW) /      0.502 (MB)
	Total:                                     0.509 (MW) /      4.075 (MB)

	Size of irrep 0 of tijab amplitudes:       0.009 (MW) /      0.072 (MB)
	Size of irrep 1 of tijab amplitudes:       0.003 (MW) /      0.023 (MB)
	Size of irrep 2 of tijab amplitudes:       0.005 (MW) /      0.041 (MB)
	Size of irrep 3 of tijab amplitudes:       0.005 (MW) /      0.041 (MB)
	Size of irrep 4 of tijab amplitudes:       0.003 (MW) /      0.023 (MB)
	Size of irrep 5 of tijab amplitudes:       0.008 (MW) /      0.064 (MB)
	Size of irrep 6 of tijab amplitudes:       0.005 (MW) /      0.041 (MB)
	Size of irrep 7 of tijab amplitudes:       0.005 (MW) /      0.041 (MB)
	Total:                                     0.043 (MW) /      0.347 (MB)

	Nuclear Rep. energy          =     30.58682253293543
	SCF energy                   =   -198.75613561575526
	One-electron energy          =   -118.63276748035720
	Two-electron energy          =     52.33032557611611
	Reference energy             =   -198.75613561575500

*** tstop() called on cqc01 at Fri Apr 26 18:31:29 2019
Module time:
	user time   =       0.36 seconds =       0.01 minutes
	system time =       0.20 seconds =       0.00 minutes
	total time  =          5 seconds =       0.08 minutes
Total time:
	user time   =       1.49 seconds =       0.02 minutes
	system time =       1.01 seconds =       0.02 minutes
	total time  =          7 seconds =       0.12 minutes

*** tstart() called on cqc01
*** at Fri Apr 26 18:31:29 2019

            **************************
            *                        *
            *        CCENERGY        *
            *                        *
            **************************

    Nuclear Rep. energy (wfn)     =   30.586822532935425
    SCF energy          (wfn)     = -198.756135615755255
    Reference energy    (file100) = -198.756135615754999

    Input parameters:
    -----------------
    Wave function   =     CCSD
    Reference wfn   =     RHF
    Brueckner       =     No
    Memory (Mbytes) =     32000.0
    Maxiter         =     50
    R_Convergence   =     1.0e-07
    E_Convergence   =     1.0e-06
    Restart         =     Yes
    DIIS            =     Yes
    AO Basis        =     NONE
    ABCD            =     NEW
    Cache Level     =     2
    Cache Type      =     LOW
    Print Level     =     1
    Num. of threads =     1
    # Amps to Print =     10
    Print MP2 Amps? =     No
    Analyze T2 Amps =     No
    Print Pair Ener =     No
    Local CC        =     No
    SCS-MP2         =     False
    SCSN-MP2        =     False
    SCS-CCSD        =     False

MP2 correlation energy -0.5347716463214208
                Solving CC Amplitude Equations
                ------------------------------
  Iter             Energy              RMS        T1Diag      D1Diag    New D1Diag    D2Diag
  ----     ---------------------    ---------   ----------  ----------  ----------   --------
     0        -0.534771646321421    0.000e+00    0.000000    0.000000    0.000000    0.184084
     1        -0.549336793170367    2.766e-01    0.021164    0.045142    0.045142    0.235528
     2        -0.548288436129610    4.357e-02    0.013395    0.029504    0.029504    0.228707
     3        -0.537978184576066    1.388e-02    0.013295    0.028674    0.028674    0.217432
     4        -0.537875220875308    3.288e-03    0.012702    0.027618    0.027618    0.215570
     5        -0.537771186256376    1.047e-03    0.012567    0.027234    0.027234    0.214666
     6        -0.537662524221415    3.619e-04    0.012536    0.027182    0.027182    0.214360
     7        -0.537693209306016    1.383e-04    0.012542    0.027191    0.027191    0.214397
     8        -0.537694340047537    6.660e-05    0.012544    0.027196    0.027196    0.214413
     9        -0.537692561798905    2.486e-05    0.012543    0.027196    0.027196    0.214419
    10        -0.537694236419633    8.618e-06    0.012543    0.027196    0.027196    0.214426
    11        -0.537694714532101    2.653e-06    0.012543    0.027196    0.027196    0.214427
    12        -0.537694618289450    7.238e-07    0.012543    0.027196    0.027196    0.214427
    13        -0.537694652394117    2.261e-07    0.012543    0.027196    0.027196    0.214427
    14        -0.537694643247322    5.816e-08    0.012543    0.027196    0.027196    0.214427
    14        -0.537694643247322    5.816e-08    0.012543    0.027196    0.027196    0.214427

    Iterations converged.


    CCSD corr. energy   =   -0.537694643247322
    PPL corr. energy    =    0.107180994683931
    OS PPL corr. energy =    0.089801740162292
    SS PPL corr. energy =    0.017379254521639
    Largest TIA Amplitudes:
              1   5        -0.0171144138
              6  73        -0.0167502075
              5  63        -0.0167502051
              2  21        -0.0105264092
              3  31        -0.0105264069
              6  75        -0.0100492682
              5  65        -0.0100492664
              1   3        -0.0099280625
              4  47         0.0097532557
              4  46         0.0094860401

    Largest TIjAb Amplitudes:
      1   1  46  46        -0.1465971759
      1   1  46  47        -0.1143407323
      1   1  47  46        -0.1143407323
      1   1  47  47        -0.0913582089
      1   1  46  48         0.0365641947
      1   1  48  46         0.0365641947
      2   2  46  46        -0.0330126553
      3   3  46  46        -0.0330126550
      1   1  47  48         0.0312032696
      1   1  48  47         0.0312032696

    SCF energy       (wfn)                    = -198.756135615755255
    Reference energy (file100)                = -198.756135615754999

    Opposite-spin MP2 correlation energy      =   -0.400172410522484
    Same-spin MP2 correlation energy          =   -0.134599235798937
    MP2 correlation energy                    =   -0.534771646321421
      * MP2 total energy                      = -199.290907262076416

    Opposite-spin CCSD correlation energy     =   -0.420040504813752
    Same-spin CCSD correlation energy         =   -0.117654138332692
    CCSD correlation energy                   =   -0.537694643247322
      * CCSD total energy                     = -199.293830259002334


*** tstop() called on cqc01 at Fri Apr 26 18:31:39 2019
Module time:
	user time   =       1.08 seconds =       0.02 minutes
	system time =       3.41 seconds =       0.06 minutes
	total time  =         10 seconds =       0.17 minutes
Total time:
	user time   =       2.57 seconds =       0.04 minutes
	system time =       4.42 seconds =       0.07 minutes
	total time  =         17 seconds =       0.28 minutes

*** Psi4 exiting successfully. Buy a developer a beer!
