
    -----------------------------------------------------------------------
          Psi4: An Open-Source Ab Initio Electronic Structure Package
                               Psi4 1.2a1.dev939 

                         Git: Rev {HEAD} fa1ec19 


    R. M. Parrish, L. A. Burns, D. G. A. Smith, A. C. Simmonett,
    A. E. DePrince III, E. G. Hohenstein, U. Bozkaya, A. Yu. Sokolov,
    R. Di Remigio, R. M. Richard, J. F. Gonthier, A. M. James,
    H. R. McAlexander, A. Kumar, M. Saitow, X. Wang, B. P. Pritchard,
    P. Verma, H. F. Schaefer III, K. Patkowski, R. A. King, E. F. Valeev,
    F. A. Evangelista, J. M. Turney, T. D. Crawford, and C. D. Sherrill,
    J. Chem. Theory Comput. 13(7) pp 3185--3197 (2017).
    (doi: 10.1021/acs.jctc.7b00174)

    -----------------------------------------------------------------------


    Psi4 started on: Friday, 26 April 2019 03:34PM

    Process ID:  28990
    PSIDATADIR: /home/grueneis/src/psi4/objdir/stage/usr/local/psi4/share/psi4
    Memory:     500.0 MiB
    Threads:    1
    
  ==> Input File <==

--------------------------------------------------------------------------
# Any line starting with the # character is a comment line

memory 32000 mb

molecule molecule {
0 1
F          0.0000000000        0.0000000000       -0.7006833392
F          0.0000000000        0.0000000000        0.7006833392
}

set {
  reference rhf
  basis aug-cc-pv(D+d)z
  scf_type OUT_OF_CORE
  freeze_core true
}

energy('ccsd')
--------------------------------------------------------------------------

  Memory set to  29.802 GiB by Python driver.

*** tstart() called on cqc01
*** at Fri Apr 26 15:34:06 2019

   => Loading Basis Set <=

    Name: AUG-CC-PV(D+D)Z
    Role: ORBITAL
    Keyword: BASIS
    atoms 1-2 entry F          line   306 file /home/grueneis/src/psi4/objdir/stage/usr/local/psi4/share/psi4/basis/aug-cc-pv_dpd_z.gbs 


         ---------------------------------------------------------
                                   SCF
            by Justin Turney, Rob Parrish, Andy Simmonett
                             and Daniel Smith
                              RHF Reference
                        1 Threads,  30517 MiB Core
         ---------------------------------------------------------

  ==> Geometry <==

    Molecular point group: d2h
    Full point group: D_inf_h

    Geometry (in Angstrom), charge = 0, multiplicity = 1:

       Center              X                  Y                   Z               Mass       
    ------------   -----------------  -----------------  -----------------  -----------------
           F          0.000000000000     0.000000000000    -0.700683339200    18.998403224000
           F          0.000000000000     0.000000000000     0.700683339200    18.998403224000

  Running in d2h symmetry.

  Rotational constants: A = ************  B =      0.90366  C =      0.90366 [cm^-1]
  Rotational constants: A = ************  B =  27091.09239  C =  27091.09239 [MHz]
  Nuclear repulsion =   30.586822532935425

  Charge       = 0
  Multiplicity = 1
  Electrons    = 18
  Nalpha       = 9
  Nbeta        = 9

  ==> Algorithm <==

  SCF Algorithm Type is OUT_OF_CORE.
  DIIS enabled.
  MOM disabled.
  Fractional occupation disabled.
  Guess Type is SAD.
  Energy threshold   = 1.00e-08
  Density threshold  = 1.00e-08
  Integral threshold = 0.00e+00

  ==> Primary Basis <==

  Basis Set: AUG-CC-PV(D+D)Z
    Blend: AUG-CC-PV(D+D)Z
    Number of shells: 18
    Number of basis function: 46
    Number of Cartesian functions: 50
    Spherical Harmonics?: true
    Max angular momentum: 2

  ==> Pre-Iterations <==

   -------------------------------------------------------
    Irrep   Nso     Nmo     Nalpha   Nbeta   Ndocc  Nsocc
   -------------------------------------------------------
     Ag        11      11       0       0       0       0
     B1g        2       2       0       0       0       0
     B2g        5       5       0       0       0       0
     B3g        5       5       0       0       0       0
     Au         2       2       0       0       0       0
     B1u       11      11       0       0       0       0
     B2u        5       5       0       0       0       0
     B3u        5       5       0       0       0       0
   -------------------------------------------------------
    Total      46      46       9       9       9       0
   -------------------------------------------------------

  ==> Integral Setup <==

  ==> DiskJK: Disk-Based J/K Matrices <==

    J tasked:                  Yes
    K tasked:                  Yes
    wK tasked:                  No
    Memory (MB):             22888
    Schwarz Cutoff:          1E-12

  Minimum eigenvalue in the overlap matrix is 3.6060390802E-03.
  Using Symmetric Orthogonalization.

  SCF Guess: Superposition of Atomic Densities via on-the-fly atomic UHF.

  ==> Iterations <==

                        Total Energy        Delta E     RMS |[F,P]|

   @RHF iter   0:  -198.70453669846484   -1.98705e+02   7.36945e-02 
   @RHF iter   1:  -198.65903345885906    4.55032e-02   1.72669e-02 
   @RHF iter   2:  -198.69557946504537   -3.65460e-02   6.35439e-03 DIIS
   @RHF iter   3:  -198.69959372887681   -4.01426e-03   1.13375e-03 DIIS
   @RHF iter   4:  -198.69989479252288   -3.01064e-04   2.54359e-04 DIIS
   @RHF iter   5:  -198.69990942311293   -1.46306e-05   4.51778e-05 DIIS
   @RHF iter   6:  -198.69990989839204   -4.75279e-07   3.63736e-06 DIIS
   @RHF iter   7:  -198.69990990141693   -3.02489e-09   5.52427e-07 DIIS
   @RHF iter   8:  -198.69990990149719   -8.02629e-11   6.13497e-08 DIIS
   @RHF iter   9:  -198.69990990149796   -7.67386e-13   7.43555e-09 DIIS

  ==> Post-Iterations <==

    Orbital Energies (a.u.)
    -----------------------

    Doubly Occupied:                                                      

       1Ag   -26.445696     1B1u  -26.445455     2Ag    -1.780482  
       2B1u   -1.504929     1B3u   -0.816236     1B2u   -0.816236  
       3Ag    -0.761346     1B2g   -0.667466     1B3g   -0.667466  

    Virtual:                                                              

       3B1u    0.065807     4B1u    0.210882     4Ag     0.211844  
       2B3u    0.233921     2B2u    0.233921     2B2g    0.292194  
       2B3g    0.292194     5Ag     0.318654     5B1u    0.523471  
       6Ag     1.180751     1B1g    1.180751     3B2u    1.241336  
       3B3u    1.241336     7Ag     1.416086     6B1u    1.485566  
       1Au     1.485566     4B3u    1.560960     4B2u    1.560960  
       3B2g    1.569148     3B3g    1.569148     7B1u    1.584059  
       8B1u    1.854460     8Ag     2.069026     4B2g    2.096578  
       4B3g    2.096578     9Ag     2.329312     9B1u    4.094602  
      10Ag     4.743664     2B1g    4.743664    11Ag     4.800553  
      10B1u    4.832324     2Au     4.832324     5B3u    4.832728  
       5B2u    4.832728     5B3g    4.911220     5B2g    4.911220  
      11B1u    5.137872  

    Final Occupation by Irrep:
             Ag   B1g   B2g   B3g    Au   B1u   B2u   B3u 
    DOCC [     3,    0,    1,    1,    0,    2,    1,    1 ]

  Energy converged.

  @RHF Final Energy:  -198.69990990149796

   => Energetics <=

    Nuclear Repulsion Energy =             30.5868225329354253
    One-Electron Energy =                -338.7628403155235901
    Two-Electron Energy =                 109.4761078810902291
    Total Energy =                       -198.6999099014979606



Properties will be evaluated at   0.000000,   0.000000,   0.000000 Bohr

Properties computed using the SCF density matrix

  Nuclear Dipole Moment: (a.u.)
     X:     0.0000      Y:     0.0000      Z:     0.0000

  Electronic Dipole Moment: (a.u.)
     X:     0.0000      Y:     0.0000      Z:     0.0000

  Dipole Moment: (a.u.)
     X:     0.0000      Y:     0.0000      Z:     0.0000     Total:     0.0000

  Dipole Moment: (Debye)
     X:     0.0000      Y:     0.0000      Z:     0.0000     Total:     0.0000


*** tstop() called on cqc01 at Fri Apr 26 15:34:08 2019
Module time:
	user time   =       0.48 seconds =       0.01 minutes
	system time =       0.44 seconds =       0.01 minutes
	total time  =          2 seconds =       0.03 minutes
Total time:
	user time   =       0.48 seconds =       0.01 minutes
	system time =       0.44 seconds =       0.01 minutes
	total time  =          2 seconds =       0.03 minutes

*** tstart() called on cqc01
*** at Fri Apr 26 15:34:08 2019


	Wfn Parameters:
	--------------------
	Wavefunction         = CCSD
	Number of irreps     = 8
	Number of MOs        = 46
	Number of active MOs = 44
	AO-Basis             = NONE
	Semicanonical        = false
	Reference            = RHF
	Print Level          = 1

	IRREP	# MOs	# FZDC	# DOCC	# SOCC	# VIRT	# FZVR
	-----	-----	------	------	------	------	------
	 Ag	   11	    1	    2	    0	    8	    0
	 B1g	   2	    0	    0	    0	    2	    0
	 B2g	   5	    0	    1	    0	    4	    0
	 B3g	   5	    0	    1	    0	    4	    0
	 Au	   2	    0	    0	    0	    2	    0
	 B1u	   11	    1	    1	    0	    9	    0
	 B2u	   5	    0	    1	    0	    4	    0
	 B3u	   5	    0	    1	    0	    4	    0
	Transforming integrals...
	IWL integrals will be deleted.
	(OO|OO)...
	Presorting SO-basis two-electron integrals.
	Sorting File: SO Ints (nn|nn) nbuckets = 1
	Transforming the one-electron integrals and constructing Fock matrices
	Starting first half-transformation.
	Sorting half-transformed integrals.
	First half integral transformation complete.
	Starting second half-transformation.
	Two-electron integral transformation complete.
	(OO|OV)...
	Starting second half-transformation.
	Two-electron integral transformation complete.
	(OO|VV)...
	Starting second half-transformation.
	Two-electron integral transformation complete.
	(OV|OO)...
	Starting first half-transformation.
	Sorting half-transformed integrals.
	First half integral transformation complete.
	Starting second half-transformation.
	Two-electron integral transformation complete.
	(OV|OV)...
	Starting second half-transformation.
	Two-electron integral transformation complete.
	(OV|VV)...
	Starting second half-transformation.
	Two-electron integral transformation complete.
	(VV|OO)...
	Starting first half-transformation.
	Sorting half-transformed integrals.
	First half integral transformation complete.
	Starting second half-transformation.
	Two-electron integral transformation complete.
	(VV|OV)...
	Starting second half-transformation.
	Two-electron integral transformation complete.
	(VV|VV)...
	Starting second half-transformation.
	Two-electron integral transformation complete.
	Frozen core energy     =   -163.03912399449968

	Size of irrep 0 of <ab|cd> integrals:      0.047 (MW) /      0.377 (MB)
	Size of irrep 1 of <ab|cd> integrals:      0.017 (MW) /      0.139 (MB)
	Size of irrep 2 of <ab|cd> integrals:      0.028 (MW) /      0.226 (MB)
	Size of irrep 3 of <ab|cd> integrals:      0.028 (MW) /      0.226 (MB)
	Size of irrep 4 of <ab|cd> integrals:      0.017 (MW) /      0.139 (MB)
	Size of irrep 5 of <ab|cd> integrals:      0.047 (MW) /      0.373 (MB)
	Size of irrep 6 of <ab|cd> integrals:      0.028 (MW) /      0.226 (MB)
	Size of irrep 7 of <ab|cd> integrals:      0.028 (MW) /      0.226 (MB)
	Total:                                     0.241 (MW) /      1.932 (MB)

	Size of irrep 0 of <ia|bc> integrals:      0.009 (MW) /      0.071 (MB)
	Size of irrep 1 of <ia|bc> integrals:      0.003 (MW) /      0.023 (MB)
	Size of irrep 2 of <ia|bc> integrals:      0.006 (MW) /      0.044 (MB)
	Size of irrep 3 of <ia|bc> integrals:      0.006 (MW) /      0.044 (MB)
	Size of irrep 4 of <ia|bc> integrals:      0.003 (MW) /      0.023 (MB)
	Size of irrep 5 of <ia|bc> integrals:      0.009 (MW) /      0.073 (MB)
	Size of irrep 6 of <ia|bc> integrals:      0.006 (MW) /      0.044 (MB)
	Size of irrep 7 of <ia|bc> integrals:      0.006 (MW) /      0.044 (MB)
	Total:                                     0.046 (MW) /      0.368 (MB)

	Size of irrep 0 of tijab amplitudes:       0.002 (MW) /      0.016 (MB)
	Size of irrep 1 of tijab amplitudes:       0.001 (MW) /      0.004 (MB)
	Size of irrep 2 of tijab amplitudes:       0.001 (MW) /      0.008 (MB)
	Size of irrep 3 of tijab amplitudes:       0.001 (MW) /      0.008 (MB)
	Size of irrep 4 of tijab amplitudes:       0.001 (MW) /      0.004 (MB)
	Size of irrep 5 of tijab amplitudes:       0.002 (MW) /      0.014 (MB)
	Size of irrep 6 of tijab amplitudes:       0.001 (MW) /      0.008 (MB)
	Size of irrep 7 of tijab amplitudes:       0.001 (MW) /      0.008 (MB)
	Total:                                     0.009 (MW) /      0.070 (MB)

	Nuclear Rep. energy          =     30.58682253293543
	SCF energy                   =   -198.69990990149796
	One-electron energy          =   -118.46689295275186
	Two-electron energy          =     52.21928451281796
	Reference energy             =   -198.69990990149816

*** tstop() called on cqc01 at Fri Apr 26 15:34:10 2019
Module time:
	user time   =       0.03 seconds =       0.00 minutes
	system time =       0.08 seconds =       0.00 minutes
	total time  =          2 seconds =       0.03 minutes
Total time:
	user time   =       0.52 seconds =       0.01 minutes
	system time =       0.52 seconds =       0.01 minutes
	total time  =          4 seconds =       0.07 minutes

*** tstart() called on cqc01
*** at Fri Apr 26 15:34:10 2019

            **************************
            *                        *
            *        CCENERGY        *
            *                        *
            **************************

    Nuclear Rep. energy (wfn)     =   30.586822532935425
    SCF energy          (wfn)     = -198.699909901497961
    Reference energy    (file100) = -198.699909901498160

    Input parameters:
    -----------------
    Wave function   =     CCSD
    Reference wfn   =     RHF
    Brueckner       =     No
    Memory (Mbytes) =     32000.0
    Maxiter         =     50
    R_Convergence   =     1.0e-07
    E_Convergence   =     1.0e-06
    Restart         =     Yes
    DIIS            =     Yes
    AO Basis        =     NONE
    ABCD            =     NEW
    Cache Level     =     2
    Cache Type      =     LOW
    Print Level     =     1
    Num. of threads =     1
    # Amps to Print =     10
    Print MP2 Amps? =     No
    Analyze T2 Amps =     No
    Print Pair Ener =     No
    Local CC        =     No
    SCS-MP2         =     False
    SCSN-MP2        =     False
    SCS-CCSD        =     False

MP2 correlation energy -0.4266300356976719
                Solving CC Amplitude Equations
                ------------------------------
  Iter             Energy              RMS        T1Diag      D1Diag    New D1Diag    D2Diag
  ----     ---------------------    ---------   ----------  ----------  ----------   --------
     0        -0.426630035697671    0.000e+00    0.000000    0.000000    0.000000    0.182250
     1        -0.450540125432797    2.614e-01    0.022593    0.041590    0.041590    0.240746
     2        -0.442028737884783    4.234e-02    0.014856    0.030228    0.030228    0.230220
     3        -0.434451968212740    1.155e-02    0.014620    0.027895    0.027895    0.221121
     4        -0.434300007632971    3.245e-03    0.014029    0.026869    0.026869    0.219131
     5        -0.434027871945985    1.080e-03    0.013893    0.026580    0.026580    0.218165
     6        -0.434018519546576    3.783e-04    0.013880    0.026567    0.026567    0.218016
     7        -0.434044088645439    1.774e-04    0.013886    0.026576    0.026576    0.218068
     8        -0.434038365850331    8.386e-05    0.013888    0.026577    0.026577    0.218092
     9        -0.434039471669998    2.628e-05    0.013887    0.026577    0.026577    0.218107
    10        -0.434041415061432    8.758e-06    0.013887    0.026578    0.026578    0.218114
    11        -0.434041300553581    2.154e-06    0.013887    0.026578    0.026578    0.218115
    12        -0.434041326635902    5.519e-07    0.013887    0.026578    0.026578    0.218115
    13        -0.434041336460830    1.681e-07    0.013887    0.026578    0.026578    0.218115
    14        -0.434041329556597    4.862e-08    0.013887    0.026578    0.026578    0.218115
    14        -0.434041329556597    4.862e-08    0.013887    0.026578    0.026578    0.218115

    Iterations converged.


    CCSD corr. energy   =   -0.434041329556597
    PPL corr. energy    =    0.085701345843549
    OS PPL corr. energy =    0.071843675766864
    SS PPL corr. energy =    0.013857670076685
    Largest TIA Amplitudes:
              5  29        -0.0224218271
              6  33        -0.0224218129
              1   5        -0.0196423132
              3  14        -0.0150953783
              2  10        -0.0150953652
              1   4         0.0136571468
              4  21        -0.0095350540
              4  20         0.0094463344
              1   1         0.0082094483
              1   3        -0.0074180174

    Largest TIjAb Amplitudes:
      1   1  20  20        -0.1763407940
      1   1  20  21         0.1127972648
      1   1  21  20         0.1127972648
      1   1  21  21        -0.0752761663
      3   3  20  20        -0.0399550303
      2   2  20  20        -0.0399550288
      1   1  20  22        -0.0288171811
      1   1  22  20        -0.0288171811
      0   1  20  20        -0.0271414843
      1   0  20  20        -0.0271414843

    SCF energy       (wfn)                    = -198.699909901497961
    Reference energy (file100)                = -198.699909901498160

    Opposite-spin MP2 correlation energy      =   -0.314636763114113
    Same-spin MP2 correlation energy          =   -0.111993272583558
    MP2 correlation energy                    =   -0.426630035697672
      * MP2 total energy                      = -199.126539937195844

    Opposite-spin CCSD correlation energy     =   -0.337130175145789
    Same-spin CCSD correlation energy         =   -0.096911153602938
    CCSD correlation energy                   =   -0.434041329556597
      * CCSD total energy                     = -199.133951231054766


*** tstop() called on cqc01 at Fri Apr 26 15:34:16 2019
Module time:
	user time   =       0.31 seconds =       0.01 minutes
	system time =       0.87 seconds =       0.01 minutes
	total time  =          6 seconds =       0.10 minutes
Total time:
	user time   =       0.83 seconds =       0.01 minutes
	system time =       1.39 seconds =       0.02 minutes
	total time  =         10 seconds =       0.17 minutes

*** Psi4 exiting successfully. Buy a developer a beer!
