
    -----------------------------------------------------------------------
          Psi4: An Open-Source Ab Initio Electronic Structure Package
                               Psi4 1.4a3.dev88 

                         Git: Rev {master} 262e345 


    D. G. A. Smith, L. A. Burns, A. C. Simmonett, R. M. Parrish,
    M. C. Schieber, R. Galvelis, P. Kraus, H. Kruse, R. Di Remigio,
    A. Alenaizan, A. M. James, S. Lehtola, J. P. Misiewicz, M. Scheurer,
    R. A. Shaw, J. B. Schriber, Y. Xie, Z. L. Glick, D. A. Sirianni,
    J. S. O'Brien, J. M. Waldrop, A. Kumar, E. G. Hohenstein,
    B. P. Pritchard, B. R. Brooks, H. F. Schaefer III, A. Yu. Sokolov,
    K. Patkowski, A. E. DePrince III, U. Bozkaya, R. A. King,
    F. A. Evangelista, J. M. Turney, T. D. Crawford, C. D. Sherrill,
    J. Chem. Phys. 152(18) 184108 (2020). https://doi.org/10.1063/5.0006002

                            Additional Code Authors
    E. T. Seidl, C. L. Janssen, E. F. Valeev, M. L. Leininger,
    J. F. Gonthier, R. M. Richard, H. R. McAlexander, M. Saitow, X. Wang,
    P. Verma, and M. H. Lechner

             Previous Authors, Complete List of Code Contributors,
                       and Citations for Specific Modules
    https://github.com/psi4/psi4/blob/master/codemeta.json
    https://github.com/psi4/psi4/graphs/contributors
    http://psicode.org/psi4manual/master/introduction.html#citing-psifour

    -----------------------------------------------------------------------


    Psi4 started on: Friday, 22 January 2021 03:22AM

    Process ID: 307656
    Host:       n411-011.vsc4.prov
    PSIDATADIR: /home/fs71337/gallo4/psi4/eri-6/psi4/build/stage/share/psi4
    Memory:     500.0 MiB
    Threads:    48
    
  ==> Input File <==

--------------------------------------------------------------------------
# Any line starting with the # character is a comment line
memory 250000 mb
molecule molecule{
-1 1
C          0.0000000000        0.0000000000        0.6411129114
N          0.0000000000        0.0000000000       -0.5497659819
}

set {
  reference rhf
  basis aug-cc-pV(6+d)Z
  scf_type OUT_OF_CORE
  freeze_core true
}

energy('ccsd(t)')
--------------------------------------------------------------------------

  Memory set to 232.831 GiB by Python driver.

Scratch directory: /binfl/lv71337/airmler/temp/

*** tstart() called on n411-011.vsc4.prov
*** at Fri Jan 22 03:22:16 2021

   => Loading Basis Set <=

    Name: AUG-CC-PV(6+D)Z
    Role: ORBITAL
    Keyword: BASIS
    atoms 1 entry C          line   267 file /home/fs71337/gallo4/psi4/eri-6/psi4/build/stage/share/psi4/basis/aug-cc-pv_6pd_z.gbs 
    atoms 2 entry N          line   363 file /home/fs71337/gallo4/psi4/eri-6/psi4/build/stage/share/psi4/basis/aug-cc-pv_6pd_z.gbs 


         ---------------------------------------------------------
                                   SCF
               by Justin Turney, Rob Parrish, Andy Simmonett
                          and Daniel G. A. Smith
                              RHF Reference
                       48 Threads, 238418 MiB Core
         ---------------------------------------------------------

  ==> Geometry <==

    Molecular point group: c2v
    Full point group: C_inf_v

    Geometry (in Angstrom), charge = -1, multiplicity = 1:

       Center              X                  Y                   Z               Mass       
    ------------   -----------------  -----------------  -----------------  -----------------
         C            0.000000000000     0.000000000000     0.641307457355    12.000000000000
         N            0.000000000000     0.000000000000    -0.549571435945    14.003074004430

  Running in c2v symmetry.

  Rotational constants: A = ************  B =      1.83942  C =      1.83942 [cm^-1]
  Rotational constants: A = ************  B =  55144.48246  C =  55144.48246 [MHz]
  Nuclear repulsion =   18.663058832583644

  Charge       = -1
  Multiplicity = 1
  Electrons    = 14
  Nalpha       = 7
  Nbeta        = 7

  ==> Algorithm <==

  SCF Algorithm Type is OUT_OF_CORE.
  DIIS enabled.
  MOM disabled.
  Fractional occupation disabled.
  Guess Type is SAD.
  Energy threshold   = 1.00e-08
  Density threshold  = 1.00e-08
  Integral threshold = 1.00e-12

  ==> Primary Basis <==

  Basis Set: AUG-CC-PV(6+D)Z
    Blend: AUG-CC-PV(6+D)Z
    Number of shells: 70
    Number of basis function: 378
    Number of Cartesian functions: 588
    Spherical Harmonics?: true
    Max angular momentum: 6

  ==> Integral Setup <==

  ==> DiskJK: Disk-Based J/K Matrices <==

    J tasked:                  Yes
    K tasked:                  Yes
    wK tasked:                  No
    Memory [MiB]:           178813
    Schwarz Cutoff:          1E-12

  Minimum eigenvalue in the overlap matrix is 1.2813057020E-06.
  Reciprocal condition number of the overlap matrix is 1.7360153018E-07.
    Using symmetric orthogonalization.

  ==> Pre-Iterations <==

  SCF Guess: Superposition of Atomic Densities via on-the-fly atomic UHF (no occupation information).


 WARNING: Atomic UHF is not converging! Try casting from a smaller basis or call Rob at CCMST.

 WARNING: Atomic UHF is not converging! Try casting from a smaller basis or call Rob at CCMST.
   -------------------------
    Irrep   Nso     Nmo    
   -------------------------
     A1       132     132 
     A2        62      62 
     B1        92      92 
     B2        92      92 
   -------------------------
    Total     378     378
   -------------------------

  ==> Iterations <==

                        Total Energy        Delta E     RMS |[F,P]|

   @RHF iter SAD:    78.32533042959344    7.83253e+01   0.00000e+00 
   @RHF iter   1:   -86.54332699820235   -1.64869e+02   2.41294e-02 DIIS
   @RHF iter   2:   -78.82729046973112    7.71604e+00   8.66723e-03 DIIS
   @RHF iter   3:   -87.75546710752826   -8.92818e+00   1.76662e-02 DIIS
   @RHF iter   4:   -89.05923022469825   -1.30376e+00   1.45536e-02 DIIS
   @RHF iter   5:   -90.81080503449242   -1.75157e+00   9.47068e-03 DIIS
   @RHF iter   6:   -92.04671481355865   -1.23591e+00   3.65774e-03 DIIS
   @RHF iter   7:   -92.30344174603221   -2.56727e-01   1.28857e-03 DIIS
   @RHF iter   8:   -92.34505965945141   -4.16179e-02   2.63255e-04 DIIS
   @RHF iter   9:   -92.34630799375262   -1.24833e-03   4.09843e-05 DIIS
   @RHF iter  10:   -92.34641330130124   -1.05308e-04   1.53174e-05 DIIS
   @RHF iter  11:   -92.34642219388842   -8.89259e-06   3.09608e-06 DIIS
   @RHF iter  12:   -92.34642276093017   -5.67042e-07   4.48766e-07 DIIS
   @RHF iter  13:   -92.34642277069007   -9.75990e-09   6.86397e-08 DIIS
   @RHF iter  14:   -92.34642277097257   -2.82498e-10   1.61820e-08 DIIS
   @RHF iter  15:   -92.34642277098848   -1.59162e-11   5.28444e-09 DIIS
  Energy and wave function converged.


  ==> Post-Iterations <==

    Orbital Energies [Eh]
    ---------------------

    Doubly Occupied:                                                      

       1A1   -15.290287     2A1   -10.975559     3A1    -0.918446  
       4A1    -0.344652     5A1    -0.193954     1B2    -0.189411  
       1B1    -0.189411  

    Virtual:                                                              

       6A1     0.154921     2B2     0.167854     2B1     0.167854  
       7A1     0.172985     3B1     0.209371     3B2     0.209371  
       8A1     0.215547     9A1     0.300452     1A2     0.350429  
      10A1     0.350429     4B2     0.356772     4B1     0.356772  
       5B1     0.370751     5B2     0.370751    11A1     0.371885  
      12A1     0.396943     6B1     0.445650     6B2     0.445650  
      13A1     0.466191     2A2     0.478152    14A1     0.478152  
      15A1     0.548500     7B2     0.565915     7B1     0.565915  
       8B2     0.660422     8B1     0.660422     9B1     0.670484  
       9B2     0.670484    16A1     0.676552    10B2     0.721824  
      10B1     0.721824    17A1     0.723598     3A2     0.740101  
      18A1     0.740101    19A1     0.828872    20A1     0.829859  
       4A2     0.829859    11B2     0.886573    11B1     0.886573  
      21A1     0.887012    12B1     0.897883    12B2     0.897883  
       5A2     0.908630    22A1     0.908630    23A1     0.967950  
      13B1     1.002652    13B2     1.002652    24A1     1.073382  
      14B2     1.080557    14B1     1.080557    25A1     1.257463  
       6A2     1.271995    26A1     1.271995    15B2     1.317171  
      15B1     1.317171    27A1     1.358424     7A2     1.488508  
      28A1     1.488508    16B2     1.532293    16B1     1.532293  
      29A1     1.580387    17B2     1.581853    17B1     1.581853  
      30A1     1.616815     8A2     1.616815    18B2     1.616819  
      18B1     1.616819    31A1     1.621320    19B2     1.633448  
      19B1     1.633448    32A1     1.677276     9A2     1.677276  
      33A1     1.760144    20B2     1.795486    20B1     1.795486  
      10A2     1.850425    34A1     1.850425    35A1     1.872811  
      11A2     2.007022    36A1     2.007022    37A1     2.011059  
      21B2     2.027392    21B1     2.027392    22B1     2.044329  
      22B2     2.044329    38A1     2.156228    12A2     2.156228  
      23B2     2.173172    23B1     2.173172    39A1     2.192860  
      13A2     2.388200    40A1     2.388200    24B1     2.418162  
      24B2     2.418162    25B2     2.422484    25B1     2.422484  
      41A1     2.586718    42A1     2.658086    26B1     2.749951  
      26B2     2.749951    27B1     2.873001    27B2     2.873001  
      28B1     2.904158    28B2     2.904158    43A1     2.939202  
      14A2     2.977940    44A1     2.977940    15A2     3.104201  
      45A1     3.104201    46A1     3.139957    29B2     3.298033  
      29B1     3.298033    30B2     3.310868    30B1     3.310868  
      47A1     3.316163    16A2     3.316163    31B2     3.377674  
      31B1     3.377674    48A1     3.382989    32B2     3.398337  
      32B1     3.398337    49A1     3.485762    17A2     3.485762  
      50A1     3.580083    18A2     3.584871    51A1     3.584871  
      52A1     3.648818    19A2     3.648818    53A1     3.783598  
      33B2     3.824502    33B1     3.824502    34B2     3.831743  
      34B1     3.831743    35B2     3.847030    35B1     3.847030  
      54A1     4.105182    55A1     4.183645    20A2     4.183645  
      36B2     4.208039    36B1     4.208039    56A1     4.311767  
      21A2     4.311767    37B2     4.350902    37B1     4.350902  
      57A1     4.453378    38B1     4.459823    38B2     4.459823  
      58A1     4.553352    22A2     4.553352    59A1     4.614647  
      39B2     4.679568    39B1     4.679568    40B2     4.693721  
      40B1     4.693721    23A2     4.755626    60A1     4.755626  
      41B1     5.038982    41B2     5.038982    61A1     5.216271  
      24A2     5.216271    62A1     5.365562    42B1     5.494944  
      42B2     5.494944    63A1     5.511146    64A1     5.539477  
      25A2     5.546592    65A1     5.546592    26A2     5.606720  
      66A1     5.606720    67A1     5.779032    43B2     5.791710  
      43B1     5.791710    44B2     5.813895    44B1     5.813895  
      45B1     6.097394    45B2     6.097394    68A1     6.415002  
      27A2     6.415002    28A2     6.451291    69A1     6.451291  
      46B2     6.472468    46B1     6.472468    70A1     6.535549  
      47B2     6.600744    47B1     6.600744    71A1     6.629643  
      29A2     6.629643    48B2     6.639894    48B1     6.639894  
      30A2     6.667314    72A1     6.667314    49B1     6.913032  
      49B2     6.913032    50B2     6.957012    50B1     6.957012  
      73A1     7.008258    74A1     7.136184    31A2     7.136184  
      51B2     7.255928    51B1     7.255928    75A1     7.479869  
      52B2     7.510846    52B1     7.510846    32A2     7.569561  
      76A1     7.569561    33A2     7.649327    77A1     7.649327  
      53B2     7.714882    53B1     7.714882    78A1     7.720657  
      79A1     7.925631    34A2     7.925631    54B2     7.950572  
      54B1     7.950572    80A1     8.033943    35A2     8.033943  
      81A1     8.066496    55B2     8.076243    55B1     8.076243  
      56B2     8.151277    56B1     8.151277    82A1     8.554796  
      57B2     8.737478    57B1     8.737478    83A1     8.853887  
      36A2     8.853887    58B1     8.886741    58B2     8.886741  
      84A1     8.963240    37A2     9.000526    85A1     9.000526  
      59B2     9.003722    59B1     9.003722    86A1     9.349594  
      38A2     9.349594    60B1     9.517372    60B2     9.517372  
      61B1     9.641691    61B2     9.641691    87A1     9.704877  
      39A2     9.704877    88A1     9.715022    62B2    10.224545  
      62B1    10.224545    89A1    10.303320    40A2    10.303320  
      63B1    10.378777    63B2    10.378777    90A1    10.475146  
      41A2    10.675170    91A1    10.675170    64B2    10.836894  
      64B1    10.836894    42A2    11.218073    92A1    11.218073  
      93A1    11.342527    65B1    11.689437    65B2    11.689437  
      94A1    11.736168    66B2    11.897714    66B1    11.897714  
      95A1    11.906072    96A1    12.364624    43A2    12.364624  
      44A2    12.801211    97A1    12.801211    67B2    12.890387  
      67B1    12.890387    98A1    13.052622    45A2    13.052622  
      99A1    13.090452    68B1    13.107161    68B2    13.107161  
      46A2    13.318771   100A1    13.318771    69B2    13.911616  
      69B1    13.911616   101A1    14.017588    70B2    14.025043  
      70B1    14.025043    71B2    14.276236    71B1    14.276236  
     102A1    14.311229    47A2    14.311229    72B2    14.684744  
      72B1    14.684744    73B2    14.853158    73B1    14.853158  
     103A1    14.940714    48A2    14.940714    74B2    15.005982  
      74B1    15.005982   104A1    15.038261    49A2    15.038261  
     105A1    15.269885    75B2    15.319101    75B1    15.319101  
     106A1    15.504839    76B2    15.856503    76B1    15.856504  
     107A1    16.811002    50A2    16.811002   108A1    16.932923  
      51A2    17.167803   109A1    17.167803    77B2    17.618565  
      77B1    17.618565    52A2    17.650797   110A1    17.650797  
     111A1    17.760649    78B1    17.855352    78B2    17.855352  
      79B2    17.861399    79B1    17.861399    53A2    18.448997  
     112A1    18.448997   113A1    18.536190    54A2    18.536190  
      80B1    18.738138    80B2    18.738138   114A1    18.920504  
      81B2    18.955787    81B1    18.955787    82B1    19.567451  
      82B2    19.567451   115A1    19.826588    55A2    19.826588  
     116A1    19.945041    83B1    20.137837    83B2    20.137837  
     117A1    20.572716    84B2    20.581485    84B1    20.581485  
     118A1    20.777078    56A2    20.777078    57A2    20.799185  
     119A1    20.799185    85B2    21.035798    85B1    21.035798  
     120A1    21.377069   121A1    21.435879    58A2    21.435879  
      86B1    21.824305    86B2    21.824305    87B2    21.892751  
      87B1    21.892751   122A1    22.285926    88B2    22.502491  
      88B1    22.502491   123A1    23.265675    59A2    23.265675  
     124A1    23.497963    60A2    24.347814   125A1    24.347814  
      89B2    25.050000    89B1    25.050000    90B1    25.416019  
      90B2    25.416019   126A1    25.774722    61A2    25.774722  
     127A1    26.391095    91B1    26.626598    91B2    26.626598  
     128A1    27.301367   129A1    29.210471    62A2    29.210471  
      92B1    31.461045    92B2    31.461045   130A1    32.253966  
     131A1    60.724361   132A1    82.502548  

    Final Occupation by Irrep:
             A1    A2    B1    B2 
    DOCC [     5,    0,    1,    1 ]

  @RHF Final Energy:   -92.34642277098848

   => Energetics <=

    Nuclear Repulsion Energy =             18.6630588325836442
    One-Electron Energy =                -165.8155270051910009
    Two-Electron Energy =                  54.8060454016188885
    Total Energy =                        -92.3464227709884824

Computation Completed


Properties will be evaluated at   0.000000,   0.000000,   0.000000 [a0]

Properties computed using the SCF density matrix

  Nuclear Dipole Moment: [e a0]
     X:     0.0000      Y:     0.0000      Z:     0.0016

  Electronic Dipole Moment: [e a0]
     X:     0.0000      Y:     0.0000      Z:    -0.1416

  Dipole Moment: [e a0]
     X:     0.0000      Y:     0.0000      Z:    -0.1400     Total:     0.1400

  Dipole Moment: [D]
     X:     0.0000      Y:     0.0000      Z:    -0.3559     Total:     0.3559


*** tstop() called on n411-011.vsc4.prov at Fri Jan 22 03:38:08 2021
Module time:
	user time   =     844.22 seconds =      14.07 minutes
	system time =      72.18 seconds =       1.20 minutes
	total time  =        952 seconds =      15.87 minutes
Total time:
	user time   =     844.22 seconds =      14.07 minutes
	system time =      72.18 seconds =       1.20 minutes
	total time  =        952 seconds =      15.87 minutes

*** tstart() called on n411-011.vsc4.prov
*** at Fri Jan 22 03:38:08 2021


	Wfn Parameters:
	--------------------
	Wavefunction         = CCSD_T
	Number of irreps     = 4
	Number of MOs        = 378
	Number of active MOs = 376
	AO-Basis             = NONE
	Semicanonical        = false
	Reference            = RHF
	Print Level          = 1

	IRREP	# MOs	# FZDC	# DOCC	# SOCC	# VIRT	# FZVR
	-----	-----	------	------	------	------	------
	 A1	   132	    2	    3	    0	    127	    0
	 A2	   62	    0	    0	    0	    62	    0
	 B1	   92	    0	    1	    0	    91	    0
	 B2	   92	    0	    1	    0	    91	    0
	Transforming integrals...
	IWL integrals will be deleted.
	(OO|OO)...
	Presorting SO-basis two-electron integrals.
	Sorting File: SO Ints (nn|nn) nbuckets = 1
	Constructing frozen core operators
	Starting first half-transformation.
	Sorting half-transformed integrals.
	First half integral transformation complete.
	Starting second half-transformation.
	Two-electron integral transformation complete.
	(OO|OV)...
	Starting second half-transformation.
	Two-electron integral transformation complete.
	(OO|VV)...
	Starting second half-transformation.
	Two-electron integral transformation complete.
	(OV|OO)...
	Starting first half-transformation.
	Sorting half-transformed integrals.
	First half integral transformation complete.
	Starting second half-transformation.
	Two-electron integral transformation complete.
	(OV|OV)...
	Starting second half-transformation.
	Two-electron integral transformation complete.
	(OV|VV)...
	Starting second half-transformation.
	Two-electron integral transformation complete.
	(VV|OO)...
	Starting first half-transformation.
	Sorting half-transformed integrals.
	First half integral transformation complete.
	Starting second half-transformation.
	Two-electron integral transformation complete.
	(VV|OV)...
	Starting second half-transformation.
	Two-electron integral transformation complete.
	(VV|VV)...
	Starting second half-transformation.
	Two-electron integral transformation complete.
	Frozen core energy     =    -86.87024331285777

	Size of irrep 0 of <ab|cd> integrals:   1334.806 (MW) /  10678.450 (MB)
	Size of irrep 1 of <ab|cd> integrals:   1043.936 (MW) /   8351.489 (MB)
	Size of irrep 2 of <ab|cd> integrals:   1183.222 (MW) /   9465.779 (MB)
	Size of irrep 3 of <ab|cd> integrals:   1183.222 (MW) /   9465.779 (MB)
	Total:                                  4745.187 (MW) /  37961.497 (MB)

	Size of irrep 0 of <ia|bc> integrals:     20.569 (MW) /    164.554 (MB)
	Size of irrep 1 of <ia|bc> integrals:     11.890 (MW) /     95.121 (MB)
	Size of irrep 2 of <ia|bc> integrals:     15.892 (MW) /    127.135 (MB)
	Size of irrep 3 of <ia|bc> integrals:     15.892 (MW) /    127.135 (MB)
	Total:                                    64.243 (MW) /    513.944 (MB)

	Size of irrep 0 of tijab amplitudes:       0.402 (MW) /      3.215 (MB)
	Size of irrep 1 of tijab amplitudes:       0.065 (MW) /      0.517 (MB)
	Size of irrep 2 of tijab amplitudes:       0.206 (MW) /      1.651 (MB)
	Size of irrep 3 of tijab amplitudes:       0.206 (MW) /      1.651 (MB)
	Total:                                     0.879 (MW) /      7.034 (MB)

	Nuclear Rep. energy          =     18.66305883258364
	SCF energy                   =    -92.34642277098848
	One-electron energy          =    -44.60673021706145
	Two-electron energy          =     20.46749192634377
	Reference energy             =    -92.34642277099181

*** tstop() called on n411-011.vsc4.prov at Fri Jan 22 03:49:51 2021
Module time:
	user time   =     271.40 seconds =       4.52 minutes
	system time =     160.31 seconds =       2.67 minutes
	total time  =        703 seconds =      11.72 minutes
Total time:
	user time   =    1115.62 seconds =      18.59 minutes
	system time =     232.49 seconds =       3.87 minutes
	total time  =       1655 seconds =      27.58 minutes
            **************************
            *                        *
            *        CCENERGY        *
            *                        *
            **************************

    Nuclear Rep. energy (wfn)     =   18.663058832583644
    SCF energy          (wfn)     =  -92.346422770988482
    Reference energy    (file100) =  -92.346422770991808

    Input parameters:
    -----------------
    Wave function   =     CCSD_T
    Reference wfn   =     RHF
    Brueckner       =     No
    Memory (Mbytes) =     250000.0
    Maxiter         =     50
    R_Convergence   =     1.0e-07
    E_Convergence   =     1.0e-06
    Restart         =     Yes
    DIIS            =     Yes
    AO Basis        =     NONE
    ABCD            =     NEW
    Cache Level     =     2
    Cache Type      =     LOW
    Print Level     =     1
    Num. of threads =     48
    # Amps to Print =     10
    Print MP2 Amps? =     No
    Analyze T2 Amps =     No
    Print Pair Ener =     No
    Local CC        =     No
    SCS-MP2         =     False
    SCSN-MP2        =     False
    SCS-CCSD        =     False

MP2 correlation energy -0.3845458478139561
                Solving CC Amplitude Equations
                ------------------------------
  Iter             Energy              RMS        T1Diag      D1Diag    New D1Diag    D2Diag
  ----     ---------------------    ---------   ----------  ----------  ----------   --------
     0        -0.384545847813956    0.000e+00    0.000000    0.000000    0.000000    0.168486
     1        -0.359697974588586    6.802e-02    0.014513    0.028542    0.028542    0.156037
     2        -0.372891688883701    2.799e-02    0.013798    0.026455    0.026455    0.166468
     3        -0.375819123127452    1.090e-02    0.016774    0.031455    0.031455    0.171539
     4        -0.375710524397992    3.347e-03    0.017265    0.031979    0.031979    0.172477
     5        -0.375826823399622    1.640e-03    0.017713    0.032448    0.032448    0.173107
     6        -0.375842038527873    4.395e-04    0.017813    0.032550    0.032550    0.173141
     7        -0.375832532792812    2.098e-04    0.017841    0.032551    0.032551    0.173106
     8        -0.375829190486848    7.311e-05    0.017850    0.032551    0.032551    0.173091
     9        -0.375829594068702    2.770e-05    0.017854    0.032553    0.032553    0.173086
    10        -0.375828117502416    1.097e-05    0.017855    0.032551    0.032551    0.173083
    11        -0.375828293615255    2.880e-06    0.017854    0.032551    0.032551    0.173083
    12        -0.375828172243454    1.137e-06    0.017854    0.032551    0.032551    0.173083
    13        -0.375828136253331    3.643e-07    0.017854    0.032551    0.032551    0.173083
    14        -0.375828138633805    1.507e-07    0.017854    0.032551    0.032551    0.173083
    15        -0.375828135386069    7.059e-08    0.017854    0.032551    0.032551    0.173083

    Iterations converged.


    Largest TIA Amplitudes:
              2   3        -0.0160557022
              2   1         0.0141304566
              3 195         0.0133160834
              4 286         0.0133160074
              4 283         0.0114256105
              3 192         0.0114254647
              4 284         0.0112981830
              3 193         0.0112979717
              4 285         0.0111598344
              3 194         0.0111595702

    Largest TIjAb Amplitudes:
      3   3 194 194        -0.0462897757
      4   4 285 285        -0.0462897295
      3   4 194 285        -0.0295848640
      4   3 285 194        -0.0295848640
      3   3 193 194        -0.0294798320
      3   3 194 193        -0.0294798320
      4   4 284 285        -0.0294797788
      4   4 285 284        -0.0294797788
      4   4 282 285         0.0233169921
      4   4 285 282         0.0233169921

    SCF energy       (wfn)                    =  -92.346422770988482
    Reference energy (file100)                =  -92.346422770991808

    Opposite-spin MP2 correlation energy      =   -0.291239152897628
    Same-spin MP2 correlation energy          =   -0.093306694916328
    Singles MP2 correlation energy            =   -0.000000000000000
    MP2 correlation energy                    =   -0.384545847813956
      * MP2 total energy                      =  -92.730968618805761

    Opposite-spin CCSD correlation energy     =   -0.297797003265260
    Same-spin CCSD correlation energy         =   -0.078031132121454
    Singles CCSD correlation energy           =    0.000000000000000
    CCSD correlation energy                   =   -0.375828135386069
      * CCSD total energy                     =  -92.722250906377880

            **************************
            *                        *
            *        CCTRIPLES       *
            *                        *
            **************************


    Wave function   =    CCSD_T
    Reference wfn   =      RHF

    Nuclear Rep. energy (wfn)                =   18.663058832583644
    SCF energy          (wfn)                =  -92.346422770988482
    Reference energy    (file100)            =  -92.346422770991808
    CCSD energy         (file100)            =   -0.375828135386069
    Total CCSD energy   (file100)            =  -92.722250906377880

    Number of ijk index combinations:               35
    Memory available in words        :     31250000000
    ~Words needed per explicit thread:         8193532
    Number of threads for explicit ijk threading:   48

    (T) energy                                =   -0.022288192427019
      * CCSD(T) total energy                  =  -92.744539098804893


    Psi4 stopped on: Friday, 22 January 2021 03:57AM
    Psi4 wall time for execution: 0:35:12.60

*** Psi4 exiting successfully. Buy a developer a beer!
