
    -----------------------------------------------------------------------
          Psi4: An Open-Source Ab Initio Electronic Structure Package
                               Psi4 1.4a3.dev88 

                         Git: Rev {master} 262e345 


    D. G. A. Smith, L. A. Burns, A. C. Simmonett, R. M. Parrish,
    M. C. Schieber, R. Galvelis, P. Kraus, H. Kruse, R. Di Remigio,
    A. Alenaizan, A. M. James, S. Lehtola, J. P. Misiewicz, M. Scheurer,
    R. A. Shaw, J. B. Schriber, Y. Xie, Z. L. Glick, D. A. Sirianni,
    J. S. O'Brien, J. M. Waldrop, A. Kumar, E. G. Hohenstein,
    B. P. Pritchard, B. R. Brooks, H. F. Schaefer III, A. Yu. Sokolov,
    K. Patkowski, A. E. DePrince III, U. Bozkaya, R. A. King,
    F. A. Evangelista, J. M. Turney, T. D. Crawford, C. D. Sherrill,
    J. Chem. Phys. 152(18) 184108 (2020). https://doi.org/10.1063/5.0006002

                            Additional Code Authors
    E. T. Seidl, C. L. Janssen, E. F. Valeev, M. L. Leininger,
    J. F. Gonthier, R. M. Richard, H. R. McAlexander, M. Saitow, X. Wang,
    P. Verma, and M. H. Lechner

             Previous Authors, Complete List of Code Contributors,
                       and Citations for Specific Modules
    https://github.com/psi4/psi4/blob/master/codemeta.json
    https://github.com/psi4/psi4/graphs/contributors
    http://psicode.org/psi4manual/master/introduction.html#citing-psifour

    -----------------------------------------------------------------------


    Psi4 started on: Tuesday, 26 January 2021 06:08PM

    Process ID: 402834
    Host:       n412-040.vsc4.prov
    PSIDATADIR: /home/fs71337/gallo4/psi4/eri-6/psi4/build/stage/share/psi4
    Memory:     500.0 MiB
    Threads:    48
    
  ==> Input File <==

--------------------------------------------------------------------------
# Any line starting with the # character is a comment line
memory 250000 mb
molecule molecule{
-1 1
C          0.0000000000        0.0000000000        0.6411129114
N          0.0000000000        0.0000000000       -0.5497659819
}

set {
  reference rhf
  basis aug-cc-pV(t+d)Z
  scf_type OUT_OF_CORE
  freeze_core true
}

energy('ccsd(t)')
--------------------------------------------------------------------------

  Memory set to 232.831 GiB by Python driver.

Scratch directory: /binfl/lv71337/airmler/temp/

*** tstart() called on n412-040.vsc4.prov
*** at Tue Jan 26 18:08:13 2021

   => Loading Basis Set <=

    Name: AUG-CC-PV(T+D)Z
    Role: ORBITAL
    Keyword: BASIS
    atoms 1 entry C          line   267 file /home/fs71337/gallo4/psi4/eri-6/psi4/build/stage/share/psi4/basis/aug-cc-pv_tpd_z.gbs 
    atoms 2 entry N          line   313 file /home/fs71337/gallo4/psi4/eri-6/psi4/build/stage/share/psi4/basis/aug-cc-pv_tpd_z.gbs 


         ---------------------------------------------------------
                                   SCF
               by Justin Turney, Rob Parrish, Andy Simmonett
                          and Daniel G. A. Smith
                              RHF Reference
                       48 Threads, 238418 MiB Core
         ---------------------------------------------------------

  ==> Geometry <==

    Molecular point group: c2v
    Full point group: C_inf_v

    Geometry (in Angstrom), charge = -1, multiplicity = 1:

       Center              X                  Y                   Z               Mass       
    ------------   -----------------  -----------------  -----------------  -----------------
         C            0.000000000000     0.000000000000     0.641307457355    12.000000000000
         N            0.000000000000     0.000000000000    -0.549571435945    14.003074004430

  Running in c2v symmetry.

  Rotational constants: A = ************  B =      1.83942  C =      1.83942 [cm^-1]
  Rotational constants: A = ************  B =  55144.48246  C =  55144.48246 [MHz]
  Nuclear repulsion =   18.663058832583644

  Charge       = -1
  Multiplicity = 1
  Electrons    = 14
  Nalpha       = 7
  Nbeta        = 7

  ==> Algorithm <==

  SCF Algorithm Type is OUT_OF_CORE.
  DIIS enabled.
  MOM disabled.
  Fractional occupation disabled.
  Guess Type is SAD.
  Energy threshold   = 1.00e-08
  Density threshold  = 1.00e-08
  Integral threshold = 1.00e-12

  ==> Primary Basis <==

  Basis Set: AUG-CC-PV(T+D)Z
    Blend: AUG-CC-PV(T+D)Z
    Number of shells: 28
    Number of basis function: 92
    Number of Cartesian functions: 110
    Spherical Harmonics?: true
    Max angular momentum: 3

  ==> Integral Setup <==

  ==> DiskJK: Disk-Based J/K Matrices <==

    J tasked:                  Yes
    K tasked:                  Yes
    wK tasked:                  No
    Memory [MiB]:           178813
    Schwarz Cutoff:          1E-12

  Minimum eigenvalue in the overlap matrix is 2.6086524299E-04.
  Reciprocal condition number of the overlap matrix is 5.1459687677E-05.
    Using symmetric orthogonalization.

  ==> Pre-Iterations <==

  SCF Guess: Superposition of Atomic Densities via on-the-fly atomic UHF (no occupation information).


 WARNING: Atomic UHF is not converging! Try casting from a smaller basis or call Rob at CCMST.

 WARNING: Atomic UHF is not converging! Try casting from a smaller basis or call Rob at CCMST.
   -------------------------
    Irrep   Nso     Nmo    
   -------------------------
     A1        38      38 
     A2        10      10 
     B1        22      22 
     B2        22      22 
   -------------------------
    Total      92      92
   -------------------------

  ==> Iterations <==

                        Total Energy        Delta E     RMS |[F,P]|

   @RHF iter SAD:   -68.46863750906928   -6.84686e+01   0.00000e+00 
   @RHF iter   1:   -88.40859612592129   -1.99400e+01   6.84786e-02 DIIS
   @RHF iter   2:   -85.02109524950869    3.38750e+00   3.89899e-02 DIIS
   @RHF iter   3:   -90.60553649321525   -5.58444e+00   3.84495e-02 DIIS
   @RHF iter   4:   -92.02207798783164   -1.41654e+00   1.42173e-02 DIIS
   @RHF iter   5:   -92.30492513800071   -2.82847e-01   4.24141e-03 DIIS
   @RHF iter   6:   -92.33800118672789   -3.30760e-02   1.04843e-03 DIIS
   @RHF iter   7:   -92.33962811988280   -1.62693e-03   5.19245e-04 DIIS
   @RHF iter   8:   -92.33999926801296   -3.71148e-04   1.81206e-04 DIIS
   @RHF iter   9:   -92.34005029212958   -5.10241e-05   1.24681e-05 DIIS
   @RHF iter  10:   -92.34005083512653   -5.42997e-07   3.90759e-06 DIIS
   @RHF iter  11:   -92.34005086060996   -2.54834e-08   4.83612e-07 DIIS
   @RHF iter  12:   -92.34005086112846   -5.18497e-10   5.07152e-08 DIIS
   @RHF iter  13:   -92.34005086114115   -1.26903e-11   1.41130e-08 DIIS
   @RHF iter  14:   -92.34005086114247   -1.32161e-12   6.31012e-09 DIIS
  Energy and wave function converged.


  ==> Post-Iterations <==

    Orbital Energies [Eh]
    ---------------------

    Doubly Occupied:                                                      

       1A1   -15.292556     2A1   -10.976855     3A1    -0.919272  
       4A1    -0.344839     5A1    -0.193871     1B1    -0.189417  
       1B2    -0.189417  

    Virtual:                                                              

       6A1     0.209309     2B1     0.233459     2B2     0.233459  
       7A1     0.245340     3B2     0.312614     3B1     0.312614  
       8A1     0.318312     9A1     0.443016     4B1     0.454806  
       4B2     0.454806     1A2     0.513173    10A1     0.513173  
      11A1     0.577295     5B1     0.621299     5B2     0.621299  
       6B2     0.716036     6B1     0.716036    12A1     0.725071  
      13A1     0.762973    14A1     0.773517     2A2     0.773517  
       7B2     0.918995     7B1     0.918995    15A1     0.988593  
      16A1     1.238217     8B1     1.273717     8B2     1.273717  
       3A2     1.319767    17A1     1.319767     9B1     1.348683  
       9B2     1.348683    18A1     1.376509    10B1     1.425639  
      10B2     1.425639    19A1     1.493251     4A2     1.493251  
      20A1     1.521570    21A1     1.641183    11B1     1.715007  
      11B2     1.715007    12B1     1.900089    12B2     1.900089  
      22A1     1.929862     5A2     1.929862    23A1     2.135222  
      13B2     2.147791    13B1     2.147791    24A1     2.369072  
       6A2     2.369072    14B2     2.396454    14B1     2.396454  
      25A1     2.544296    26A1     2.825331    15B1     3.107605  
      15B2     3.107605    27A1     3.637057     7A2     3.713092  
      28A1     3.713092    16B1     3.755837    16B2     3.755837  
      17B1     3.829825    17B2     3.829825     8A2     3.908849  
      29A1     3.908849    18B1     3.944981    18B2     3.944981  
      30A1     3.953712    31A1     4.021174    19B2     4.739209  
      19B1     4.739209    32A1     4.835176    20B2     5.247595  
      20B1     5.247595     9A2     5.460860    33A1     5.460860  
      10A2     5.636344    34A1     5.636344    21B2     5.843786  
      21B1     5.843786    22B2     6.253938    22B1     6.253938  
      35A1     6.264142    36A1     6.341286    37A1    11.295088  
      38A1    15.311815  

    Final Occupation by Irrep:
             A1    A2    B1    B2 
    DOCC [     5,    0,    1,    1 ]

  @RHF Final Energy:   -92.34005086114247

   => Energetics <=

    Nuclear Repulsion Energy =             18.6630588325836442
    One-Electron Energy =                -165.7937640265818686
    Two-Electron Energy =                  54.7906543328557376
    Total Energy =                        -92.3400508611424726

Computation Completed


Properties will be evaluated at   0.000000,   0.000000,   0.000000 [a0]

Properties computed using the SCF density matrix

  Nuclear Dipole Moment: [e a0]
     X:     0.0000      Y:     0.0000      Z:     0.0016

  Electronic Dipole Moment: [e a0]
     X:     0.0000      Y:     0.0000      Z:    -0.1398

  Dipole Moment: [e a0]
     X:     0.0000      Y:     0.0000      Z:    -0.1382     Total:     0.1382

  Dipole Moment: [D]
     X:     0.0000      Y:     0.0000      Z:    -0.3512     Total:     0.3512


*** tstop() called on n412-040.vsc4.prov at Tue Jan 26 18:08:16 2021
Module time:
	user time   =      33.32 seconds =       0.56 minutes
	system time =       1.30 seconds =       0.02 minutes
	total time  =          3 seconds =       0.05 minutes
Total time:
	user time   =      33.32 seconds =       0.56 minutes
	system time =       1.30 seconds =       0.02 minutes
	total time  =          3 seconds =       0.05 minutes

*** tstart() called on n412-040.vsc4.prov
*** at Tue Jan 26 18:08:16 2021


	Wfn Parameters:
	--------------------
	Wavefunction         = CCSD_T
	Number of irreps     = 4
	Number of MOs        = 92
	Number of active MOs = 90
	AO-Basis             = NONE
	Semicanonical        = false
	Reference            = RHF
	Print Level          = 1

	IRREP	# MOs	# FZDC	# DOCC	# SOCC	# VIRT	# FZVR
	-----	-----	------	------	------	------	------
	 A1	   38	    2	    3	    0	    33	    0
	 A2	   10	    0	    0	    0	    10	    0
	 B1	   22	    0	    1	    0	    21	    0
	 B2	   22	    0	    1	    0	    21	    0
	Transforming integrals...
	IWL integrals will be deleted.
	(OO|OO)...
	Presorting SO-basis two-electron integrals.
	Sorting File: SO Ints (nn|nn) nbuckets = 1
	Constructing frozen core operators
	Starting first half-transformation.
	Sorting half-transformed integrals.
	First half integral transformation complete.
	Starting second half-transformation.
	Two-electron integral transformation complete.
	(OO|OV)...
	Starting second half-transformation.
	Two-electron integral transformation complete.
	(OO|VV)...
	Starting second half-transformation.
	Two-electron integral transformation complete.
	(OV|OO)...
	Starting first half-transformation.
	Sorting half-transformed integrals.
	First half integral transformation complete.
	Starting second half-transformation.
	Two-electron integral transformation complete.
	(OV|OV)...
	Starting second half-transformation.
	Two-electron integral transformation complete.
	(OV|VV)...
	Starting second half-transformation.
	Two-electron integral transformation complete.
	(VV|OO)...
	Starting first half-transformation.
	Sorting half-transformed integrals.
	First half integral transformation complete.
	Starting second half-transformation.
	Two-electron integral transformation complete.
	(VV|OV)...
	Starting second half-transformation.
	Two-electron integral transformation complete.
	(VV|VV)...
	Starting second half-transformation.
	Two-electron integral transformation complete.
	Frozen core energy     =    -86.86839306686957

	Size of irrep 0 of <ab|cd> integrals:      4.289 (MW) /     34.312 (MB)
	Size of irrep 1 of <ab|cd> integrals:      2.378 (MW) /     19.022 (MB)
	Size of irrep 2 of <ab|cd> integrals:      3.262 (MW) /     26.093 (MB)
	Size of irrep 3 of <ab|cd> integrals:      3.262 (MW) /     26.093 (MB)
	Total:                                    13.190 (MW) /    105.521 (MB)

	Size of irrep 0 of <ia|bc> integrals:      0.292 (MW) /      2.336 (MB)
	Size of irrep 1 of <ia|bc> integrals:      0.111 (MW) /      0.888 (MB)
	Size of irrep 2 of <ia|bc> integrals:      0.191 (MW) /      1.531 (MB)
	Size of irrep 3 of <ia|bc> integrals:      0.191 (MW) /      1.531 (MB)
	Total:                                     0.786 (MW) /      6.287 (MB)

	Size of irrep 0 of tijab amplitudes:       0.023 (MW) /      0.182 (MB)
	Size of irrep 1 of tijab amplitudes:       0.003 (MW) /      0.025 (MB)
	Size of irrep 2 of tijab amplitudes:       0.011 (MW) /      0.087 (MB)
	Size of irrep 3 of tijab amplitudes:       0.011 (MW) /      0.087 (MB)
	Total:                                     0.048 (MW) /      0.380 (MB)

	Nuclear Rep. energy          =     18.66305883258364
	SCF energy                   =    -92.34005086114247
	One-electron energy          =    -44.59580111385575
	Two-electron energy          =     20.46108448699894
	Reference energy             =    -92.34005086114274

*** tstop() called on n412-040.vsc4.prov at Tue Jan 26 18:08:21 2021
Module time:
	user time   =       1.00 seconds =       0.02 minutes
	system time =       0.62 seconds =       0.01 minutes
	total time  =          5 seconds =       0.08 minutes
Total time:
	user time   =      34.32 seconds =       0.57 minutes
	system time =       1.92 seconds =       0.03 minutes
	total time  =          8 seconds =       0.13 minutes
            **************************
            *                        *
            *        CCENERGY        *
            *                        *
            **************************

    Nuclear Rep. energy (wfn)     =   18.663058832583644
    SCF energy          (wfn)     =  -92.340050861142473
    Reference energy    (file100) =  -92.340050861142743

    Input parameters:
    -----------------
    Wave function   =     CCSD_T
    Reference wfn   =     RHF
    Brueckner       =     No
    Memory (Mbytes) =     250000.0
    Maxiter         =     50
    R_Convergence   =     1.0e-07
    E_Convergence   =     1.0e-06
    Restart         =     Yes
    DIIS            =     Yes
    AO Basis        =     NONE
    ABCD            =     NEW
    Cache Level     =     2
    Cache Type      =     LOW
    Print Level     =     1
    Num. of threads =     48
    # Amps to Print =     10
    Print MP2 Amps? =     No
    Analyze T2 Amps =     No
    Print Pair Ener =     No
    Local CC        =     No
    SCS-MP2         =     False
    SCSN-MP2        =     False
    SCS-CCSD        =     False

MP2 correlation energy -0.3530325218167439
                Solving CC Amplitude Equations
                ------------------------------
  Iter             Energy              RMS        T1Diag      D1Diag    New D1Diag    D2Diag
  ----     ---------------------    ---------   ----------  ----------  ----------   --------
     0        -0.353032521816744    0.000e+00    0.000000    0.000000    0.000000    0.166917
     1        -0.337460706202112    6.672e-02    0.014133    0.027029    0.027029    0.157588
     2        -0.349625980308190    2.691e-02    0.013793    0.025445    0.025445    0.167853
     3        -0.352439457170860    1.106e-02    0.016873    0.030350    0.030350    0.172956
     4        -0.352385974892128    3.371e-03    0.017456    0.030937    0.030937    0.174010
     5        -0.352519884643110    1.570e-03    0.017924    0.031643    0.031643    0.174655
     6        -0.352516888279908    3.824e-04    0.018014    0.032008    0.032008    0.174660
     7        -0.352508861212575    1.502e-04    0.018034    0.032134    0.032134    0.174629
     8        -0.352507705367283    5.198e-05    0.018044    0.032179    0.032179    0.174617
     9        -0.352507351355666    1.771e-05    0.018046    0.032192    0.032192    0.174613
    10        -0.352506249451933    5.988e-06    0.018047    0.032196    0.032196    0.174610
    11        -0.352506526574195    1.693e-06    0.018047    0.032196    0.032196    0.174611
    12        -0.352506430868509    6.486e-07    0.018047    0.032197    0.032197    0.174610
    13        -0.352506435325118    2.249e-07    0.018047    0.032197    0.032197    0.174610
    14        -0.352506440506712    8.665e-08    0.018047    0.032197    0.032197    0.174610

    Iterations converged.


    Largest TIA Amplitudes:
              2   1         0.0208722619
              2   0         0.0148840143
              2   3        -0.0148683729
              4  70         0.0143885541
              3  49         0.0143885432
              3  45         0.0138708307
              4  66         0.0138707501
              3  47         0.0129154021
              4  68         0.0129153921
              3  44         0.0127175771

    Largest TIjAb Amplitudes:
      4   4  66  66        -0.0662173880
      3   3  45  45        -0.0662173695
      3   4  45  66        -0.0422225310
      4   3  66  45        -0.0422225310
      2   2  45  45        -0.0318693486
      2   2  66  66        -0.0318693374
      4   4  66  67        -0.0314083610
      4   4  67  66        -0.0314083610
      3   3  45  46        -0.0314083543
      3   3  46  45        -0.0314083543

    SCF energy       (wfn)                    =  -92.340050861142473
    Reference energy (file100)                =  -92.340050861142743

    Opposite-spin MP2 correlation energy      =   -0.263060596464051
    Same-spin MP2 correlation energy          =   -0.089971925352693
    Singles MP2 correlation energy            =   -0.000000000000000
    MP2 correlation energy                    =   -0.353032521816744
      * MP2 total energy                      =  -92.693083382959486

    Opposite-spin CCSD correlation energy     =   -0.277262443911347
    Same-spin CCSD correlation energy         =   -0.075243996595367
    Singles CCSD correlation energy           =    0.000000000000000
    CCSD correlation energy                   =   -0.352506440506712
      * CCSD total energy                     =  -92.692557301649458

            **************************
            *                        *
            *        CCTRIPLES       *
            *                        *
            **************************


    Wave function   =    CCSD_T
    Reference wfn   =      RHF

    Nuclear Rep. energy (wfn)                =   18.663058832583644
    SCF energy          (wfn)                =  -92.340050861142473
    Reference energy    (file100)            =  -92.340050861142743
    CCSD energy         (file100)            =   -0.352506440506712
    Total CCSD energy   (file100)            =  -92.692557301649458

    Number of ijk index combinations:               35
    Memory available in words        :     31250000000
    ~Words needed per explicit thread:          143748
    Number of threads for explicit ijk threading:   48

    (T) energy                                =   -0.020487545032025
      * CCSD(T) total energy                  =  -92.713044846681484


    Psi4 stopped on: Tuesday, 26 January 2021 06:08PM
    Psi4 wall time for execution: 0:00:14.21

*** Psi4 exiting successfully. Buy a developer a beer!
