
    -----------------------------------------------------------------------
          Psi4: An Open-Source Ab Initio Electronic Structure Package
                               Psi4 1.4a3.dev88 

                         Git: Rev {master} 262e345 


    D. G. A. Smith, L. A. Burns, A. C. Simmonett, R. M. Parrish,
    M. C. Schieber, R. Galvelis, P. Kraus, H. Kruse, R. Di Remigio,
    A. Alenaizan, A. M. James, S. Lehtola, J. P. Misiewicz, M. Scheurer,
    R. A. Shaw, J. B. Schriber, Y. Xie, Z. L. Glick, D. A. Sirianni,
    J. S. O'Brien, J. M. Waldrop, A. Kumar, E. G. Hohenstein,
    B. P. Pritchard, B. R. Brooks, H. F. Schaefer III, A. Yu. Sokolov,
    K. Patkowski, A. E. DePrince III, U. Bozkaya, R. A. King,
    F. A. Evangelista, J. M. Turney, T. D. Crawford, C. D. Sherrill,
    J. Chem. Phys. 152(18) 184108 (2020). https://doi.org/10.1063/5.0006002

                            Additional Code Authors
    E. T. Seidl, C. L. Janssen, E. F. Valeev, M. L. Leininger,
    J. F. Gonthier, R. M. Richard, H. R. McAlexander, M. Saitow, X. Wang,
    P. Verma, and M. H. Lechner

             Previous Authors, Complete List of Code Contributors,
                       and Citations for Specific Modules
    https://github.com/psi4/psi4/blob/master/codemeta.json
    https://github.com/psi4/psi4/graphs/contributors
    http://psicode.org/psi4manual/master/introduction.html#citing-psifour

    -----------------------------------------------------------------------


    Psi4 started on: Wednesday, 20 January 2021 06:37PM

    Process ID: 175387
    Host:       n412-037.vsc4.prov
    PSIDATADIR: /home/fs71337/gallo4/psi4/psi4/build/stage/share/psi4
    Memory:     500.0 MiB
    Threads:    48
    
  ==> Input File <==

--------------------------------------------------------------------------
# Any line starting with the # character is a comment line
memory 250000 mb
molecule molecule{
-1 1
C          0.0000000000        0.0000000000        0.6411129114
N          0.0000000000        0.0000000000       -0.5497659819
}

set {
  reference rhf
  basis aug-cc-pv(q+d)z
  scf_type OUT_OF_CORE
  freeze_core true
}

energy('ccsd(t)')
--------------------------------------------------------------------------

  Memory set to 232.831 GiB by Python driver.

Scratch directory: /binfl/lv71337/airmler/temp/

*** tstart() called on n412-037.vsc4.prov
*** at Wed Jan 20 18:37:46 2021

   => Loading Basis Set <=

    Name: AUG-CC-PV(Q+D)Z
    Role: ORBITAL
    Keyword: BASIS
    atoms 1 entry C          line   331 file /home/fs71337/gallo4/psi4/psi4/build/stage/share/psi4/basis/aug-cc-pv_qpd_z.gbs 
    atoms 2 entry N          line   391 file /home/fs71337/gallo4/psi4/psi4/build/stage/share/psi4/basis/aug-cc-pv_qpd_z.gbs 


         ---------------------------------------------------------
                                   SCF
               by Justin Turney, Rob Parrish, Andy Simmonett
                          and Daniel G. A. Smith
                              RHF Reference
                       48 Threads, 238418 MiB Core
         ---------------------------------------------------------

  ==> Geometry <==

    Molecular point group: c2v
    Full point group: C_inf_v

    Geometry (in Angstrom), charge = -1, multiplicity = 1:

       Center              X                  Y                   Z               Mass       
    ------------   -----------------  -----------------  -----------------  -----------------
         C            0.000000000000     0.000000000000     0.641307457355    12.000000000000
         N            0.000000000000     0.000000000000    -0.549571435945    14.003074004430

  Running in c2v symmetry.

  Rotational constants: A = ************  B =      1.83942  C =      1.83942 [cm^-1]
  Rotational constants: A = ************  B =  55144.48246  C =  55144.48246 [MHz]
  Nuclear repulsion =   18.663058832583644

  Charge       = -1
  Multiplicity = 1
  Electrons    = 14
  Nalpha       = 7
  Nbeta        = 7

  ==> Algorithm <==

  SCF Algorithm Type is OUT_OF_CORE.
  DIIS enabled.
  MOM disabled.
  Fractional occupation disabled.
  Guess Type is SAD.
  Energy threshold   = 1.00e-08
  Density threshold  = 1.00e-08
  Integral threshold = 1.00e-12

  ==> Primary Basis <==

  Basis Set: AUG-CC-PV(Q+D)Z
    Blend: AUG-CC-PV(Q+D)Z
    Number of shells: 40
    Number of basis function: 160
    Number of Cartesian functions: 210
    Spherical Harmonics?: true
    Max angular momentum: 4

  ==> Integral Setup <==

  ==> DiskJK: Disk-Based J/K Matrices <==

    J tasked:                  Yes
    K tasked:                  Yes
    wK tasked:                  No
    Memory [MiB]:           178813
    Schwarz Cutoff:          1E-12

  Minimum eigenvalue in the overlap matrix is 6.4234294208E-05.
  Reciprocal condition number of the overlap matrix is 1.1007264765E-05.
    Using symmetric orthogonalization.

  ==> Pre-Iterations <==

  SCF Guess: Superposition of Atomic Densities via on-the-fly atomic UHF (no occupation information).


 WARNING: Atomic UHF is not converging! Try casting from a smaller basis or call Rob at CCMST.

 WARNING: Atomic UHF is not converging! Try casting from a smaller basis or call Rob at CCMST.
   -------------------------
    Irrep   Nso     Nmo    
   -------------------------
     A1        62      62 
     A2        22      22 
     B1        38      38 
     B2        38      38 
   -------------------------
    Total     160     160
   -------------------------

  ==> Iterations <==

                        Total Energy        Delta E     RMS |[F,P]|

   @RHF iter SAD:   -82.50025408384914   -8.25003e+01   0.00000e+00 
   @RHF iter   1:   -91.16299160280953   -8.66274e+00   1.81912e-02 DIIS
   @RHF iter   2:   -86.72520420237255    4.43779e+00   2.24970e-02 DIIS
   @RHF iter   3:   -92.02249533575109   -5.29729e+00   8.71328e-03 DIIS
   @RHF iter   4:   -92.31587056044452   -2.93375e-01   2.36729e-03 DIIS
   @RHF iter   5:   -92.34067523693061   -2.48047e-02   8.56400e-04 DIIS
   @RHF iter   6:   -92.34492609147608   -4.25085e-03   1.72988e-04 DIIS
   @RHF iter   7:   -92.34520134826693   -2.75257e-04   6.18968e-05 DIIS
   @RHF iter   8:   -92.34525469081997   -5.33426e-05   2.04774e-05 DIIS
   @RHF iter   9:   -92.34526293709267   -8.24627e-06   9.19874e-06 DIIS
   @RHF iter  10:   -92.34526520635333   -2.26926e-06   2.61552e-06 DIIS
   @RHF iter  11:   -92.34526535084953   -1.44496e-07   3.24347e-07 DIIS
   @RHF iter  12:   -92.34526535168477   -8.35243e-10   4.99005e-08 DIIS
   @RHF iter  13:   -92.34526535170176   -1.69820e-11   9.47249e-09 DIIS
  Energy and wave function converged.


  ==> Post-Iterations <==

    Orbital Energies [Eh]
    ---------------------

    Doubly Occupied:                                                      

       1A1   -15.290741     2A1   -10.975819     3A1    -0.918618  
       4A1    -0.344694     5A1    -0.193914     1B2    -0.189405  
       1B1    -0.189405  

    Virtual:                                                              

       6A1     0.191462     2B1     0.211126     2B2     0.211126  
       7A1     0.216901     3B2     0.273494     3B1     0.273494  
       8A1     0.281872     9A1     0.391819     4B1     0.417676  
       4B2     0.417676    10A1     0.420744     1A2     0.420744  
      11A1     0.469644     5B1     0.521170     5B2     0.521170  
       6B2     0.578695     6B1     0.578695    12A1     0.585489  
       2A2     0.602552    13A1     0.602552    14A1     0.617878  
       7B2     0.729975     7B1     0.729975    15A1     0.821947  
      16A1     0.959793     8B2     0.997952     8B1     0.997952  
       9B2     1.019167     9B1     1.019167    17A1     1.030322  
       3A2     1.030322    18A1     1.043761    10B2     1.069816  
      10B1     1.069816    19A1     1.095055     4A2     1.095055  
      20A1     1.161010    21A1     1.281966    11B2     1.316384  
      11B1     1.316384    12B2     1.374355    12B1     1.374355  
       5A2     1.399119    22A1     1.399119    13B2     1.504966  
      13B1     1.504966    23A1     1.556638    24A1     1.668831  
      25A1     1.782134     6A2     1.782134    14B2     1.820936  
      14B1     1.820936    26A1     1.868480    15B2     2.110892  
      15B1     2.110892    27A1     2.341998    28A1     2.398561  
       7A2     2.398561     8A2     2.477409    29A1     2.477409  
      16B2     2.560404    16B1     2.560404    30A1     2.572307  
      17B2     2.584066    17B1     2.584066    18B1     2.611365  
      18B2     2.611365     9A2     2.637514    31A1     2.637514  
      32A1     2.720114    19B2     2.737572    19B1     2.737572  
      33A1     2.913604    20B2     2.999971    20B1     2.999971  
      10A2     3.028754    34A1     3.028754    11A2     3.247627  
      35A1     3.247627    21B2     3.353284    21B1     3.353284  
      36A1     3.384804    37A1     3.477152    22B2     3.483554  
      22B1     3.483554    12A2     3.549878    38A1     3.549878  
      23B2     3.641238    23B1     3.641238    39A1     3.709743  
      24B1     3.856586    24B2     3.856586    40A1     3.868015  
      13A2     3.868015    25B2     4.494479    25B1     4.494479  
      41A1     4.632245    14A2     4.756689    42A1     4.756689  
      43A1     4.781274    26B2     4.990690    26B1     4.990690  
      44A1     5.406114    45A1     6.254071    15A2     6.254071  
      27B2     6.349474    27B1     6.349474    28B2     6.406281  
      28B1     6.406281    16A2     6.561928    46A1     6.561928  
      29B1     6.564192    29B2     6.564192    47A1     6.737303  
      30B2     6.812401    30B1     6.812401    17A2     6.844041  
      48A1     6.844041    49A1     7.136519    18A2     7.266863  
      50A1     7.266863    31B2     7.392432    31B1     7.392432  
      51A1     7.863168    52A1     8.252270    32B2     8.361489  
      32B1     8.361489    53A1     8.580518    19A2     8.580518  
      33B1     8.886124    33B2     8.886124    34B2     9.082370  
      34B1     9.082370    20A2     9.232222    54A1     9.232222  
      55A1     9.370541    35B2     9.440532    35B1     9.440532  
      36B2     9.535248    36B1     9.535248    21A2    10.093784  
      56A1    10.093784    57A1    10.112344    22A2    10.224644  
      58A1    10.224644    37B2    10.659385    37B1    10.659385  
      59A1    11.855512    38B2    11.927269    38B1    11.927269  
      60A1    12.317714    61A1    24.666381    62A1    32.706818  

    Final Occupation by Irrep:
             A1    A2    B1    B2 
    DOCC [     5,    0,    1,    1 ]

  @RHF Final Energy:   -92.34526535170176

   => Energetics <=

    Nuclear Repulsion Energy =             18.6630588325836442
    One-Electron Energy =                -165.8114565776014331
    Two-Electron Energy =                  54.8031323933160479
    Total Energy =                        -92.3452653517017552

Computation Completed


Properties will be evaluated at   0.000000,   0.000000,   0.000000 [a0]

Properties computed using the SCF density matrix

  Nuclear Dipole Moment: [e a0]
     X:     0.0000      Y:     0.0000      Z:     0.0016

  Electronic Dipole Moment: [e a0]
     X:     0.0000      Y:     0.0000      Z:    -0.1408

  Dipole Moment: [e a0]
     X:     0.0000      Y:     0.0000      Z:    -0.1392     Total:     0.1392

  Dipole Moment: [D]
     X:     0.0000      Y:     0.0000      Z:    -0.3538     Total:     0.3538


*** tstop() called on n412-037.vsc4.prov at Wed Jan 20 18:38:10 2021
Module time:
	user time   =      63.91 seconds =       1.07 minutes
	system time =       3.01 seconds =       0.05 minutes
	total time  =         24 seconds =       0.40 minutes
Total time:
	user time   =      63.91 seconds =       1.07 minutes
	system time =       3.01 seconds =       0.05 minutes
	total time  =         24 seconds =       0.40 minutes

*** tstart() called on n412-037.vsc4.prov
*** at Wed Jan 20 18:38:10 2021


	Wfn Parameters:
	--------------------
	Wavefunction         = CCSD_T
	Number of irreps     = 4
	Number of MOs        = 160
	Number of active MOs = 158
	AO-Basis             = NONE
	Semicanonical        = false
	Reference            = RHF
	Print Level          = 1

	IRREP	# MOs	# FZDC	# DOCC	# SOCC	# VIRT	# FZVR
	-----	-----	------	------	------	------	------
	 A1	   62	    2	    3	    0	    57	    0
	 A2	   22	    0	    0	    0	    22	    0
	 B1	   38	    0	    1	    0	    37	    0
	 B2	   38	    0	    1	    0	    37	    0
	Transforming integrals...
	IWL integrals will be deleted.
	(OO|OO)...
	Presorting SO-basis two-electron integrals.
	Sorting File: SO Ints (nn|nn) nbuckets = 1
	Constructing frozen core operators
	Starting first half-transformation.
	Sorting half-transformed integrals.
	First half integral transformation complete.
	Starting second half-transformation.
	Two-electron integral transformation complete.
	(OO|OV)...
	Starting second half-transformation.
	Two-electron integral transformation complete.
	(OO|VV)...
	Starting second half-transformation.
	Two-electron integral transformation complete.
	(OV|OO)...
	Starting first half-transformation.
	Sorting half-transformed integrals.
	First half integral transformation complete.
	Starting second half-transformation.
	Two-electron integral transformation complete.
	(OV|OV)...
	Starting second half-transformation.
	Two-electron integral transformation complete.
	(OV|VV)...
	Starting second half-transformation.
	Two-electron integral transformation complete.
	(VV|OO)...
	Starting first half-transformation.
	Sorting half-transformed integrals.
	First half integral transformation complete.
	Starting second half-transformation.
	Two-electron integral transformation complete.
	(VV|OV)...
	Starting second half-transformation.
	Two-electron integral transformation complete.
	(VV|VV)...
	Starting second half-transformation.
	Two-electron integral transformation complete.
	Frozen core energy     =    -86.87003578839942

	Size of irrep 0 of <ab|cd> integrals:     41.874 (MW) /    334.991 (MB)
	Size of irrep 1 of <ab|cd> integrals:     27.521 (MW) /    220.164 (MB)
	Size of irrep 2 of <ab|cd> integrals:     34.176 (MW) /    273.406 (MB)
	Size of irrep 3 of <ab|cd> integrals:     34.176 (MW) /    273.406 (MB)
	Total:                                   137.746 (MW) /   1101.966 (MB)

	Size of irrep 0 of <ia|bc> integrals:      1.585 (MW) /     12.683 (MB)
	Size of irrep 1 of <ia|bc> integrals:      0.734 (MW) /      5.876 (MB)
	Size of irrep 2 of <ia|bc> integrals:      1.111 (MW) /      8.886 (MB)
	Size of irrep 3 of <ia|bc> integrals:      1.111 (MW) /      8.886 (MB)
	Total:                                     4.541 (MW) /     36.331 (MB)

	Size of irrep 0 of tijab amplitudes:       0.071 (MW) /      0.569 (MB)
	Size of irrep 1 of tijab amplitudes:       0.010 (MW) /      0.084 (MB)
	Size of irrep 2 of tijab amplitudes:       0.035 (MW) /      0.281 (MB)
	Size of irrep 3 of tijab amplitudes:       0.035 (MW) /      0.281 (MB)
	Total:                                     0.152 (MW) /      1.215 (MB)

	Nuclear Rep. energy          =     18.66305883258364
	SCF energy                   =    -92.34526535170176
	One-electron energy          =    -44.60450405545070
	Two-electron energy          =     20.46621565956378
	Reference energy             =    -92.34526535170269

*** tstop() called on n412-037.vsc4.prov at Wed Jan 20 18:38:42 2021
Module time:
	user time   =       9.13 seconds =       0.15 minutes
	system time =       4.45 seconds =       0.07 minutes
	total time  =         32 seconds =       0.53 minutes
Total time:
	user time   =      73.04 seconds =       1.22 minutes
	system time =       7.46 seconds =       0.12 minutes
	total time  =         56 seconds =       0.93 minutes
            **************************
            *                        *
            *        CCENERGY        *
            *                        *
            **************************

    Nuclear Rep. energy (wfn)     =   18.663058832583644
    SCF energy          (wfn)     =  -92.345265351701755
    Reference energy    (file100) =  -92.345265351702693

    Input parameters:
    -----------------
    Wave function   =     CCSD_T
    Reference wfn   =     RHF
    Brueckner       =     No
    Memory (Mbytes) =     250000.0
    Maxiter         =     50
    R_Convergence   =     1.0e-07
    E_Convergence   =     1.0e-06
    Restart         =     Yes
    DIIS            =     Yes
    AO Basis        =     NONE
    ABCD            =     NEW
    Cache Level     =     2
    Cache Type      =     LOW
    Print Level     =     1
    Num. of threads =     48
    # Amps to Print =     10
    Print MP2 Amps? =     No
    Analyze T2 Amps =     No
    Print Pair Ener =     No
    Local CC        =     No
    SCS-MP2         =     False
    SCSN-MP2        =     False
    SCS-CCSD        =     False

MP2 correlation energy -0.3728713373219752
                Solving CC Amplitude Equations
                ------------------------------
  Iter             Energy              RMS        T1Diag      D1Diag    New D1Diag    D2Diag
  ----     ---------------------    ---------   ----------  ----------  ----------   --------
     0        -0.372871337321975    0.000e+00    0.000000    0.000000    0.000000    0.168028
     1        -0.352813741691744    6.738e-02    0.014361    0.027999    0.027999    0.156932
     2        -0.365422904782528    2.740e-02    0.013777    0.026106    0.026106    0.167195
     3        -0.368239438277659    1.089e-02    0.016771    0.031063    0.031063    0.172223
     4        -0.368171716126425    3.322e-03    0.017294    0.031615    0.031615    0.173208
     5        -0.368297670659269    1.579e-03    0.017742    0.032085    0.032085    0.173839
     6        -0.368300050689821    3.945e-04    0.017834    0.032174    0.032174    0.173855
     7        -0.368290949958102    1.665e-04    0.017856    0.032173    0.032173    0.173822
     8        -0.368289522886409    5.641e-05    0.017865    0.032176    0.032176    0.173810
     9        -0.368289544433975    2.054e-05    0.017868    0.032176    0.032176    0.173806
    10        -0.368288205327261    7.225e-06    0.017868    0.032175    0.032175    0.173803
    11        -0.368288498096880    1.890e-06    0.017868    0.032175    0.032175    0.173804
    12        -0.368288386850547    7.677e-07    0.017868    0.032175    0.032175    0.173804
    13        -0.368288378201836    2.460e-07    0.017868    0.032175    0.032175    0.173804
    14        -0.368288385424930    1.005e-07    0.017868    0.032175    0.032175    0.173804
    15        -0.368288382029654    4.544e-08    0.017868    0.032175    0.032175    0.173804

    Iterations converged.


    Largest TIA Amplitudes:
              2   1        -0.0171606607
              2   3        -0.0147152501
              4 123         0.0133148350
              3  86         0.0133148349
              3  83         0.0129226661
              4 120         0.0129226646
              2   0         0.0127972934
              3  81         0.0127660360
              4 118         0.0127660309
              3  84         0.0123269846

    Largest TIjAb Amplitudes:
      3   3  81  81        -0.0442673767
      4   4 118 118        -0.0442673727
      3   3  81  82        -0.0337432623
      3   3  82  81        -0.0337432623
      4   4 118 119        -0.0337432613
      4   4 119 118        -0.0337432613
      3   3  81  84        -0.0300430720
      3   3  84  81        -0.0300430720
      4   4 118 121        -0.0300430712
      4   4 121 118        -0.0300430712

    SCF energy       (wfn)                    =  -92.345265351701755
    Reference energy (file100)                =  -92.345265351702693

    Opposite-spin MP2 correlation energy      =   -0.280487308716705
    Same-spin MP2 correlation energy          =   -0.092384028605270
    Singles MP2 correlation energy            =   -0.000000000000000
    MP2 correlation energy                    =   -0.372871337321975
      * MP2 total energy                      =  -92.718136689024675

    Opposite-spin CCSD correlation energy     =   -0.290985393664499
    Same-spin CCSD correlation energy         =   -0.077302988365154
    Singles CCSD correlation energy           =    0.000000000000000
    CCSD correlation energy                   =   -0.368288382029654
      * CCSD total energy                     =  -92.713553733732354

            **************************
            *                        *
            *        CCTRIPLES       *
            *                        *
            **************************


    Wave function   =    CCSD_T
    Reference wfn   =      RHF

    Nuclear Rep. energy (wfn)                =   18.663058832583644
    SCF energy          (wfn)                =  -92.345265351701755
    Reference energy    (file100)            =  -92.345265351702693
    CCSD energy         (file100)            =   -0.368288382029654
    Total CCSD energy   (file100)            =  -92.713553733732354

    Number of ijk index combinations:               35
    Memory available in words        :     31250000000
    ~Words needed per explicit thread:          740772
    Number of threads for explicit ijk threading:   48

    (T) energy                                =   -0.021682505618992
      * CCSD(T) total energy                  =  -92.735236239351337


    Psi4 stopped on: Wednesday, 20 January 2021 06:39PM
    Psi4 wall time for execution: 0:01:22.60

*** Psi4 exiting successfully. Buy a developer a beer!
