
    -----------------------------------------------------------------------
          Psi4: An Open-Source Ab Initio Electronic Structure Package
                               Psi4 1.4a3.dev88 

                         Git: Rev {master} 262e345 


    D. G. A. Smith, L. A. Burns, A. C. Simmonett, R. M. Parrish,
    M. C. Schieber, R. Galvelis, P. Kraus, H. Kruse, R. Di Remigio,
    A. Alenaizan, A. M. James, S. Lehtola, J. P. Misiewicz, M. Scheurer,
    R. A. Shaw, J. B. Schriber, Y. Xie, Z. L. Glick, D. A. Sirianni,
    J. S. O'Brien, J. M. Waldrop, A. Kumar, E. G. Hohenstein,
    B. P. Pritchard, B. R. Brooks, H. F. Schaefer III, A. Yu. Sokolov,
    K. Patkowski, A. E. DePrince III, U. Bozkaya, R. A. King,
    F. A. Evangelista, J. M. Turney, T. D. Crawford, C. D. Sherrill,
    J. Chem. Phys. 152(18) 184108 (2020). https://doi.org/10.1063/5.0006002

                            Additional Code Authors
    E. T. Seidl, C. L. Janssen, E. F. Valeev, M. L. Leininger,
    J. F. Gonthier, R. M. Richard, H. R. McAlexander, M. Saitow, X. Wang,
    P. Verma, and M. H. Lechner

             Previous Authors, Complete List of Code Contributors,
                       and Citations for Specific Modules
    https://github.com/psi4/psi4/blob/master/codemeta.json
    https://github.com/psi4/psi4/graphs/contributors
    http://psicode.org/psi4manual/master/introduction.html#citing-psifour

    -----------------------------------------------------------------------


    Psi4 started on: Wednesday, 20 January 2021 10:00PM

    Process ID: 145613
    Host:       n412-041.vsc4.prov
    PSIDATADIR: /home/fs71337/gallo4/psi4/psi4/build/stage/share/psi4
    Memory:     500.0 MiB
    Threads:    48
    
  ==> Input File <==

--------------------------------------------------------------------------
# Any line starting with the # character is a comment line
memory 250000 mb
molecule molecule{
0 3
Si          0.0000000000        0.0000000000        0.0000000000
}

set {
  reference uhf
  basis aug-cc-pv(5+d)z
  scf_type OUT_OF_CORE
  freeze_core true
}

energy('ccsd(t)')
--------------------------------------------------------------------------

  Memory set to 232.831 GiB by Python driver.

Scratch directory: /binfl/lv71337/airmler/temp/

*** tstart() called on n412-041.vsc4.prov
*** at Wed Jan 20 22:00:00 2021

   => Loading Basis Set <=

    Name: AUG-CC-PV(5+D)Z
    Role: ORBITAL
    Keyword: BASIS
    atoms 1 entry SI         line  1209 file /home/fs71337/gallo4/psi4/psi4/build/stage/share/psi4/basis/aug-cc-pv_5pd_z.gbs 


         ---------------------------------------------------------
                                   SCF
               by Justin Turney, Rob Parrish, Andy Simmonett
                          and Daniel G. A. Smith
                              UHF Reference
                       48 Threads, 238418 MiB Core
         ---------------------------------------------------------

  ==> Geometry <==

    Molecular point group: d2h
    Geometry (in Angstrom), charge = 0, multiplicity = 3:

       Center              X                  Y                   Z               Mass       
    ------------   -----------------  -----------------  -----------------  -----------------
         SI           0.000000000000     0.000000000000     0.000000000000    27.976926534650

  Running in d2h symmetry.

  Rotational constants: A = ************  B = ************  C = ************ [cm^-1]
  Rotational constants: A = ************  B = ************  C = ************ [MHz]
  Nuclear repulsion =    0.000000000000000

  Charge       = 0
  Multiplicity = 3
  Electrons    = 14
  Nalpha       = 8
  Nbeta        = 6

  ==> Algorithm <==

  SCF Algorithm Type is OUT_OF_CORE.
  DIIS enabled.
  MOM disabled.
  Fractional occupation disabled.
  Guess Type is CORE.
  Energy threshold   = 1.00e-08
  Density threshold  = 1.00e-08
  Integral threshold = 1.00e-12

  ==> Primary Basis <==

  Basis Set: AUG-CC-PV(5+D)Z
    Blend: AUG-CC-PV(5+D)Z
    Number of shells: 30
    Number of basis function: 136
    Number of Cartesian functions: 192
    Spherical Harmonics?: true
    Max angular momentum: 5

  ==> Integral Setup <==

  ==> DiskJK: Disk-Based J/K Matrices <==

    J tasked:                  Yes
    K tasked:                  Yes
    wK tasked:                  No
    Memory [MiB]:           178813
    Schwarz Cutoff:          1E-12

  Minimum eigenvalue in the overlap matrix is 1.5714898256E-04.
  Reciprocal condition number of the overlap matrix is 3.6790686262E-05.
    Using symmetric orthogonalization.

  ==> Pre-Iterations <==

  SCF Guess: Core (One-Electron) Hamiltonian.

   -------------------------------------------------------
    Irrep   Nso     Nmo     Nalpha   Nbeta   Ndocc  Nsocc
   -------------------------------------------------------
     Ag        29      29       2       2       2       0
     B1g       12      12       0       0       0       0
     B2g       12      12       0       0       0       0
     B3g       12      12       0       0       0       0
     Au         8       8       0       0       0       0
     B1u       21      21       2       2       2       0
     B2u       21      21       2       1       1       1
     B3u       21      21       2       1       1       1
   -------------------------------------------------------
    Total     136     136       8       6       6       2
   -------------------------------------------------------

  ==> Iterations <==

                        Total Energy        Delta E     RMS |[F,P]|

    Occupation by irrep:
             Ag   B1g   B2g   B3g    Au   B1u   B2u   B3u 
    DOCC [     3,    0,    0,    0,    0,    1,    1,    1 ]
    SOCC [     0,    0,    0,    0,    0,    0,    1,    1 ]

   @UHF iter   1:  -258.33555617803819   -2.58336e+02   3.00589e-01 DIIS
   @UHF iter   2:  -274.58621937061815   -1.62507e+01   1.75489e-01 DIIS
   @UHF iter   3:  -288.29794843407240   -1.37117e+01   3.17942e-02 DIIS
   @UHF iter   4:  -288.83638134893584   -5.38433e-01   3.14741e-03 DIIS
   @UHF iter   5:  -288.85737008353760   -2.09887e-02   7.68066e-04 DIIS
   @UHF iter   6:  -288.85860345812199   -1.23337e-03   1.98425e-04 DIIS
   @UHF iter   7:  -288.85881665822484   -2.13200e-04   4.72455e-05 DIIS
   @UHF iter   8:  -288.85883019959437   -1.35414e-05   6.68942e-06 DIIS
   @UHF iter   9:  -288.85883044789563   -2.48301e-07   1.63330e-06 DIIS
   @UHF iter  10:  -288.85883046346078   -1.55651e-08   2.90483e-07 DIIS
   @UHF iter  11:  -288.85883046377700   -3.16220e-10   2.59051e-08 DIIS
   @UHF iter  12:  -288.85883046378024   -3.24007e-12   3.70156e-09 DIIS
  Energy and wave function converged.


  ==> Post-Iterations <==

   @Spin Contamination Metric:   1.568254398E-02
   @S^2 Expected:                2.000000000E+00
   @S^2 Observed:                2.015682544E+00
   @S   Expected:                1.000000000E+00
   @S   Observed:                1.000000000E+00

    Orbital Energies [Eh]
    ---------------------

    Alpha Occupied:                                                       

       1Ag   -68.816332     2Ag    -6.160621     1B2u   -4.268952  
       1B3u   -4.268952     1B1u   -4.258123     3Ag    -0.619870  
       2B3u   -0.301411     2B2u   -0.301411  

    Alpha Virtual:                                                        

       2B1u   -0.010097     4Ag     0.046935     3B2u    0.050819  
       3B3u    0.050819     3B1u    0.058462     1B2g    0.110927  
       1B3g    0.110927     5Ag     0.111097     1B1g    0.111180  
       6Ag     0.111180     4B2u    0.247537     4B3u    0.247537  
       4B1u    0.263623     7Ag     0.273671     5B2u    0.283189  
       5B3u    0.283189     5B1u    0.283300     1Au     0.285356  
       6B1u    0.285356     6B3u    0.289762     6B2u    0.289762  
       8Ag     0.296772     2B1g    0.296772     2B3g    0.308921  
       2B2g    0.308921     9Ag     0.314189    10Ag     0.723728  
       3B2g    0.724739     3B3g    0.724739    11Ag     0.727891  
       3B1g    0.727891     4B3g    0.733359     4B2g    0.733359  
       4B1g    0.740375    12Ag     0.740375    13Ag     0.750689  
       5B1g    0.750689     5B3g    0.753225     5B2g    0.753225  
      14Ag     0.754517     7B1u    0.756215     7B2u    0.757558  
       7B3u    0.757558     2Au     0.761422     8B1u    0.761422  
       8B3u    0.767277     8B2u    0.767277     9B2u    0.911163  
       9B3u    0.911163     9B1u    0.918621    15Ag     1.042289  
      10B1u    1.688713    10B2u    1.690666    10B3u    1.690666  
       3Au     1.696500    11B1u    1.696500    11B2u    1.706126  
      11B3u    1.706126    16Ag     1.759238     6B2g    1.763663  
       6B3g    1.763663     6B1g    1.777354    17Ag     1.777354  
      12B1u    1.821876    12B3u    1.822972    12B2u    1.822972  
       4Au     1.826274    13B1u    1.826274    13B3u    1.831822  
      13B2u    1.831822    18Ag     1.838741     5Au     1.839681  
      14B1u    1.839681     7B2g    1.840179     7B3g    1.840179  
       7B1g    1.844526    19Ag     1.844526    14B2u    1.849941  
      14B3u    1.849941     8B2g    1.851921     8B3g    1.851921  
       8B1g    1.863017    20Ag     1.863017    15B1u    3.119528  
      15B2u    3.127376    15B3u    3.127376    16B1u    3.543839  
      16B2u    3.546604    16B3u    3.546604     6Au     3.554990  
      17B1u    3.554990    17B2u    3.569240    17B3u    3.569240  
      21Ag     3.672989     9B3g    3.679693     9B2g    3.679693  
       9B1g    3.696936    22Ag     3.696936    23Ag     3.883190  
      24Ag     4.196018    10B3g    4.197908    10B2g    4.197908  
      10B1g    4.203612    25Ag     4.203612    11B2g    4.213236  
      11B3g    4.213236    26Ag     4.226967    11B1g    4.226967  
      18B1u    4.238035    18B3u    4.239468    18B2u    4.239468  
      19B1u    4.243781     7Au     4.243781    19B2u    4.251024  
      19B3u    4.251024    20B1u    4.261275     8Au     4.261275  
      20B2u    4.274646    20B3u    4.274646    27Ag     9.738358  
      12B3g    9.741402    12B2g    9.741402    12B1g    9.750754  
      28Ag     9.750754    21B1u   12.919639    21B2u   12.923488  
      21B3u   12.923488    29Ag    34.435997  

    Beta Occupied:                                                        

       1Ag   -68.806007     2Ag    -6.149756     1B1u   -4.253114  
       1B2u   -4.239862     1B3u   -4.239862     3Ag    -0.462781  

    Beta Virtual:                                                         

       2B1u    0.005048     2B2u    0.030710     2B3u    0.030710  
       4Ag     0.053110     3B1u    0.063361     3B2u    0.086536  
       3B3u    0.086536     5Ag     0.115714     1B3g    0.117380  
       1B2g    0.117380     6Ag     0.123742     1B1g    0.123742  
       4B1u    0.270938     4B2u    0.286256     4B3u    0.286256  
       5B1u    0.286635     6B1u    0.290715     1Au     0.290715  
       7Ag     0.293946     5B3u    0.297556     5B2u    0.297556  
       6B2u    0.299554     6B3u    0.299554     8Ag     0.340095  
       2B3g    0.345257     2B2g    0.345257     9Ag     0.367171  
       2B1g    0.367171    10Ag     0.730687     3B2g    0.732071  
       3B3g    0.732071    11Ag     0.736223     3B1g    0.736223  
       4B3g    0.743235     4B2g    0.743235    12Ag     0.753470  
       4B1g    0.753470     7B1u    0.771382     7B2u    0.774937  
       7B3u    0.774937    13Ag     0.778494     2Au     0.785225  
       8B1u    0.785225     5B3g    0.786538     5B2g    0.786538  
       8B3u    0.802806     8B2u    0.802806     5B1g    0.815534  
      14Ag     0.815534     9B1u    0.927801     9B2u    0.964810  
       9B3u    0.964810    15Ag     1.069954    10B1u    1.707581  
      10B2u    1.712422    10B3u    1.712422     3Au     1.727111  
      11B1u    1.727111    11B2u    1.752433    11B3u    1.752433  
      16Ag     1.771522     6B2g    1.779729     6B3g    1.779729  
       6B1g    1.808270    17Ag     1.808270    12B1u    1.831494  
      12B3u    1.832988    12B2u    1.832988     4Au     1.837493  
      13B1u    1.837493    13B3u    1.845083    13B2u    1.845083  
      18Ag     1.853898     5Au     1.855906    14B1u    1.855906  
       7B3g    1.856390     7B2g    1.856390     7B1g    1.863979  
      19Ag     1.863979    14B2u    1.870364    14B3u    1.870364  
       8B2g    1.876621     8B3g    1.876621     8B1g    1.896172  
      20Ag     1.896172    15B1u    3.125960    15B2u    3.161156  
      15B3u    3.161156    16B1u    3.555209    16B2u    3.559780  
      16B3u    3.559780     6Au     3.573649    17B1u    3.573649  
      17B2u    3.597493    17B3u    3.597493    21Ag     3.678163  
       9B3g    3.689040     9B2g    3.689040     9B1g    3.714421  
      22Ag     3.714421    23Ag     3.902583    24Ag     4.208677  
      10B3g    4.211594    10B2g    4.211594    10B1g    4.220422  
      25Ag     4.220422    11B2g    4.235390    11B3g    4.235390  
      18B1u    4.249580    18B3u    4.251597    18B2u    4.251597  
      26Ag     4.256959    11B1g    4.256959    19B1u    4.257675  
       7Au     4.257675    19B2u    4.267902    19B3u    4.267902  
      20B1u    4.282425     8Au     4.282425    20B2u    4.301471  
      20B3u    4.301471    27Ag     9.744067    12B3g    9.749123  
      12B2g    9.749123    12B1g    9.764639    28Ag     9.764639  
      21B1u   12.923815    21B2u   12.943796    21B3u   12.943796  
      29Ag    34.444702  

    Final Occupation by Irrep:
             Ag   B1g   B2g   B3g    Au   B1u   B2u   B3u 
    DOCC [     3,    0,    0,    0,    0,    1,    1,    1 ]
    SOCC [     0,    0,    0,    0,    0,    0,    1,    1 ]

  @UHF Final Energy:  -288.85883046378024

   => Energetics <=

    Nuclear Repulsion Energy =              0.0000000000000000
    One-Electron Energy =                -400.5706096601801391
    Two-Electron Energy =                 111.7117791963999167
    Total Energy =                       -288.8588304637802366

  UHF NO Occupations:
  HONO-2 :    3 Ag 1.9921386
  HONO-1 :    2B3u 1.0000000
  HONO-0 :    2B2u 1.0000000
  LUNO+0 :    4 Ag 0.0078614
  LUNO+1 :    3B3u 0.0000049
  LUNO+2 :    3B2u 0.0000049
  LUNO+3 :    2B1u 0.0000005


Computation Completed


Properties will be evaluated at   0.000000,   0.000000,   0.000000 [a0]

Properties computed using the SCF density matrix

  Nuclear Dipole Moment: [e a0]
     X:     0.0000      Y:     0.0000      Z:     0.0000

  Electronic Dipole Moment: [e a0]
     X:     0.0000      Y:     0.0000      Z:     0.0000

  Dipole Moment: [e a0]
     X:     0.0000      Y:     0.0000      Z:     0.0000     Total:     0.0000

  Dipole Moment: [D]
     X:     0.0000      Y:     0.0000      Z:     0.0000     Total:     0.0000


*** tstop() called on n412-041.vsc4.prov at Wed Jan 20 22:00:26 2021
Module time:
	user time   =      36.79 seconds =       0.61 minutes
	system time =       3.08 seconds =       0.05 minutes
	total time  =         26 seconds =       0.43 minutes
Total time:
	user time   =      36.79 seconds =       0.61 minutes
	system time =       3.08 seconds =       0.05 minutes
	total time  =         26 seconds =       0.43 minutes

*** tstart() called on n412-041.vsc4.prov
*** at Wed Jan 20 22:00:26 2021


	Wfn Parameters:
	--------------------
	Wavefunction         = CCSD_T
	Number of irreps     = 8
	Number of MOs        = 136
	Number of active MOs = 131
	AO-Basis             = NONE
	Semicanonical        = false
	Reference            = UHF
	Print Level          = 1

	IRREP	# MOs	# FZDC	# DOCC	# SOCC	# VIRT	# FZVR
	-----	-----	------	------	------	------	------
	 Ag	   29	    2	    1	    0	    26	    0
	 B1g	   12	    0	    0	    0	    12	    0
	 B2g	   12	    0	    0	    0	    12	    0
	 B3g	   12	    0	    0	    0	    12	    0
	 Au	   8	    0	    0	    0	    8	    0
	 B1u	   21	    1	    0	    0	    20	    0
	 B2u	   21	    1	    0	    1	    19	    0
	 B3u	   21	    1	    0	    1	    19	    0
	Transforming integrals...
	IWL integrals will be deleted.
	(OO|OO)...
	Presorting SO-basis two-electron integrals.
	Sorting File: SO Ints (nn|nn) nbuckets = 1
	Constructing frozen core operators
	Starting AA/AB first half-transformation.
	Sorting AA/AB half-transformed integrals.
	Starting BB first half-transformation.
	Sorting BB half-transformed integrals.
	First half integral transformation complete.
	Starting AA second half-transformation.
	Starting AB second half-transformation.
	Starting BB second half-transformation.
	Two-electron integral transformation complete.
	(OO|OV)...
	Starting AA second half-transformation.
	Starting AB second half-transformation.
	Starting BB second half-transformation.
	Two-electron integral transformation complete.
	(OO|VV)...
	Starting AA second half-transformation.
	Starting AB second half-transformation.
	Starting BB second half-transformation.
	Two-electron integral transformation complete.
	(OV|OO)...
	Starting AA/AB first half-transformation.
	Sorting AA/AB half-transformed integrals.
	Starting BB first half-transformation.
	Sorting BB half-transformed integrals.
	First half integral transformation complete.
	Starting AA second half-transformation.
	Starting AB second half-transformation.
	Starting BB second half-transformation.
	Two-electron integral transformation complete.
	(OV|OV)...
	Starting AA second half-transformation.
	Starting AB second half-transformation.
	Starting BB second half-transformation.
	Two-electron integral transformation complete.
	(OV|VV)...
	Starting AA second half-transformation.
	Starting AB second half-transformation.
	Starting BB second half-transformation.
	Two-electron integral transformation complete.
	(VV|OO)...
	Starting AA/AB first half-transformation.
	Sorting AA/AB half-transformed integrals.
	Starting BB first half-transformation.
	Sorting BB half-transformed integrals.
	First half integral transformation complete.
	Starting AA second half-transformation.
	Starting AB second half-transformation.
	Starting BB second half-transformation.
	Two-electron integral transformation complete.
	(VV|OV)...
	Starting AA second half-transformation.
	Starting AB second half-transformation.
	Starting BB second half-transformation.
	Two-electron integral transformation complete.
	(VV|VV)...
	Starting AA second half-transformation.
	Starting AB second half-transformation.
	Starting BB second half-transformation.
	Two-electron integral transformation complete.
	Frozen core energy     =   -285.17675629928448

	Size of irrep 0 of <AB|CD> integrals:      1.173 (MW) /      9.383 (MB)
	Size of irrep 1 of <AB|CD> integrals:      0.955 (MW) /      7.636 (MB)
	Size of irrep 2 of <AB|CD> integrals:      0.976 (MW) /      7.809 (MB)
	Size of irrep 3 of <AB|CD> integrals:      0.976 (MW) /      7.809 (MB)
	Size of irrep 4 of <AB|CD> integrals:      0.817 (MW) /      6.538 (MB)
	Size of irrep 5 of <AB|CD> integrals:      1.149 (MW) /      9.193 (MB)
	Size of irrep 6 of <AB|CD> integrals:      1.119 (MW) /      8.955 (MB)
	Size of irrep 7 of <AB|CD> integrals:      1.119 (MW) /      8.955 (MB)
	Total:                                     8.285 (MW) /     66.279 (MB)

	Size of irrep 0 of <ab|cd> integrals:      1.257 (MW) /     10.053 (MB)
	Size of irrep 1 of <ab|cd> integrals:      1.032 (MW) /      8.258 (MB)
	Size of irrep 2 of <ab|cd> integrals:      1.032 (MW) /      8.258 (MB)
	Size of irrep 3 of <ab|cd> integrals:      1.032 (MW) /      8.258 (MB)
	Size of irrep 4 of <ab|cd> integrals:      0.861 (MW) /      6.889 (MB)
	Size of irrep 5 of <ab|cd> integrals:      1.201 (MW) /      9.610 (MB)
	Size of irrep 6 of <ab|cd> integrals:      1.201 (MW) /      9.610 (MB)
	Size of irrep 7 of <ab|cd> integrals:      1.201 (MW) /      9.610 (MB)
	Total:                                     8.818 (MW) /     70.546 (MB)

	Size of irrep 0 of <Ab|Cd> integrals:      5.438 (MW) /     43.506 (MB)
	Size of irrep 1 of <Ab|Cd> integrals:      3.968 (MW) /     31.745 (MB)
	Size of irrep 2 of <Ab|Cd> integrals:      4.016 (MW) /     32.128 (MB)
	Size of irrep 3 of <Ab|Cd> integrals:      4.016 (MW) /     32.128 (MB)
	Size of irrep 4 of <Ab|Cd> integrals:      3.356 (MW) /     26.850 (MB)
	Size of irrep 5 of <Ab|Cd> integrals:      4.700 (MW) /     37.602 (MB)
	Size of irrep 6 of <Ab|Cd> integrals:      4.640 (MW) /     37.118 (MB)
	Size of irrep 7 of <Ab|Cd> integrals:      4.640 (MW) /     37.118 (MB)
	Total:                                    34.774 (MW) /    278.194 (MB)

	Size of irrep 0 of <IA|BC> integrals:      0.147 (MW) /      1.175 (MB)
	Size of irrep 1 of <IA|BC> integrals:      0.098 (MW) /      0.782 (MB)
	Size of irrep 2 of <IA|BC> integrals:      0.079 (MW) /      0.632 (MB)
	Size of irrep 3 of <IA|BC> integrals:      0.079 (MW) /      0.632 (MB)
	Size of irrep 4 of <IA|BC> integrals:      0.058 (MW) /      0.463 (MB)
	Size of irrep 5 of <IA|BC> integrals:      0.094 (MW) /      0.755 (MB)
	Size of irrep 6 of <IA|BC> integrals:      0.121 (MW) /      0.965 (MB)
	Size of irrep 7 of <IA|BC> integrals:      0.121 (MW) /      0.965 (MB)
	Total:                                     0.796 (MW) /      6.368 (MB)

	Size of irrep 0 of <ia|bc> integrals:      0.062 (MW) /      0.493 (MB)
	Size of irrep 1 of <ia|bc> integrals:      0.024 (MW) /      0.195 (MB)
	Size of irrep 2 of <ia|bc> integrals:      0.024 (MW) /      0.195 (MB)
	Size of irrep 3 of <ia|bc> integrals:      0.024 (MW) /      0.195 (MB)
	Size of irrep 4 of <ia|bc> integrals:      0.015 (MW) /      0.119 (MB)
	Size of irrep 5 of <ia|bc> integrals:      0.044 (MW) /      0.351 (MB)
	Size of irrep 6 of <ia|bc> integrals:      0.044 (MW) /      0.351 (MB)
	Size of irrep 7 of <ia|bc> integrals:      0.044 (MW) /      0.351 (MB)
	Total:                                     0.281 (MW) /      2.250 (MB)

	Size of irrep 0 of <Ia|Bc> integrals:      0.154 (MW) /      1.231 (MB)
	Size of irrep 1 of <Ia|Bc> integrals:      0.104 (MW) /      0.829 (MB)
	Size of irrep 2 of <Ia|Bc> integrals:      0.080 (MW) /      0.641 (MB)
	Size of irrep 3 of <Ia|Bc> integrals:      0.080 (MW) /      0.641 (MB)
	Size of irrep 4 of <Ia|Bc> integrals:      0.059 (MW) /      0.469 (MB)
	Size of irrep 5 of <Ia|Bc> integrals:      0.095 (MW) /      0.763 (MB)
	Size of irrep 6 of <Ia|Bc> integrals:      0.125 (MW) /      0.999 (MB)
	Size of irrep 7 of <Ia|Bc> integrals:      0.125 (MW) /      0.999 (MB)
	Total:                                     0.822 (MW) /      6.574 (MB)

	Size of irrep 0 of <iA|bC> integrals:      0.061 (MW) /      0.485 (MB)
	Size of irrep 1 of <iA|bC> integrals:      0.024 (MW) /      0.191 (MB)
	Size of irrep 2 of <iA|bC> integrals:      0.024 (MW) /      0.192 (MB)
	Size of irrep 3 of <iA|bC> integrals:      0.024 (MW) /      0.192 (MB)
	Size of irrep 4 of <iA|bC> integrals:      0.015 (MW) /      0.117 (MB)
	Size of irrep 5 of <iA|bC> integrals:      0.043 (MW) /      0.347 (MB)
	Size of irrep 6 of <iA|bC> integrals:      0.041 (MW) /      0.327 (MB)
	Size of irrep 7 of <iA|bC> integrals:      0.041 (MW) /      0.327 (MB)
	Total:                                     0.273 (MW) /      2.180 (MB)

	Size of irrep 0 of tIjAb amplitudes:       0.002 (MW) /      0.019 (MB)
	Size of irrep 1 of tIjAb amplitudes:       0.000 (MW) /      0.000 (MB)
	Size of irrep 2 of tIjAb amplitudes:       0.000 (MW) /      0.000 (MB)
	Size of irrep 3 of tIjAb amplitudes:       0.000 (MW) /      0.000 (MB)
	Size of irrep 4 of tIjAb amplitudes:       0.000 (MW) /      0.000 (MB)
	Size of irrep 5 of tIjAb amplitudes:       0.000 (MW) /      0.000 (MB)
	Size of irrep 6 of tIjAb amplitudes:       0.002 (MW) /      0.017 (MB)
	Size of irrep 7 of tIjAb amplitudes:       0.002 (MW) /      0.017 (MB)
	Total:                                     0.007 (MW) /      0.053 (MB)

	Nuclear Rep. energy          =      0.00000000000000
	SCF energy                   =   -288.85883046378024
	One-electron energy          =     -5.67867618588273
	Two-electron (AA) energy     =      0.86385458300158
	Two-electron (BB) energy     =      0.00000000000000
	Two-electron (AB) energy     =      1.13274743838476
	Two-electron energy          =      1.99660202138634
	Reference energy             =   -288.85883046378086

*** tstop() called on n412-041.vsc4.prov at Wed Jan 20 22:00:46 2021
Module time:
	user time   =       4.83 seconds =       0.08 minutes
	system time =       2.75 seconds =       0.05 minutes
	total time  =         20 seconds =       0.33 minutes
Total time:
	user time   =      41.62 seconds =       0.69 minutes
	system time =       5.83 seconds =       0.10 minutes
	total time  =         46 seconds =       0.77 minutes
            **************************
            *                        *
            *        CCENERGY        *
            *                        *
            **************************

    Nuclear Rep. energy (wfn)     =    0.000000000000000
    SCF energy          (wfn)     = -288.858830463780237
    Reference energy    (file100) = -288.858830463780862

    Input parameters:
    -----------------
    Wave function   =     CCSD_T
    Reference wfn   =     UHF
    Brueckner       =     No
    Memory (Mbytes) =     250000.0
    Maxiter         =     50
    R_Convergence   =     1.0e-07
    E_Convergence   =     1.0e-06
    Restart         =     Yes
    DIIS            =     Yes
    AO Basis        =     NONE
    ABCD            =     NEW
    Cache Level     =     2
    Cache Type      =     LRU
    Print Level     =     1
    Num. of threads =     48
    # Amps to Print =     10
    Print MP2 Amps? =     No
    Analyze T2 Amps =     No
    Print Pair Ener =     No
    Local CC        =     No
    SCS-MP2         =     False
    SCSN-MP2        =     False
    SCS-CCSD        =     False

MP2 correlation energy -0.0618653484608033
                Solving CC Amplitude Equations
                ------------------------------
  Iter             Energy              RMS        T1Diag      D1Diag    New D1Diag    D2Diag
  ----     ---------------------    ---------   ----------  ----------  ----------   --------
     0        -0.061865348460803    0.000e+00    0.000000    0.000000    0.000000    0.000000
     1        -0.071649409187098    5.275e-02    0.009760    0.000000    0.000000    0.000000
     2        -0.077044679202505    2.197e-02    0.016217    0.000000    0.000000    0.000000
     3        -0.077275884019259    5.502e-03    0.017956    0.000000    0.000000    0.000000
     4        -0.077391997224108    1.362e-03    0.018199    0.000000    0.000000    0.000000
     5        -0.077386220055247    3.841e-04    0.018212    0.000000    0.000000    0.000000
     6        -0.077384559792514    9.779e-05    0.018210    0.000000    0.000000    0.000000
     7        -0.077386194672292    2.024e-05    0.018214    0.000000    0.000000    0.000000
     8        -0.077385939254876    4.990e-06    0.018215    0.000000    0.000000    0.000000
     9        -0.077385870120070    1.326e-06    0.018215    0.000000    0.000000    0.000000
    10        -0.077385864166243    4.251e-07    0.018215    0.000000    0.000000    0.000000
    11        -0.077385874209464    1.212e-07    0.018215    0.000000    0.000000    0.000000
    12        -0.077385874190717    3.147e-08    0.018215    0.000000    0.000000    0.000000

    Iterations converged.


    Largest TIA Amplitudes:
              0   5        -0.0232474187
              0   1         0.0123935858
              0  10        -0.0118479615
              0   3        -0.0074658774
              1  91         0.0062615447
              2 110         0.0062615447
              0   0         0.0061206071
              0  11         0.0039430123
              1  96        -0.0039006619
              2 115        -0.0039006619

    Largest Tia Amplitudes:
              0   3         0.0083717303
              0   0        -0.0079633882
              0   4        -0.0052834120
              0   9         0.0034487979
              0   1         0.0028997852
              0  19        -0.0014495842
              0  14        -0.0006224543
              0  12        -0.0002832224
              0   6        -0.0002726077
              0  11         0.0002290948

    Largest TIJAB Amplitudes:
      2   1  27   4         0.0376454275
      2   1  26   4         0.0212887397
      2   1  27   2         0.0212887397
      2   1 110  91        -0.0195957010
      2   1  51  39         0.0183479346
      2   1  27   9         0.0181834330
      2   1  30   4         0.0181834330
      1   0  70  51        -0.0169243184
      2   0  70  39        -0.0169243184
      2   1  26   2         0.0133756350

    Largest TIjAb Amplitudes:
      0   0  70  70         0.0732385525
      0   0  70  71        -0.0484651236
      1   0  51  70        -0.0419878345
      2   0  39  70        -0.0419878345
      0   0  70  72         0.0403372693
      1   0   4  91        -0.0366257434
      1   0  27 111         0.0366257434
      2   0   4 111         0.0366257434
      2   0  27  91         0.0366257434
      0   0  71  70        -0.0359668318

    SCF energy       (wfn)                    = -288.858830463780237
    Reference energy (file100)                = -288.858830463780862

    Opposite-spin MP2 correlation energy      =   -0.051445526759408
    Same-spin MP2 correlation energy          =   -0.010419821701396
    Singles MP2 correlation energy            =   -0.000000000000000
    MP2 correlation energy                    =   -0.061865348460803
      * MP2 total energy                      = -288.920695812241661

    Opposite-spin CCSD correlation energy     =   -0.065460456333179
    Same-spin CCSD correlation energy         =   -0.011925417857538
    Singles CCSD correlation energy           =    0.000000000000000
    CCSD correlation energy                   =   -0.077385874190717
      * CCSD total energy                     = -288.936216337971587

            **************************
            *                        *
            *        CCTRIPLES       *
            *                        *
            **************************


    Wave function   =    CCSD_T
    Reference wfn   =      UHF

    Nuclear Rep. energy (wfn)                =    0.000000000000000
    SCF energy          (wfn)                = -288.858830463780237
    Reference energy    (file100)            = -288.858830463780862
    CCSD energy         (file100)            =   -0.077385874190717
    Total CCSD energy   (file100)            = -288.936216337971587

    Number of ijk index combinations:
    Spin Case AAA:                                   1
    Spin Case BBB:                                   0
    Spin Case AAB:                                   3
    Spin Case ABB:                                   0
    AAA (T) energy                             =   -0.000079764370870
    BBB (T) energy                             =    0.000000000000000
    AAB (T) energy                             =   -0.002891474540726
    ABB (T) energy                             =    0.000000000000000
    (T) energy                                   =   -0.002971238911596
      * CCSD(T) total energy                     = -288.939187576883171


    Psi4 stopped on: Wednesday, 20 January 2021 10:01PM
    Psi4 wall time for execution: 0:01:01.40

*** Psi4 exiting successfully. Buy a developer a beer!
