
    -----------------------------------------------------------------------
          Psi4: An Open-Source Ab Initio Electronic Structure Package
                               Psi4 1.2a1.dev939 

                         Git: Rev {HEAD} fa1ec19 dirty


    R. M. Parrish, L. A. Burns, D. G. A. Smith, A. C. Simmonett,
    A. E. DePrince III, E. G. Hohenstein, U. Bozkaya, A. Yu. Sokolov,
    R. Di Remigio, R. M. Richard, J. F. Gonthier, A. M. James,
    H. R. McAlexander, A. Kumar, M. Saitow, X. Wang, B. P. Pritchard,
    P. Verma, H. F. Schaefer III, K. Patkowski, R. A. King, E. F. Valeev,
    F. A. Evangelista, J. M. Turney, T. D. Crawford, and C. D. Sherrill,
    J. Chem. Theory Comput. 13(7) pp 3185--3197 (2017).
    (doi: 10.1021/acs.jctc.7b00174)

    -----------------------------------------------------------------------


    Psi4 started on: Monday, 02 November 2020 10:36AM

    Process ID: 346833
    PSIDATADIR: /home/fs71337/airmler/src/psi4_uhf/build/stage/usr/local/psi4/share/psi4
    Memory:     500.0 MiB
    Threads:    48
    
  ==> Input File <==

--------------------------------------------------------------------------
# Any line starting with the # character is a comment line
memory 250000 mb
molecule molecule{
1 1
B          0.0000000000        0.0000000000        0.0000000000
}

set {
  reference rhf
  DOCC [     2,    0,    0,    0,    0,    0,    0,    0 ]
  basis aug-cc-pv(6+d)z
  scf_type OUT_OF_CORE
  freeze_core true
}

energy('ccsd')
--------------------------------------------------------------------------

  Memory set to 232.831 GiB by Python driver.

*** tstart() called on n412-071.vsc4.prov
*** at Mon Nov  2 10:36:15 2020

   => Loading Basis Set <=

    Name: AUG-CC-PV(6+D)Z
    Role: ORBITAL
    Keyword: BASIS
    atoms 1 entry B          line   171 file /home/fs71337/airmler/src/psi4_uhf/build/stage/usr/local/psi4/share/psi4/basis/aug-cc-pv_6pd_z.gbs 


         ---------------------------------------------------------
                                   SCF
            by Justin Turney, Rob Parrish, Andy Simmonett
                             and Daniel Smith
                              RHF Reference
                       48 Threads, 238418 MiB Core
         ---------------------------------------------------------

  ==> Geometry <==

    Molecular point group: d2h
    Geometry (in Angstrom), charge = 1, multiplicity = 1:

       Center              X                  Y                   Z               Mass       
    ------------   -----------------  -----------------  -----------------  -----------------
           B          0.000000000000     0.000000000000     0.000000000000    11.009305406000

  Running in d2h symmetry.

  Rotational constants: A = ************  B = ************  C = ************ [cm^-1]
  Rotational constants: A = ************  B = ************  C = ************ [MHz]
  Nuclear repulsion =    0.000000000000000

  Charge       = 1
  Multiplicity = 1
  Electrons    = 4
  Nalpha       = 2
  Nbeta        = 2

  ==> Algorithm <==

  SCF Algorithm Type is OUT_OF_CORE.
  DIIS enabled.
  MOM disabled.
  Fractional occupation disabled.
  Guess Type is CORE.
  Energy threshold   = 1.00e-08
  Density threshold  = 1.00e-08
  Integral threshold = 0.00e+00

  ==> Primary Basis <==

  Basis Set: AUG-CC-PV(6+D)Z
    Blend: AUG-CC-PV(6+D)Z
    Number of shells: 35
    Number of basis function: 189
    Number of Cartesian functions: 294
    Spherical Harmonics?: true
    Max angular momentum: 6

  ==> Pre-Iterations <==

   -------------------------------------------------------
    Irrep   Nso     Nmo     Nalpha   Nbeta   Ndocc  Nsocc
   -------------------------------------------------------
     Ag        40      40       2       2       2       0
     B1g       20      20       0       0       0       0
     B2g       20      20       0       0       0       0
     B3g       20      20       0       0       0       0
     Au        11      11       0       0       0       0
     B1u       26      26       0       0       0       0
     B2u       26      26       0       0       0       0
     B3u       26      26       0       0       0       0
   -------------------------------------------------------
    Total     189     189       2       2       2       0
   -------------------------------------------------------

  ==> Integral Setup <==

  ==> DiskJK: Disk-Based J/K Matrices <==

    J tasked:                  Yes
    K tasked:                  Yes
    wK tasked:                  No
    Memory (MB):            178813
    Schwarz Cutoff:          1E-12

  Minimum eigenvalue in the overlap matrix is 6.4642030766E-04.
  Using Symmetric Orthogonalization.

  SCF Guess: Core (One-Electron) Hamiltonian.

  ==> Iterations <==

                        Total Energy        Delta E     RMS |[F,P]|

   @RHF iter   1:   -23.39852869527415   -2.33985e+01   7.91520e-02 
   @RHF iter   2:   -24.22729529236369   -8.28767e-01   4.90361e-03 DIIS
   @RHF iter   3:   -24.23735407370297   -1.00588e-02   5.56993e-04 DIIS
   @RHF iter   4:   -24.23756745205723   -2.13378e-04   4.31317e-05 DIIS
   @RHF iter   5:   -24.23756930184430   -1.84979e-06   3.33572e-06 DIIS
   @RHF iter   6:   -24.23756931497148   -1.31272e-08   2.01435e-07 DIIS
   @RHF iter   7:   -24.23756931500653   -3.50511e-11   6.03441e-09 DIIS

  ==> Post-Iterations <==

    Orbital Energies (a.u.)
    -----------------------

    Doubly Occupied:                                                      

       1Ag    -8.185920     2Ag    -0.873824  

    Virtual:                                                              

       1B2u   -0.275908     1B1u   -0.275908     1B3u   -0.275908  
       3Ag    -0.113446     2B2u   -0.078452     2B3u   -0.078452  
       2B1u   -0.078452     4Ag    -0.034744     5Ag    -0.034744  
       1B1g   -0.034744     1B2g   -0.034744     1B3g   -0.034744  
       3B2u   -0.001992     3B3u   -0.001992     3B1u   -0.001992  
       6Ag     0.031178     4B3u    0.119488     1Au     0.119488  
       5B3u    0.119488     4B1u    0.119488     4B2u    0.119488  
       5B1u    0.119488     5B2u    0.119488     7Ag     0.156020  
       2B1g    0.156020     2B2g    0.156020     2B3g    0.156020  
       8Ag     0.156020     6B2u    0.236761     6B3u    0.236761  
       6B1u    0.236761     9Ag     0.497502     3B1g    0.577685  
      10Ag     0.577685     3B2g    0.577685    11Ag     0.577685  
       4B1g    0.577685     4B2g    0.577685     3B3g    0.577685  
      12Ag     0.577685     4B3g    0.577685     7B3u    0.606111  
       7B1u    0.606111     8B3u    0.606111     8B1u    0.606111  
       7B2u    0.606111     8B2u    0.606111     2Au     0.606111  
       5B2g    0.650403     5B1g    0.650403     5B3g    0.650403  
      13Ag     0.650403    14Ag     0.650403     9B2u    0.882087  
       9B3u    0.882087     9B1u    0.882087    10B1u    1.419222  
      10B2u    1.419222    11B1u    1.419222    11B2u    1.419222  
       3Au     1.419222    10B3u    1.419222     4Au     1.419222  
      12B1u    1.419222    12B2u    1.419222    11B3u    1.419222  
      12B3u    1.419222    13B3u    1.665706    13B1u    1.665706  
      14B1u    1.665706    14B3u    1.665706     5Au     1.665706  
      13B2u    1.665706    14B2u    1.665706     6B1g    1.836080  
      15Ag     1.836080     6B2g    1.836080    16Ag     1.836080  
       6B3g    1.836080     7B2g    1.836080     7B1g    1.836080  
       7B3g    1.836080    17Ag     1.836080     8B1g    1.843529  
       8B3g    1.843529     8B2g    1.843529    18Ag     1.843529  
      19Ag     1.843529    20Ag     1.933990    15B2u    2.520018  
      15B3u    2.520018    15B1u    2.520018     9B2g    3.132310  
       9B1g    3.132310     9B3g    3.132310    21Ag     3.132310  
      22Ag     3.132310    10B2g    3.132310    10B1g    3.132310  
      23Ag     3.132310    10B3g    3.132310    11B3g    3.132310  
      24Ag     3.132310    11B1g    3.132310    11B2g    3.132310  
      16B1u    3.759967    17B1u    3.759967    16B3u    3.759967  
      16B2u    3.759967     6Au     3.759967    17B2u    3.759967  
      17B3u    3.759967    18B1u    3.759967    18B2u    3.759967  
       7Au     3.759967    18B3u    3.759967    19B2u    3.925243  
      19B1u    3.925243    19B3u    3.925243    20B3u    3.925243  
      20B2u    3.925243     8Au     3.925243    20B1u    3.925243  
      25Ag     4.484663    12B1g    4.484663    12B3g    4.484663  
      13B3g    4.484663    26Ag     4.484663    12B2g    4.484663  
      13B1g    4.484663    27Ag     4.484663    13B2g    4.484663  
      14B3g    4.757358    14B1g    4.757358    14B2g    4.757358  
      28Ag     4.757358    29Ag     4.757358    30Ag     6.735795  
      15B2g    7.812164    31Ag     7.812164    32Ag     7.812164  
      15B1g    7.812164    15B3g    7.812164    16B1g    7.812164  
      16B3g    7.812164    16B2g    7.812164    17B1g    7.812164  
      33Ag     7.812164    17B3g    7.812164    34Ag     7.812164  
      17B2g    7.812164    21B3u    7.985874    21B2u    7.985874  
      21B1u    7.985874    22B2u    8.950760    22B1u    8.950760  
      22B3u    8.950760    23B3u    8.950760    23B2u    8.950760  
      23B1u    8.950760     9Au     8.950760    24B1u    9.127332  
      10Au     9.127332    25B1u    9.127332    24B2u    9.127332  
      26B1u    9.127332    24B3u    9.127332    11Au     9.127332  
      25B2u    9.127332    25B3u    9.127332    26B2u    9.127332  
      26B3u    9.127332    35Ag    10.368276    18B3g   10.368276  
      36Ag    10.368276    19B3g   10.368276    18B1g   10.368276  
      18B2g   10.368276    19B1g   10.368276    37Ag    10.368276  
      19B2g   10.368276    20B2g   12.001341    20B1g   12.001341  
      20B3g   12.001341    38Ag    12.001341    39Ag    12.001341  
      40Ag    35.199339  

    Final Occupation by Irrep:
             Ag   B1g   B2g   B3g    Au   B1u   B2u   B3u 
    DOCC [     2,    0,    0,    0,    0,    0,    0,    0 ]

  Energy converged.

  @RHF Final Energy:   -24.23756931500653

   => Energetics <=

    Nuclear Repulsion Energy =              0.0000000000000000
    One-Electron Energy =                 -30.3556515021161459
    Two-Electron Energy =                   6.1180821871096152
    Total Energy =                        -24.2375693150065317



Properties will be evaluated at   0.000000,   0.000000,   0.000000 Bohr

Properties computed using the SCF density matrix

  Nuclear Dipole Moment: (a.u.)
     X:     0.0000      Y:     0.0000      Z:     0.0000

  Electronic Dipole Moment: (a.u.)
     X:     0.0000      Y:     0.0000      Z:     0.0000

  Dipole Moment: (a.u.)
     X:     0.0000      Y:     0.0000      Z:     0.0000     Total:     0.0000

  Dipole Moment: (Debye)
     X:     0.0000      Y:     0.0000      Z:     0.0000     Total:     0.0000


*** tstop() called on n412-071.vsc4.prov at Mon Nov  2 10:37:25 2020
Module time:
	user time   =     219.06 seconds =       3.65 minutes
	system time =       7.83 seconds =       0.13 minutes
	total time  =         70 seconds =       1.17 minutes
Total time:
	user time   =     219.06 seconds =       3.65 minutes
	system time =       7.83 seconds =       0.13 minutes
	total time  =         70 seconds =       1.17 minutes

*** tstart() called on n412-071.vsc4.prov
*** at Mon Nov  2 10:37:25 2020


	Wfn Parameters:
	--------------------
	Wavefunction         = CCSD
	Number of irreps     = 8
	Number of MOs        = 189
	Number of active MOs = 188
	AO-Basis             = NONE
	Semicanonical        = false
	Reference            = RHF
	Print Level          = 1

	IRREP	# MOs	# FZDC	# DOCC	# SOCC	# VIRT	# FZVR
	-----	-----	------	------	------	------	------
	 Ag	   40	    1	    1	    0	    38	    0
	 B1g	   20	    0	    0	    0	    20	    0
	 B2g	   20	    0	    0	    0	    20	    0
	 B3g	   20	    0	    0	    0	    20	    0
	 Au	   11	    0	    0	    0	    11	    0
	 B1u	   26	    0	    0	    0	    26	    0
	 B2u	   26	    0	    0	    0	    26	    0
	 B3u	   26	    0	    0	    0	    26	    0
	Transforming integrals...
	IWL integrals will be deleted.
	(OO|OO)...
	Presorting SO-basis two-electron integrals.
	Sorting File: SO Ints (nn|nn) nbuckets = 1
	Transforming the one-electron integrals and constructing Fock matrices
	Starting first half-transformation.
	Sorting half-transformed integrals.
	First half integral transformation complete.
	Starting second half-transformation.
	Two-electron integral transformation complete.
	(OO|OV)...
	Starting second half-transformation.
	Two-electron integral transformation complete.
	(OO|VV)...
	Starting second half-transformation.
	Two-electron integral transformation complete.
	(OV|OO)...
	Starting first half-transformation.
	Sorting half-transformed integrals.
	First half integral transformation complete.
	Starting second half-transformation.
	Two-electron integral transformation complete.
	(OV|OV)...
	Starting second half-transformation.
	Two-electron integral transformation complete.
	(OV|VV)...
	Starting second half-transformation.
	Two-electron integral transformation complete.
	(VV|OO)...
	Starting first half-transformation.
	Sorting half-transformed integrals.
	First half integral transformation complete.
	Starting second half-transformation.
	Two-electron integral transformation complete.
	(VV|OV)...
	Starting second half-transformation.
	Two-electron integral transformation complete.
	(VV|VV)...
	Starting second half-transformation.
	Two-electron integral transformation complete.
	Frozen core energy     =    -21.98613741807303

	Size of irrep 0 of <ab|cd> integrals:     22.973 (MW) /    183.783 (MB)
	Size of irrep 1 of <ab|cd> integrals:     18.012 (MW) /    144.092 (MB)
	Size of irrep 2 of <ab|cd> integrals:     18.012 (MW) /    144.092 (MB)
	Size of irrep 3 of <ab|cd> integrals:     18.012 (MW) /    144.092 (MB)
	Size of irrep 4 of <ab|cd> integrals:     15.650 (MW) /    125.199 (MB)
	Size of irrep 5 of <ab|cd> integrals:     20.214 (MW) /    161.712 (MB)
	Size of irrep 6 of <ab|cd> integrals:     20.214 (MW) /    161.712 (MB)
	Size of irrep 7 of <ab|cd> integrals:     20.214 (MW) /    161.712 (MB)
	Total:                                   153.299 (MW) /   1226.396 (MB)

	Size of irrep 0 of <ia|bc> integrals:      0.182 (MW) /      1.457 (MB)
	Size of irrep 1 of <ia|bc> integrals:      0.085 (MW) /      0.679 (MB)
	Size of irrep 2 of <ia|bc> integrals:      0.085 (MW) /      0.679 (MB)
	Size of irrep 3 of <ia|bc> integrals:      0.085 (MW) /      0.679 (MB)
	Size of irrep 4 of <ia|bc> integrals:      0.044 (MW) /      0.348 (MB)
	Size of irrep 5 of <ia|bc> integrals:      0.117 (MW) /      0.935 (MB)
	Size of irrep 6 of <ia|bc> integrals:      0.117 (MW) /      0.935 (MB)
	Size of irrep 7 of <ia|bc> integrals:      0.117 (MW) /      0.935 (MB)
	Total:                                     0.831 (MW) /      6.648 (MB)

	Size of irrep 0 of tijab amplitudes:       0.005 (MW) /      0.038 (MB)
	Size of irrep 1 of tijab amplitudes:       0.000 (MW) /      0.000 (MB)
	Size of irrep 2 of tijab amplitudes:       0.000 (MW) /      0.000 (MB)
	Size of irrep 3 of tijab amplitudes:       0.000 (MW) /      0.000 (MB)
	Size of irrep 4 of tijab amplitudes:       0.000 (MW) /      0.000 (MB)
	Size of irrep 5 of tijab amplitudes:       0.000 (MW) /      0.000 (MB)
	Size of irrep 6 of tijab amplitudes:       0.000 (MW) /      0.000 (MB)
	Size of irrep 7 of tijab amplitudes:       0.000 (MW) /      0.000 (MB)
	Total:                                     0.005 (MW) /      0.038 (MB)

	Nuclear Rep. energy          =      0.00000000000000
	SCF energy                   =    -24.23756931500653
	One-electron energy          =     -2.75521593577881
	Two-electron energy          =      0.50378403884536
	Reference energy             =    -24.23756931500647

*** tstop() called on n412-071.vsc4.prov at Mon Nov  2 10:38:00 2020
Module time:
	user time   =      56.36 seconds =       0.94 minutes
	system time =       6.83 seconds =       0.11 minutes
	total time  =         35 seconds =       0.58 minutes
Total time:
	user time   =     275.42 seconds =       4.59 minutes
	system time =      14.66 seconds =       0.24 minutes
	total time  =        105 seconds =       1.75 minutes

*** tstart() called on n412-071.vsc4.prov
*** at Mon Nov  2 10:38:00 2020

            **************************
            *                        *
            *        CCENERGY        *
            *                        *
            **************************

    Nuclear Rep. energy (wfn)     =    0.000000000000000
    SCF energy          (wfn)     =  -24.237569315006532
    Reference energy    (file100) =  -24.237569315006475

    Input parameters:
    -----------------
    Wave function   =     CCSD
    Reference wfn   =     RHF
    Brueckner       =     No
    Memory (Mbytes) =     250000.0
    Maxiter         =     50
    R_Convergence   =     1.0e-07
    E_Convergence   =     1.0e-06
    Restart         =     Yes
    DIIS            =     Yes
    AO Basis        =     NONE
    ABCD            =     NEW
    Cache Level     =     2
    Cache Type      =     LOW
    Print Level     =     1
    Num. of threads =     48
    # Amps to Print =     10
    Print MP2 Amps? =     No
    Analyze T2 Amps =     No
    Print Pair Ener =     No
    Local CC        =     No
    SCS-MP2         =     False
    SCSN-MP2        =     False
    SCS-CCSD        =     False

MP2 correlation energy -0.0390114994894509
                Solving CC Amplitude Equations
                ------------------------------
  Iter             Energy              RMS        T1Diag      D1Diag    New D1Diag    D2Diag
  ----     ---------------------    ---------   ----------  ----------  ----------   --------
     0        -0.039011499489450    0.000e+00    0.000000    0.000000    0.000000    0.157051
     1        -0.061527521690527    7.293e-02    0.012448    0.017605    0.017605    0.291794
     2        -0.061175678653763    8.683e-03    0.012547    0.017744    0.017744    0.290804
     3        -0.060991516426389    2.031e-03    0.012918    0.018269    0.018269    0.291169
     4        -0.061149982264343    7.538e-04    0.013002    0.018387    0.018387    0.292051
     5        -0.061205878466171    2.790e-04    0.013044    0.018447    0.018447    0.292481
     6        -0.061225490042655    6.972e-05    0.013049    0.018454    0.018454    0.292593
     7        -0.061230782308674    1.213e-05    0.013050    0.018455    0.018455    0.292622
     8        -0.061229349903372    3.595e-06    0.013050    0.018455    0.018455    0.292614
     9        -0.061229642009707    8.404e-07    0.013050    0.018455    0.018455    0.292616
    10        -0.061229642996842    3.321e-08    0.013050    0.018455    0.018455    0.292616
    10        -0.061229642996842    3.321e-08    0.013050    0.018455    0.018455    0.292616

    Iterations converged.


    CCSD corr. energy   =   -0.061229642996842
    PPL corr. energy    =    0.035324407933397
    OS PPL corr. energy =    0.035324407933397
    SS PPL corr. energy =    0.000000000000000
    Largest TIA Amplitudes:
              0   3        -0.0116168698
              0   0         0.0109868689
              0   6         0.0090867657
              0  17        -0.0014889666
              0  27        -0.0003773002
              0  37         0.0000029618

    Largest TIjAb Amplitudes:
      0   0 109 109        -0.2225513498
      0   0 135 135        -0.2225513498
      0   0 161 161        -0.2225513498
      0   0 109 114        -0.0490652560
      0   0 114 109        -0.0490652560
      0   0 135 140        -0.0490652560
      0   0 140 135        -0.0490652560
      0   0 161 166        -0.0490652560
      0   0 166 161        -0.0490652560
      0   0 109 111        -0.0484502561

    SCF energy       (wfn)                    =  -24.237569315006532
    Reference energy (file100)                =  -24.237569315006475

    Opposite-spin MP2 correlation energy      =   -0.039011499489450
    Same-spin MP2 correlation energy          =    0.000000000000000
    MP2 correlation energy                    =   -0.039011499489451
      * MP2 total energy                      =  -24.276580814495926

    Opposite-spin CCSD correlation energy     =   -0.061229642589182
    Same-spin CCSD correlation energy         =    0.000000000000000
    CCSD correlation energy                   =   -0.061229642996842
      * CCSD total energy                     =  -24.298798958003317


*** tstop() called on n412-071.vsc4.prov at Mon Nov  2 10:38:12 2020
Module time:
	user time   =     331.04 seconds =       5.52 minutes
	system time =       7.94 seconds =       0.13 minutes
	total time  =         12 seconds =       0.20 minutes
Total time:
	user time   =     606.46 seconds =      10.11 minutes
	system time =      22.60 seconds =       0.38 minutes
	total time  =        117 seconds =       1.95 minutes

*** Psi4 exiting successfully. Buy a developer a beer!
