
    -----------------------------------------------------------------------
          Psi4: An Open-Source Ab Initio Electronic Structure Package
                               Psi4 1.2a1.dev939 

                         Git: Rev {HEAD} fa1ec19 


    R. M. Parrish, L. A. Burns, D. G. A. Smith, A. C. Simmonett,
    A. E. DePrince III, E. G. Hohenstein, U. Bozkaya, A. Yu. Sokolov,
    R. Di Remigio, R. M. Richard, J. F. Gonthier, A. M. James,
    H. R. McAlexander, A. Kumar, M. Saitow, X. Wang, B. P. Pritchard,
    P. Verma, H. F. Schaefer III, K. Patkowski, R. A. King, E. F. Valeev,
    F. A. Evangelista, J. M. Turney, T. D. Crawford, and C. D. Sherrill,
    J. Chem. Theory Comput. 13(7) pp 3185--3197 (2017).
    (doi: 10.1021/acs.jctc.7b00174)

    -----------------------------------------------------------------------


    Psi4 started on: Friday, 03 May 2019 11:52AM

    Process ID:   7411
    PSIDATADIR: /home/grueneis/src/psi4/objdir/stage/usr/local/psi4/share/psi4
    Memory:     500.0 MiB
    Threads:    1
    
  ==> Input File <==

--------------------------------------------------------------------------
# Any line starting with the # character is a comment line

memory 32000 mb

molecule molecule {
1 1
B          0.0000000000        0.0000000000        0.0000000000
}

set {
  reference rhf
  DOCC [     2,    0,    0,    0,    0,    0,    0,    0 ]

  basis aug-cc-pv(T+d)z
  scf_type OUT_OF_CORE
  freeze_core true
}

energy('ccsd')
--------------------------------------------------------------------------

  Memory set to  29.802 GiB by Python driver.

*** tstart() called on cqc03
*** at Fri May  3 11:52:04 2019

   => Loading Basis Set <=

    Name: AUG-CC-PV(T+D)Z
    Role: ORBITAL
    Keyword: BASIS
    atoms 1 entry B          line   209 file /home/grueneis/src/psi4/objdir/stage/usr/local/psi4/share/psi4/basis/aug-cc-pv_tpd_z.gbs 


         ---------------------------------------------------------
                                   SCF
            by Justin Turney, Rob Parrish, Andy Simmonett
                             and Daniel Smith
                              RHF Reference
                        1 Threads,  30517 MiB Core
         ---------------------------------------------------------

  ==> Geometry <==

    Molecular point group: d2h
    Geometry (in Angstrom), charge = 1, multiplicity = 1:

       Center              X                  Y                   Z               Mass       
    ------------   -----------------  -----------------  -----------------  -----------------
           B          0.000000000000     0.000000000000     0.000000000000    11.009305406000

  Running in d2h symmetry.

  Rotational constants: A = ************  B = ************  C = ************ [cm^-1]
  Rotational constants: A = ************  B = ************  C = ************ [MHz]
  Nuclear repulsion =    0.000000000000000

  Charge       = 1
  Multiplicity = 1
  Electrons    = 4
  Nalpha       = 2
  Nbeta        = 2

  ==> Algorithm <==

  SCF Algorithm Type is OUT_OF_CORE.
  DIIS enabled.
  MOM disabled.
  Fractional occupation disabled.
  Guess Type is CORE.
  Energy threshold   = 1.00e-08
  Density threshold  = 1.00e-08
  Integral threshold = 0.00e+00

  ==> Primary Basis <==

  Basis Set: AUG-CC-PV(T+D)Z
    Blend: AUG-CC-PV(T+D)Z
    Number of shells: 14
    Number of basis function: 46
    Number of Cartesian functions: 55
    Spherical Harmonics?: true
    Max angular momentum: 3

  ==> Pre-Iterations <==

   -------------------------------------------------------
    Irrep   Nso     Nmo     Nalpha   Nbeta   Ndocc  Nsocc
   -------------------------------------------------------
     Ag        11      11       2       2       2       0
     B1g        3       3       0       0       0       0
     B2g        3       3       0       0       0       0
     B3g        3       3       0       0       0       0
     Au         2       2       0       0       0       0
     B1u        8       8       0       0       0       0
     B2u        8       8       0       0       0       0
     B3u        8       8       0       0       0       0
   -------------------------------------------------------
    Total      46      46       2       2       2       0
   -------------------------------------------------------

  ==> Integral Setup <==

  ==> DiskJK: Disk-Based J/K Matrices <==

    J tasked:                  Yes
    K tasked:                  Yes
    wK tasked:                  No
    Memory (MB):             22888
    Schwarz Cutoff:          1E-12

  Minimum eigenvalue in the overlap matrix is 2.5053959051E-02.
  Using Symmetric Orthogonalization.

  SCF Guess: Core (One-Electron) Hamiltonian.

  ==> Iterations <==

                        Total Energy        Delta E     RMS |[F,P]|

   @RHF iter   1:   -23.49398315014073   -2.34940e+01   7.47579e-02 
   @RHF iter   2:   -24.22630463671090   -7.32321e-01   7.13959e-03 DIIS
   @RHF iter   3:   -24.23662459037184   -1.03200e-02   7.21907e-04 DIIS
   @RHF iter   4:   -24.23681355627043   -1.88966e-04   6.97924e-05 DIIS
   @RHF iter   5:   -24.23681569535206   -2.13908e-06   2.93147e-06 DIIS
   @RHF iter   6:   -24.23681570007834   -4.72629e-09   1.53122e-07 DIIS
   @RHF iter   7:   -24.23681570008753   -9.19087e-12   1.38240e-09 DIIS

  ==> Post-Iterations <==

    Orbital Energies (a.u.)
    -----------------------

    Doubly Occupied:                                                      

       1Ag    -8.185320     2Ag    -0.873753  

    Virtual:                                                              

       1B3u   -0.275716     1B1u   -0.275716     1B2u   -0.275716  
       3Ag    -0.110068     2B1u   -0.075684     2B2u   -0.075684  
       2B3u   -0.075684     4Ag    -0.003943     5Ag    -0.003943  
       1B1g   -0.003943     1B2g   -0.003943     1B3g   -0.003943  
       3B3u    0.121472     3B2u    0.121472     3B1u    0.121472  
       6Ag     0.225602     7Ag     0.375520     2B1g    0.375520  
       2B2g    0.375520     2B3g    0.375520     8Ag     0.375520  
       4B1u    0.414098     4B2u    0.414098     4B3u    0.414098  
       1Au     0.414098     5B2u    0.414098     5B1u    0.414098  
       5B3u    0.414098     6B3u    1.165651     6B2u    1.165651  
       6B1u    1.165651     3B2g    1.739906     3B3g    1.739906  
       3B1g    1.739906     9Ag     1.739906    10Ag     1.739906  
       7B3u    1.850114     7B1u    1.850114     7B2u    1.850114  
       2Au     1.850114     8B3u    1.850114     8B2u    1.850114  
       8B1u    1.850114    11Ag     2.783091  

    Final Occupation by Irrep:
             Ag   B1g   B2g   B3g    Au   B1u   B2u   B3u 
    DOCC [     2,    0,    0,    0,    0,    0,    0,    0 ]

  Energy converged.

  @RHF Final Energy:   -24.23681570008753

   => Energetics <=

    Nuclear Repulsion Energy =              0.0000000000000000
    One-Electron Energy =                 -30.3554851139105502
    Two-Electron Energy =                   6.1186694138230209
    Total Energy =                        -24.2368157000875293



Properties will be evaluated at   0.000000,   0.000000,   0.000000 Bohr

Properties computed using the SCF density matrix

  Nuclear Dipole Moment: (a.u.)
     X:     0.0000      Y:     0.0000      Z:     0.0000

  Electronic Dipole Moment: (a.u.)
     X:     0.0000      Y:     0.0000      Z:     0.0000

  Dipole Moment: (a.u.)
     X:     0.0000      Y:     0.0000      Z:     0.0000     Total:     0.0000

  Dipole Moment: (Debye)
     X:     0.0000      Y:     0.0000      Z:     0.0000     Total:     0.0000


*** tstop() called on cqc03 at Fri May  3 11:52:05 2019
Module time:
	user time   =       0.14 seconds =       0.00 minutes
	system time =       0.01 seconds =       0.00 minutes
	total time  =          1 seconds =       0.02 minutes
Total time:
	user time   =       0.14 seconds =       0.00 minutes
	system time =       0.01 seconds =       0.00 minutes
	total time  =          1 seconds =       0.02 minutes

*** tstart() called on cqc03
*** at Fri May  3 11:52:05 2019


	Wfn Parameters:
	--------------------
	Wavefunction         = CCSD
	Number of irreps     = 8
	Number of MOs        = 46
	Number of active MOs = 45
	AO-Basis             = NONE
	Semicanonical        = false
	Reference            = RHF
	Print Level          = 1

	IRREP	# MOs	# FZDC	# DOCC	# SOCC	# VIRT	# FZVR
	-----	-----	------	------	------	------	------
	 Ag	   11	    1	    1	    0	    9	    0
	 B1g	   3	    0	    0	    0	    3	    0
	 B2g	   3	    0	    0	    0	    3	    0
	 B3g	   3	    0	    0	    0	    3	    0
	 Au	   2	    0	    0	    0	    2	    0
	 B1u	   8	    0	    0	    0	    8	    0
	 B2u	   8	    0	    0	    0	    8	    0
	 B3u	   8	    0	    0	    0	    8	    0
	Transforming integrals...
	IWL integrals will be deleted.
	(OO|OO)...
	Presorting SO-basis two-electron integrals.
	Sorting File: SO Ints (nn|nn) nbuckets = 1
	Transforming the one-electron integrals and constructing Fock matrices
	Starting first half-transformation.
	Sorting half-transformed integrals.
	First half integral transformation complete.
	Starting second half-transformation.
	Two-electron integral transformation complete.
	(OO|OV)...
	Starting second half-transformation.
	Two-electron integral transformation complete.
	(OO|VV)...
	Starting second half-transformation.
	Two-electron integral transformation complete.
	(OV|OO)...
	Starting first half-transformation.
	Sorting half-transformed integrals.
	First half integral transformation complete.
	Starting second half-transformation.
	Two-electron integral transformation complete.
	(OV|OV)...
	Starting second half-transformation.
	Two-electron integral transformation complete.
	(OV|VV)...
	Starting second half-transformation.
	Two-electron integral transformation complete.
	(VV|OO)...
	Starting first half-transformation.
	Sorting half-transformed integrals.
	First half integral transformation complete.
	Starting second half-transformation.
	Two-electron integral transformation complete.
	(VV|OV)...
	Starting second half-transformation.
	Two-electron integral transformation complete.
	(VV|VV)...
	Starting second half-transformation.
	Two-electron integral transformation complete.
	Frozen core energy     =    -21.98556522131907

	Size of irrep 0 of <ab|cd> integrals:      0.092 (MW) /      0.739 (MB)
	Size of irrep 1 of <ab|cd> integrals:      0.054 (MW) /      0.431 (MB)
	Size of irrep 2 of <ab|cd> integrals:      0.054 (MW) /      0.431 (MB)
	Size of irrep 3 of <ab|cd> integrals:      0.054 (MW) /      0.431 (MB)
	Size of irrep 4 of <ab|cd> integrals:      0.032 (MW) /      0.259 (MB)
	Size of irrep 5 of <ab|cd> integrals:      0.064 (MW) /      0.508 (MB)
	Size of irrep 6 of <ab|cd> integrals:      0.064 (MW) /      0.508 (MB)
	Size of irrep 7 of <ab|cd> integrals:      0.064 (MW) /      0.508 (MB)
	Total:                                     0.477 (MW) /      3.814 (MB)

	Size of irrep 0 of <ia|bc> integrals:      0.003 (MW) /      0.022 (MB)
	Size of irrep 1 of <ia|bc> integrals:      0.001 (MW) /      0.006 (MB)
	Size of irrep 2 of <ia|bc> integrals:      0.001 (MW) /      0.006 (MB)
	Size of irrep 3 of <ia|bc> integrals:      0.001 (MW) /      0.006 (MB)
	Size of irrep 4 of <ia|bc> integrals:      0.000 (MW) /      0.003 (MB)
	Size of irrep 5 of <ia|bc> integrals:      0.002 (MW) /      0.016 (MB)
	Size of irrep 6 of <ia|bc> integrals:      0.002 (MW) /      0.016 (MB)
	Size of irrep 7 of <ia|bc> integrals:      0.002 (MW) /      0.016 (MB)
	Total:                                     0.011 (MW) /      0.090 (MB)

	Size of irrep 0 of tijab amplitudes:       0.000 (MW) /      0.002 (MB)
	Size of irrep 1 of tijab amplitudes:       0.000 (MW) /      0.000 (MB)
	Size of irrep 2 of tijab amplitudes:       0.000 (MW) /      0.000 (MB)
	Size of irrep 3 of tijab amplitudes:       0.000 (MW) /      0.000 (MB)
	Size of irrep 4 of tijab amplitudes:       0.000 (MW) /      0.000 (MB)
	Size of irrep 5 of tijab amplitudes:       0.000 (MW) /      0.000 (MB)
	Size of irrep 6 of tijab amplitudes:       0.000 (MW) /      0.000 (MB)
	Size of irrep 7 of tijab amplitudes:       0.000 (MW) /      0.000 (MB)
	Total:                                     0.000 (MW) /      0.002 (MB)

	Nuclear Rep. energy          =      0.00000000000000
	SCF energy                   =    -24.23681570008753
	One-electron energy          =     -2.75499528812928
	Two-electron energy          =      0.50374480936084
	Reference energy             =    -24.23681570008750

*** tstop() called on cqc03 at Fri May  3 11:52:05 2019
Module time:
	user time   =       0.07 seconds =       0.00 minutes
	system time =       0.07 seconds =       0.00 minutes
	total time  =          0 seconds =       0.00 minutes
Total time:
	user time   =       0.21 seconds =       0.00 minutes
	system time =       0.08 seconds =       0.00 minutes
	total time  =          1 seconds =       0.02 minutes

*** tstart() called on cqc03
*** at Fri May  3 11:52:05 2019

            **************************
            *                        *
            *        CCENERGY        *
            *                        *
            **************************

    Nuclear Rep. energy (wfn)     =    0.000000000000000
    SCF energy          (wfn)     =  -24.236815700087533
    Reference energy    (file100) =  -24.236815700087504

    Input parameters:
    -----------------
    Wave function   =     CCSD
    Reference wfn   =     RHF
    Brueckner       =     No
    Memory (Mbytes) =     32000.0
    Maxiter         =     50
    R_Convergence   =     1.0e-07
    E_Convergence   =     1.0e-06
    Restart         =     Yes
    DIIS            =     Yes
    AO Basis        =     NONE
    ABCD            =     NEW
    Cache Level     =     2
    Cache Type      =     LOW
    Print Level     =     1
    Num. of threads =     1
    # Amps to Print =     10
    Print MP2 Amps? =     No
    Analyze T2 Amps =     No
    Print Pair Ener =     No
    Local CC        =     No
    SCS-MP2         =     False
    SCSN-MP2        =     False
    SCS-CCSD        =     False

MP2 correlation energy -0.0360047644901590
                Solving CC Amplitude Equations
                ------------------------------
  Iter             Energy              RMS        T1Diag      D1Diag    New D1Diag    D2Diag
  ----     ---------------------    ---------   ----------  ----------  ----------   --------
     0        -0.036004764490159    0.000e+00    0.000000    0.000000    0.000000    0.155709
     1        -0.061611335575200    6.235e-02    0.010037    0.014194    0.014194    0.297010
     2        -0.059300692774710    1.079e-02    0.011648    0.016473    0.016473    0.291722
     3        -0.059579953735504    1.875e-03    0.011782    0.016662    0.016662    0.293082
     4        -0.059714427437847    8.485e-04    0.011948    0.016898    0.016898    0.294090
     5        -0.059785393836884    2.816e-04    0.011967    0.016924    0.016924    0.294484
     6        -0.059808654397421    7.411e-05    0.011969    0.016927    0.016927    0.294614
     7        -0.059810376846168    7.149e-06    0.011970    0.016928    0.016928    0.294624
     8        -0.059811118802009    1.980e-06    0.011970    0.016928    0.016928    0.294628
     9        -0.059811055176583    2.499e-07    0.011970    0.016928    0.016928    0.294628
    10        -0.059811055510638    1.756e-08    0.011970    0.016928    0.016928    0.294628
    10        -0.059811055510638    1.756e-08    0.011970    0.016928    0.016928    0.294628

    Iterations converged.


    CCSD corr. energy   =   -0.059811055510638
    PPL corr. energy    =    0.033359278448544
    OS PPL corr. energy =    0.033359278448544
    SS PPL corr. energy =    0.000000000000000
    Largest TIA Amplitudes:
              0   3         0.0126395556
              0   0         0.0112036376
              0   8        -0.0011335121

    Largest TIjAb Amplitudes:
      0   0  20  20        -0.2235318726
      0   0  28  28        -0.2235318726
      0   0  36  36        -0.2235318726
      0   0  20  22        -0.0667361328
      0   0  22  20        -0.0667361328
      0   0  28  30        -0.0667361328
      0   0  30  28        -0.0667361328
      0   0  36  38        -0.0667361328
      0   0  38  36        -0.0667361328
      0   0  20  21        -0.0473039406

    SCF energy       (wfn)                    =  -24.236815700087533
    Reference energy (file100)                =  -24.236815700087504

    Opposite-spin MP2 correlation energy      =   -0.036004764490159
    Same-spin MP2 correlation energy          =    0.000000000000000
    MP2 correlation energy                    =   -0.036004764490159
      * MP2 total energy                      =  -24.272820464577663

    Opposite-spin CCSD correlation energy     =   -0.059811055498708
    Same-spin CCSD correlation energy         =    0.000000000000000
    CCSD correlation energy                   =   -0.059811055510638
      * CCSD total energy                     =  -24.296626755598144


*** tstop() called on cqc03 at Fri May  3 11:52:07 2019
Module time:
	user time   =       0.20 seconds =       0.00 minutes
	system time =       0.22 seconds =       0.00 minutes
	total time  =          2 seconds =       0.03 minutes
Total time:
	user time   =       0.41 seconds =       0.01 minutes
	system time =       0.30 seconds =       0.01 minutes
	total time  =          3 seconds =       0.05 minutes

*** Psi4 exiting successfully. Buy a developer a beer!
