
    -----------------------------------------------------------------------
          Psi4: An Open-Source Ab Initio Electronic Structure Package
                               Psi4 1.2a1.dev938 

                         Git: Rev {HEAD} fc51d9a dirty


    R. M. Parrish, L. A. Burns, D. G. A. Smith, A. C. Simmonett,
    A. E. DePrince III, E. G. Hohenstein, U. Bozkaya, A. Yu. Sokolov,
    R. Di Remigio, R. M. Richard, J. F. Gonthier, A. M. James,
    H. R. McAlexander, A. Kumar, M. Saitow, X. Wang, B. P. Pritchard,
    P. Verma, H. F. Schaefer III, K. Patkowski, R. A. King, E. F. Valeev,
    F. A. Evangelista, J. M. Turney, T. D. Crawford, and C. D. Sherrill,
    J. Chem. Theory Comput. 13(7) pp 3185--3197 (2017).
    (doi: 10.1021/acs.jctc.7b00174)

    -----------------------------------------------------------------------


    Psi4 started on: Friday, 21 August 2020 06:49AM

    Process ID: 428117
    PSIDATADIR: /home/irmler/Programs/psi4/beforeGrueneis3/stage/usr/local/psi4/share/psi4
    Memory:     500.0 MiB
    Threads:    4
    
  ==> Input File <==

--------------------------------------------------------------------------
# Any line starting with the # character is a comment line
memory 250000 mb
molecule molecule{
0 2
Cl          0.0000000000        0.0000000000        0.0000000000
}

set {
  reference uhf
  basis aug-cc-pv(5+d)z
  scf_type OUT_OF_CORE
  freeze_core true
}

energy('ccsd')
--------------------------------------------------------------------------

  Memory set to 232.831 GiB by Python driver.

*** tstart() called on cqc05
*** at Fri Aug 21 06:49:44 2020

   => Loading Basis Set <=

    Name: AUG-CC-PV(5+D)Z
    Role: ORBITAL
    Keyword: BASIS
    atoms 1 entry CL         line  1092 file /home/irmler/Programs/psi4/beforeGrueneis3/stage/usr/local/psi4/share/psi4/basis/aug-cc-pv_5pd_z.gbs 


         ---------------------------------------------------------
                                   SCF
            by Justin Turney, Rob Parrish, Andy Simmonett
                             and Daniel Smith
                              UHF Reference
                        4 Threads, 238418 MiB Core
         ---------------------------------------------------------

  ==> Geometry <==

    Molecular point group: d2h
    Geometry (in Angstrom), charge = 0, multiplicity = 2:

       Center              X                  Y                   Z               Mass       
    ------------   -----------------  -----------------  -----------------  -----------------
          CL          0.000000000000     0.000000000000     0.000000000000    34.968852682000

  Running in d2h symmetry.

  Rotational constants: A = ************  B = ************  C = ************ [cm^-1]
  Rotational constants: A = ************  B = ************  C = ************ [MHz]
  Nuclear repulsion =    0.000000000000000

  Charge       = 0
  Multiplicity = 2
  Electrons    = 17
  Nalpha       = 9
  Nbeta        = 8

  ==> Algorithm <==

  SCF Algorithm Type is OUT_OF_CORE.
  DIIS enabled.
  MOM disabled.
  Fractional occupation disabled.
  Guess Type is GWH.
  Energy threshold   = 1.00e-08
  Density threshold  = 1.00e-08
  Integral threshold = 0.00e+00

  ==> Primary Basis <==

  Basis Set: AUG-CC-PV(5+D)Z
    Blend: AUG-CC-PV(5+D)Z
    Number of shells: 30
    Number of basis function: 136
    Number of Cartesian functions: 192
    Spherical Harmonics?: true
    Max angular momentum: 5

  ==> Pre-Iterations <==

   -------------------------------------------------------
    Irrep   Nso     Nmo     Nalpha   Nbeta   Ndocc  Nsocc
   -------------------------------------------------------
     Ag        29      29       0       0       0       0
     B1g       12      12       0       0       0       0
     B2g       12      12       0       0       0       0
     B3g       12      12       0       0       0       0
     Au         8       8       0       0       0       0
     B1u       21      21       0       0       0       0
     B2u       21      21       0       0       0       0
     B3u       21      21       0       0       0       0
   -------------------------------------------------------
    Total     136     136       9       8       8       1
   -------------------------------------------------------

  ==> Integral Setup <==

  ==> DiskJK: Disk-Based J/K Matrices <==

    J tasked:                  Yes
    K tasked:                  Yes
    wK tasked:                  No
    Memory (MB):            178813
    Schwarz Cutoff:          1E-12

  Minimum eigenvalue in the overlap matrix is 6.2159410046E-05.
  Using Symmetric Orthogonalization.

  SCF Guess: Generalized Wolfsberg-Helmholtz.

  ==> Iterations <==

                        Total Energy        Delta E     RMS |[F,P]|

    Occupation by irrep:
             Ag   B1g   B2g   B3g    Au   B1u   B2u   B3u 
    DOCC [     3,    0,    0,    0,    0,    2,    1,    2 ]
    SOCC [     0,    0,    0,    0,    0,    0,    1,    0 ]

   @UHF iter   1:  -436.80310519447755   -4.36803e+02   2.91438e-01 
    Occupation by irrep:
             Ag   B1g   B2g   B3g    Au   B1u   B2u   B3u 
    DOCC [     3,    0,    0,    0,    0,    2,    2,    1 ]
    SOCC [     0,    0,    0,    0,    0,    0,    0,    1 ]

   @UHF iter   2:  -450.02949780710424   -1.32264e+01   9.37706e-02 DIIS
   @UHF iter   3:  -458.64175101049017   -8.61225e+00   4.42787e-02 DIIS
   @UHF iter   4:  -459.43557977114966   -7.93829e-01   7.88087e-03 DIIS
   @UHF iter   5:  -459.48685465885518   -5.12749e-02   2.61789e-03 DIIS
   @UHF iter   6:  -459.48969998436087   -2.84533e-03   2.95371e-04 DIIS
   @UHF iter   7:  -459.48975421462899   -5.42303e-05   5.65204e-05 DIIS
   @UHF iter   8:  -459.48975773775345   -3.52312e-06   7.26763e-06 DIIS
   @UHF iter   9:  -459.48975782465493   -8.69015e-08   1.91877e-06 DIIS
   @UHF iter  10:  -459.48975783269373   -8.03880e-09   4.12187e-07 DIIS
   @UHF iter  11:  -459.48975783298744   -2.93710e-10   6.64186e-08 DIIS
   @UHF iter  12:  -459.48975783299363   -6.19593e-12   9.84386e-09 DIIS

  ==> Post-Iterations <==

   @Spin Contamination Metric:   1.079923010E-02
   @S^2 Expected:                7.500000000E-01
   @S^2 Observed:                7.607992301E-01
   @S   Expected:                5.000000000E-01
   @S   Observed:                5.000000000E-01

    Orbital Energies (a.u.)
    -----------------------

    Alpha Occupied:                                                       

       1Ag  -104.889532     2Ag   -10.612212     1B3u   -8.097998  
       1B2u   -8.073712     1B1u   -8.073712     3Ag    -1.136103  
       2B3u   -0.581805     2B2u   -0.502505     2B1u   -0.502505  

    Alpha Virtual:                                                        

       3B3u    0.081270     3B2u    0.086859     3B1u    0.086859  
       4Ag     0.086869     5Ag     0.223423     1B2g    0.226686  
       1B1g    0.226686     6Ag     0.237847     1B3g    0.237847  
       4B3u    0.377285     4B2u    0.398029     4B1u    0.398029  
       7Ag     0.510119     8Ag     0.552256     2B1g    0.561729  
       2B2g    0.561729     2B3g    0.595649     9Ag     0.595649  
       5B3u    0.600347     5B1u    0.602057     5B2u    0.602057  
       6B3u    0.607272     1Au     0.607272     6B2u    0.616453  
       6B1u    0.616453    10Ag     1.319463     3B2g    1.321306  
       3B1g    1.321306    11Ag     1.326454     3B3g    1.326454  
       4B2g    1.334581     4B1g    1.334581     7B3u    1.342097  
       4B3g    1.345990    12Ag     1.345990    13Ag     1.366597  
       5B1g    1.376604     5B2g    1.376604     7B2u    1.386272  
       7B1u    1.386272    14Ag     1.411216     5B3g    1.411216  
       8B3u    1.495390     8B2u    1.499609     8B1u    1.499609  
       2Au     1.511986     9B3u    1.511986     9B2u    1.534662  
       9B1u    1.534662    15Ag     1.934984    10B3u    3.194669  
      10B2u    3.201091    10B1u    3.201091    11B3u    3.220515  
       3Au     3.220515    16Ag     3.243043     6B1g    3.247164  
       6B2g    3.247164    11B2u    3.253668    11B1u    3.253668  
      17Ag     3.258841     6B3g    3.258841     7B1g    3.276795  
       7B2g    3.276795    18Ag     3.300725     7B3g    3.300725  
      19Ag     3.341035     8B1g    3.351243     8B2g    3.351243  
      12B3u    3.383254    12B1u    3.385075    12B2u    3.385075  
      20Ag     3.385928     8B3g    3.385928    13B3u    3.390562  
       4Au     3.390562    13B2u    3.399787    13B1u    3.399787  
      14B3u    3.412886     5Au     3.412886    14B2u    3.430135  
      14B1u    3.430135    15B3u    4.368380    15B2u    4.418956  
      15B1u    4.418956    16B3u    6.540861    16B2u    6.547131  
      16B1u    6.547131    17B3u    6.566147     6Au     6.566147  
      17B2u    6.598637    17B1u    6.598637    21Ag     6.703907  
      22Ag     7.224192     9B1g    7.234232     9B2g    7.234232  
      23Ag     7.270260     9B3g    7.270260    24Ag     7.369610  
      10B1g    7.373240    10B2g    7.373240    25Ag     7.384321  
      10B3g    7.384321    11B1g    7.403060    11B2g    7.403060  
      26Ag     7.432735    11B3g    7.432735    18B3u    7.646525  
      18B2u    7.649192    18B1u    7.649192    19B3u    7.657225  
       7Au     7.657225    19B2u    7.670718    19B1u    7.670718  
       8Au     7.689834    20B3u    7.689834    20B2u    7.714813  
      20B1u    7.714813    27Ag    20.474218    12B1g   20.481560  
      12B2g   20.481560    12B3g   20.504037    28Ag    20.504037  
      21B3u   37.911267    21B2u   37.932715    21B1u   37.932715  
      29Ag    72.677850  

    Beta Occupied:                                                        

       1Ag  -104.877731     2Ag   -10.601100     1B1u   -8.067697  
       1B2u   -8.067697     1B3u   -8.048181     3Ag    -1.014446  
       2B1u   -0.480923     2B2u   -0.480923  

    Beta Virtual:                                                         

       2B3u   -0.040815     3B1u    0.087336     3B2u    0.087336  
       4Ag     0.090370     3B3u    0.095129     5Ag     0.237494  
       1B3g    0.237494     1B1g    0.238483     1B2g    0.238483  
       6Ag     0.239041     4B1u    0.401168     4B2u    0.401168  
       4B3u    0.422830     7Ag     0.523740     2B3g    0.598004  
       8Ag     0.598004     5B3u    0.606075     5B2u    0.607107  
       5B1u    0.607107     6B3u    0.610357     1Au     0.610357  
       6B2u    0.615932     6B1u    0.615932     2B2g    0.620626  
       2B1g    0.620626     9Ag     0.629730    10Ag     1.326523  
       3B1g    1.327722     3B2g    1.327722    11Ag     1.331335  
       3B3g    1.331335     4B2g    1.337308     4B1g    1.337308  
       4B3g    1.345317    12Ag     1.345317     7B1u    1.393905  
       7B2u    1.393905     7B3u    1.410045    13Ag     1.414485  
       5B3g    1.414485     5B2g    1.417355     5B1g    1.417355  
      14Ag     1.418692     8B3u    1.523414     8B1u    1.524445  
       8B2u    1.524445     2Au     1.528042     9B3u    1.528042  
       9B2u    1.534440     9B1u    1.534440    15Ag     1.957427  
      10B3u    3.236596    10B1u    3.238674    10B2u    3.238674  
      11B3u    3.244837     3Au     3.244837    11B2u    3.254854  
      11B1u    3.254854    16Ag     3.270047     6B2g    3.272121  
       6B1g    3.272121    17Ag     3.278129     6B3g    3.278129  
       7B1g    3.287609     7B2g    3.287609    18Ag     3.300168  
       7B3g    3.300168    19Ag     3.365150     8B2g    3.370659  
       8B1g    3.370659    20Ag     3.387449     8B3g    3.387449  
      12B3u    3.396089    12B1u    3.397397    12B2u    3.397397  
      13B3u    3.401330     4Au     3.401330    13B2u    3.407912  
      13B1u    3.407912    14B3u    3.417186     5Au     3.417186  
      14B2u    3.429209    14B1u    3.429209    15B1u    4.426128  
      15B2u    4.426128    15B3u    4.426655    16B3u    6.568264  
      16B1u    6.571703    16B2u    6.571703    17B3u    6.582084  
       6Au     6.582084    17B2u    6.599579    17B1u    6.599579  
      21Ag     6.722224    22Ag     7.246444     9B2g    7.252817  
       9B1g    7.252817    23Ag     7.274018     9B3g    7.274018  
      24Ag     7.396306    10B2g    7.398485    10B1g    7.398485  
      25Ag     7.405084    10B3g    7.405084    11B1g    7.416305  
      11B2g    7.416305    26Ag     7.432821    11B3g    7.432821  
      18B3u    7.669465    18B1u    7.671228    18B2u    7.671228  
      19B3u    7.676532     7Au     7.676532    19B2u    7.685416  
      19B1u    7.685416     8Au     7.697951    20B3u    7.697951  
      20B2u    7.714230    20B1u    7.714230    27Ag    20.494115  
      12B2g   20.497192    12B1g   20.497192    12B3g   20.506650  
      28Ag    20.506650    21B1u   37.937188    21B2u   37.937188  
      21B3u   37.947431    29Ag    72.685881  

    Final Occupation by Irrep:
             Ag   B1g   B2g   B3g    Au   B1u   B2u   B3u 
    DOCC [     3,    0,    0,    0,    0,    2,    2,    1 ]
    SOCC [     0,    0,    0,    0,    0,    0,    0,    1 ]

  Energy converged.

  @UHF Final Energy:  -459.48975783299363

   => Energetics <=

    Nuclear Repulsion Energy =              0.0000000000000000
    One-Electron Energy =                -634.8707342905910309
    Two-Electron Energy =                 175.3809764575974270
    Total Energy =                       -459.4897578329936323


  UHF NO Occupations:
  HONO-2 :    2B2u 1.9996191
  HONO-1 :    3 Ag 1.9953556
  HONO-0 :    2B3u 1.0000000
  LUNO+0 :    4 Ag 0.0046444
  LUNO+1 :    3B2u 0.0003809
  LUNO+2 :    3B1u 0.0003809
  LUNO+3 :    3B3u 0.0000039



Properties will be evaluated at   0.000000,   0.000000,   0.000000 Bohr

Properties computed using the SCF density matrix

  Nuclear Dipole Moment: (a.u.)
     X:     0.0000      Y:     0.0000      Z:     0.0000

  Electronic Dipole Moment: (a.u.)
     X:     0.0000      Y:     0.0000      Z:     0.0000

  Dipole Moment: (a.u.)
     X:     0.0000      Y:     0.0000      Z:     0.0000     Total:     0.0000

  Dipole Moment: (Debye)
     X:     0.0000      Y:     0.0000      Z:     0.0000     Total:     0.0000


*** tstop() called on cqc05 at Fri Aug 21 06:49:52 2020
Module time:
	user time   =       8.57 seconds =       0.14 minutes
	system time =       0.27 seconds =       0.00 minutes
	total time  =          8 seconds =       0.13 minutes
Total time:
	user time   =       8.57 seconds =       0.14 minutes
	system time =       0.27 seconds =       0.00 minutes
	total time  =          8 seconds =       0.13 minutes

*** tstart() called on cqc05
*** at Fri Aug 21 06:49:52 2020


	Wfn Parameters:
	--------------------
	Wavefunction         = CCSD
	Number of irreps     = 8
	Number of MOs        = 136
	Number of active MOs = 131
	AO-Basis             = NONE
	Semicanonical        = false
	Reference            = UHF
	Print Level          = 1

	IRREP	# MOs	# FZDC	# DOCC	# SOCC	# VIRT	# FZVR
	-----	-----	------	------	------	------	------
	 Ag	   29	    2	    1	    0	    26	    0
	 B1g	   12	    0	    0	    0	    12	    0
	 B2g	   12	    0	    0	    0	    12	    0
	 B3g	   12	    0	    0	    0	    12	    0
	 Au	   8	    0	    0	    0	    8	    0
	 B1u	   21	    1	    1	    0	    19	    0
	 B2u	   21	    1	    1	    0	    19	    0
	 B3u	   21	    1	    0	    1	    19	    0
	Transforming integrals...
	IWL integrals will be deleted.
	(OO|OO)...
	Presorting SO-basis two-electron integrals.
	Sorting File: SO Ints (nn|nn) nbuckets = 1
	Transforming the one-electron integrals and constructing Fock matrices
	Starting AA/AB first half-transformation.
	Sorting AA/AB half-transformed integrals.
	Starting BB first half-transformation.
	Sorting BB half-transformed integrals.
	First half integral transformation complete.
	Starting AA second half-transformation.
	Starting AB second half-transformation.
	Starting BB second half-transformation.
	Two-electron integral transformation complete.
	(OO|OV)...
	Starting AA second half-transformation.
	Starting AB second half-transformation.
	Starting BB second half-transformation.
	Two-electron integral transformation complete.
	(OO|VV)...
	Starting AA second half-transformation.
	Starting AB second half-transformation.
	Starting BB second half-transformation.
	Two-electron integral transformation complete.
	(OV|OO)...
	Starting AA/AB first half-transformation.
	Sorting AA/AB half-transformed integrals.
	Starting BB first half-transformation.
	Sorting BB half-transformed integrals.
	First half integral transformation complete.
	Starting AA second half-transformation.
	Starting AB second half-transformation.
	Starting BB second half-transformation.
	Two-electron integral transformation complete.
	(OV|OV)...
	Starting AA second half-transformation.
	Starting AB second half-transformation.
	Starting BB second half-transformation.
	Two-electron integral transformation complete.
	(OV|VV)...
	Starting AA second half-transformation.
	Starting AB second half-transformation.
	Starting BB second half-transformation.
	Two-electron integral transformation complete.
	(VV|OO)...
	Starting AA/AB first half-transformation.
	Sorting AA/AB half-transformed integrals.
	Starting BB first half-transformation.
	Sorting BB half-transformed integrals.
	First half integral transformation complete.
	Starting AA second half-transformation.
	Starting AB second half-transformation.
	Starting BB second half-transformation.
	Two-electron integral transformation complete.
	(VV|OV)...
	Starting AA second half-transformation.
	Starting AB second half-transformation.
	Starting BB second half-transformation.
	Two-electron integral transformation complete.
	(VV|VV)...
	Starting AA second half-transformation.
	Starting AB second half-transformation.
	Starting BB second half-transformation.
	Two-electron integral transformation complete.
	Frozen core energy     =   -444.74722274286785

	Size of irrep 0 of <AB|CD> integrals:      1.132 (MW) /      9.057 (MB)
	Size of irrep 1 of <AB|CD> integrals:      0.939 (MW) /      7.512 (MB)
	Size of irrep 2 of <AB|CD> integrals:      0.939 (MW) /      7.512 (MB)
	Size of irrep 3 of <AB|CD> integrals:      0.939 (MW) /      7.512 (MB)
	Size of irrep 4 of <AB|CD> integrals:      0.796 (MW) /      6.365 (MB)
	Size of irrep 5 of <AB|CD> integrals:      1.094 (MW) /      8.753 (MB)
	Size of irrep 6 of <AB|CD> integrals:      1.094 (MW) /      8.753 (MB)
	Size of irrep 7 of <AB|CD> integrals:      1.094 (MW) /      8.753 (MB)
	Total:                                     8.027 (MW) /     64.216 (MB)

	Size of irrep 0 of <ab|cd> integrals:      1.173 (MW) /      9.383 (MB)
	Size of irrep 1 of <ab|cd> integrals:      0.976 (MW) /      7.809 (MB)
	Size of irrep 2 of <ab|cd> integrals:      0.976 (MW) /      7.809 (MB)
	Size of irrep 3 of <ab|cd> integrals:      0.955 (MW) /      7.636 (MB)
	Size of irrep 4 of <ab|cd> integrals:      0.817 (MW) /      6.538 (MB)
	Size of irrep 5 of <ab|cd> integrals:      1.119 (MW) /      8.955 (MB)
	Size of irrep 6 of <ab|cd> integrals:      1.119 (MW) /      8.955 (MB)
	Size of irrep 7 of <ab|cd> integrals:      1.149 (MW) /      9.193 (MB)
	Total:                                     8.285 (MW) /     66.279 (MB)

	Size of irrep 0 of <Ab|Cd> integrals:      5.171 (MW) /     41.369 (MB)
	Size of irrep 1 of <Ab|Cd> integrals:      3.830 (MW) /     30.639 (MB)
	Size of irrep 2 of <Ab|Cd> integrals:      3.830 (MW) /     30.639 (MB)
	Size of irrep 3 of <Ab|Cd> integrals:      3.787 (MW) /     30.295 (MB)
	Size of irrep 4 of <Ab|Cd> integrals:      3.226 (MW) /     25.805 (MB)
	Size of irrep 5 of <Ab|Cd> integrals:      4.427 (MW) /     35.415 (MB)
	Size of irrep 6 of <Ab|Cd> integrals:      4.427 (MW) /     35.415 (MB)
	Size of irrep 7 of <Ab|Cd> integrals:      4.486 (MW) /     35.887 (MB)
	Total:                                    33.183 (MW) /    265.463 (MB)

	Size of irrep 0 of <IA|BC> integrals:      0.187 (MW) /      1.497 (MB)
	Size of irrep 1 of <IA|BC> integrals:      0.112 (MW) /      0.899 (MB)
	Size of irrep 2 of <IA|BC> integrals:      0.112 (MW) /      0.899 (MB)
	Size of irrep 3 of <IA|BC> integrals:      0.112 (MW) /      0.899 (MB)
	Size of irrep 4 of <IA|BC> integrals:      0.078 (MW) /      0.628 (MB)
	Size of irrep 5 of <IA|BC> integrals:      0.144 (MW) /      1.155 (MB)
	Size of irrep 6 of <IA|BC> integrals:      0.144 (MW) /      1.155 (MB)
	Size of irrep 7 of <IA|BC> integrals:      0.144 (MW) /      1.155 (MB)
	Total:                                     1.036 (MW) /      8.287 (MB)

	Size of irrep 0 of <ia|bc> integrals:      0.147 (MW) /      1.175 (MB)
	Size of irrep 1 of <ia|bc> integrals:      0.079 (MW) /      0.632 (MB)
	Size of irrep 2 of <ia|bc> integrals:      0.079 (MW) /      0.632 (MB)
	Size of irrep 3 of <ia|bc> integrals:      0.098 (MW) /      0.782 (MB)
	Size of irrep 4 of <ia|bc> integrals:      0.058 (MW) /      0.463 (MB)
	Size of irrep 5 of <ia|bc> integrals:      0.121 (MW) /      0.965 (MB)
	Size of irrep 6 of <ia|bc> integrals:      0.121 (MW) /      0.965 (MB)
	Size of irrep 7 of <ia|bc> integrals:      0.094 (MW) /      0.755 (MB)
	Total:                                     0.796 (MW) /      6.368 (MB)

	Size of irrep 0 of <Ia|Bc> integrals:      0.191 (MW) /      1.528 (MB)
	Size of irrep 1 of <Ia|Bc> integrals:      0.115 (MW) /      0.924 (MB)
	Size of irrep 2 of <Ia|Bc> integrals:      0.115 (MW) /      0.924 (MB)
	Size of irrep 3 of <Ia|Bc> integrals:      0.113 (MW) /      0.903 (MB)
	Size of irrep 4 of <Ia|Bc> integrals:      0.079 (MW) /      0.632 (MB)
	Size of irrep 5 of <Ia|Bc> integrals:      0.145 (MW) /      1.161 (MB)
	Size of irrep 6 of <Ia|Bc> integrals:      0.145 (MW) /      1.161 (MB)
	Size of irrep 7 of <Ia|Bc> integrals:      0.148 (MW) /      1.186 (MB)
	Total:                                     1.052 (MW) /      8.420 (MB)

	Size of irrep 0 of <iA|bC> integrals:      0.146 (MW) /      1.164 (MB)
	Size of irrep 1 of <iA|bC> integrals:      0.076 (MW) /      0.611 (MB)
	Size of irrep 2 of <iA|bC> integrals:      0.076 (MW) /      0.611 (MB)
	Size of irrep 3 of <iA|bC> integrals:      0.097 (MW) /      0.778 (MB)
	Size of irrep 4 of <iA|bC> integrals:      0.057 (MW) /      0.460 (MB)
	Size of irrep 5 of <iA|bC> integrals:      0.120 (MW) /      0.959 (MB)
	Size of irrep 6 of <iA|bC> integrals:      0.120 (MW) /      0.959 (MB)
	Size of irrep 7 of <iA|bC> integrals:      0.091 (MW) /      0.729 (MB)
	Total:                                     0.784 (MW) /      6.271 (MB)

	Size of irrep 0 of tIjAb amplitudes:       0.007 (MW) /      0.055 (MB)
	Size of irrep 1 of tIjAb amplitudes:       0.002 (MW) /      0.016 (MB)
	Size of irrep 2 of tIjAb amplitudes:       0.002 (MW) /      0.016 (MB)
	Size of irrep 3 of tIjAb amplitudes:       0.004 (MW) /      0.031 (MB)
	Size of irrep 4 of tIjAb amplitudes:       0.000 (MW) /      0.000 (MB)
	Size of irrep 5 of tIjAb amplitudes:       0.004 (MW) /      0.034 (MB)
	Size of irrep 6 of tIjAb amplitudes:       0.004 (MW) /      0.034 (MB)
	Size of irrep 7 of tIjAb amplitudes:       0.002 (MW) /      0.017 (MB)
	Total:                                     0.025 (MW) /      0.201 (MB)

	Nuclear Rep. energy          =      0.00000000000000
	SCF energy                   =   -459.48975783299363
	One-electron energy          =    -24.78585992090585
	Two-electron (AA) energy     =      2.59582675898435
	Two-electron (BB) energy     =      1.26075613757398
	Two-electron (AB) energy     =      6.18674193422263
	Two-electron energy          =     10.04332483078095
	Reference energy             =   -459.48975783299272

*** tstop() called on cqc05 at Fri Aug 21 06:49:57 2020
Module time:
	user time   =       2.89 seconds =       0.05 minutes
	system time =       1.59 seconds =       0.03 minutes
	total time  =          5 seconds =       0.08 minutes
Total time:
	user time   =      11.46 seconds =       0.19 minutes
	system time =       1.86 seconds =       0.03 minutes
	total time  =         13 seconds =       0.22 minutes

*** tstart() called on cqc05
*** at Fri Aug 21 06:49:57 2020

            **************************
            *                        *
            *        CCENERGY        *
            *                        *
            **************************

    Nuclear Rep. energy (wfn)     =    0.000000000000000
    SCF energy          (wfn)     = -459.489757832993632
    Reference energy    (file100) = -459.489757832992723

    Input parameters:
    -----------------
    Wave function   =     CCSD
    Reference wfn   =     UHF
    Brueckner       =     No
    Memory (Mbytes) =     250000.0
    Maxiter         =     50
    R_Convergence   =     1.0e-07
    E_Convergence   =     1.0e-06
    Restart         =     Yes
    DIIS            =     Yes
    AO Basis        =     NONE
    ABCD            =     NEW
    Cache Level     =     2
    Cache Type      =     LRU
    Print Level     =     1
    Num. of threads =     4
    # Amps to Print =     10
    Print MP2 Amps? =     No
    Analyze T2 Amps =     No
    Print Pair Ener =     No
    Local CC        =     No
    SCS-MP2         =     False
    SCSN-MP2        =     False
    SCS-CCSD        =     False

MP2 correlation energy -0.1836769696284017
                Solving CC Amplitude Equations
                ------------------------------
  Iter             Energy              RMS        T1Diag      D1Diag    New D1Diag    D2Diag
  ----     ---------------------    ---------   ----------  ----------  ----------   --------
     0        -0.183676969628403    0.000e+00    0.000000    0.000000    0.000000    0.000000
     1        -0.198344703350021    3.878e-02    0.007005    0.000000    0.000000    0.000000
     2        -0.203476750619551    1.293e-02    0.009965    0.000000    0.000000    0.000000
     3        -0.203709712585012    3.126e-03    0.010891    0.000000    0.000000    0.000000
     4        -0.203717237439424    8.228e-04    0.011097    0.000000    0.000000    0.000000
     5        -0.203709731813864    1.994e-04    0.011114    0.000000    0.000000    0.000000
     6        -0.203709191817855    6.866e-05    0.011118    0.000000    0.000000    0.000000
     7        -0.203710044356925    2.296e-05    0.011117    0.000000    0.000000    0.000000
     8        -0.203710013458361    6.709e-06    0.011116    0.000000    0.000000    0.000000
     9        -0.203709964271307    2.068e-06    0.011116    0.000000    0.000000    0.000000
    10        -0.203709966687782    5.815e-07    0.011116    0.000000    0.000000    0.000000
    11        -0.203709971457042    1.374e-07    0.011116    0.000000    0.000000    0.000000
    12        -0.203709974729190    3.633e-08    0.011116    0.000000    0.000000    0.000000
    12        -0.203709974729190    3.633e-08    0.011116    0.000000    0.000000    0.000000

    Iterations converged.


    CCSD corr. energy   =   -0.203709974729190
    PPL corr. energy    =    0.055548883017904
    OS PPL corr. energy =    0.046915352294962
    SS PPL corr. energy =    0.008633530722943
    Largest TIA Amplitudes:
              0   4         0.0060991650
              2  90         0.0041267605
              1  71         0.0041266686
              0   1        -0.0037135704
              2  93        -0.0035081892
              1  74        -0.0035081515
              3 108         0.0031731824
              0   3        -0.0029786578
              0   9        -0.0025733043
              3 109        -0.0024118796

    Largest Tia Amplitudes:
              0   5         0.0198270831
              0   2        -0.0107556137
              0  10         0.0086240261
              1  71         0.0037491432
              2  90         0.0037490439
              0   3         0.0034878591
              1  74        -0.0032439466
              2  93        -0.0032439110
              2  94        -0.0031982921
              1  75        -0.0031982905

    Largest TIJAB Amplitudes:
      2   1  51   5        -0.0362940237
      3   2  27   4         0.0291989902
      3   1  39   4         0.0291989862
      2   1  51   2        -0.0197933371
      2   1  50   5        -0.0197933371
      3   1  39   5        -0.0183288486
      3   1  51  27         0.0183288464
      3   2  51  39         0.0183288451
      3   2  27   5         0.0183288429
      3   1  39   1        -0.0169798210

    Largest Tijab Amplitudes:
      2   1  51   4        -0.0353785846
      2   1  51   1        -0.0196042559
      2   1  50   4        -0.0196042559
      2   0 108  27         0.0193636793
      1   0 108  39         0.0193636782
      2   1  39  27         0.0178627350
      2   1  54   4        -0.0154709280
      2   1  51   9        -0.0154709280
      2   1  50   1        -0.0129300152
      2   1  90  71        -0.0126779754

    Largest TIjAb Amplitudes:
      3   0   4 108        -0.0536553886
      1   0  39 108        -0.0467586271
      2   0  27 108        -0.0467586248
      2   2  27  27        -0.0407571182
      1   1  39  39        -0.0407571182
      1   1   5   4        -0.0388347335
      1   1  51  51        -0.0388347298
      2   2  51  51        -0.0388347296
      2   2   5   4        -0.0388347260
      3   0   1 108         0.0302033099

    SCF energy       (wfn)                    = -459.489757832993632
    Reference energy (file100)                = -459.489757832992723

    Opposite-spin MP2 correlation energy      =   -0.144589255010847
    Same-spin MP2 correlation energy          =   -0.039087714617528
    MP2 correlation energy                    =   -0.183676969628402
      * MP2 total energy                      = -459.673434802621102

    Opposite-spin CCSD correlation energy     =   -0.164679922780865
    Same-spin CCSD correlation energy         =   -0.039030052942787
    CCSD correlation energy                   =   -0.203709974729190
      * CCSD total energy                     = -459.693467807721902


*** tstop() called on cqc05 at Fri Aug 21 06:50:01 2020
Module time:
	user time   =       1.93 seconds =       0.03 minutes
	system time =       1.32 seconds =       0.02 minutes
	total time  =          4 seconds =       0.07 minutes
Total time:
	user time   =      13.39 seconds =       0.22 minutes
	system time =       3.18 seconds =       0.05 minutes
	total time  =         17 seconds =       0.28 minutes

*** Psi4 exiting successfully. Buy a developer a beer!
