
    -----------------------------------------------------------------------
          Psi4: An Open-Source Ab Initio Electronic Structure Package
                               Psi4 1.2a1.dev938 

                         Git: Rev {HEAD} fc51d9a dirty


    R. M. Parrish, L. A. Burns, D. G. A. Smith, A. C. Simmonett,
    A. E. DePrince III, E. G. Hohenstein, U. Bozkaya, A. Yu. Sokolov,
    R. Di Remigio, R. M. Richard, J. F. Gonthier, A. M. James,
    H. R. McAlexander, A. Kumar, M. Saitow, X. Wang, B. P. Pritchard,
    P. Verma, H. F. Schaefer III, K. Patkowski, R. A. King, E. F. Valeev,
    F. A. Evangelista, J. M. Turney, T. D. Crawford, and C. D. Sherrill,
    J. Chem. Theory Comput. 13(7) pp 3185--3197 (2017).
    (doi: 10.1021/acs.jctc.7b00174)

    -----------------------------------------------------------------------


    Psi4 started on: Thursday, 20 August 2020 10:41PM

    Process ID: 425475
    PSIDATADIR: /home/irmler/Programs/psi4/beforeGrueneis3/stage/usr/local/psi4/share/psi4
    Memory:     500.0 MiB
    Threads:    4
    
  ==> Input File <==

--------------------------------------------------------------------------
# Any line starting with the # character is a comment line
memory 250000 mb
molecule molecule{
0 2
Cl          0.0000000000        0.0000000000        0.0000000000
}

set {
  reference uhf
  basis aug-cc-pv(q+d)z
  scf_type OUT_OF_CORE
  freeze_core true
}

energy('ccsd')
--------------------------------------------------------------------------

  Memory set to 232.831 GiB by Python driver.

*** tstart() called on cqc05
*** at Thu Aug 20 22:41:47 2020

   => Loading Basis Set <=

    Name: AUG-CC-PV(Q+D)Z
    Role: ORBITAL
    Keyword: BASIS
    atoms 1 entry CL         line  1246 file /home/irmler/Programs/psi4/beforeGrueneis3/stage/usr/local/psi4/share/psi4/basis/aug-cc-pv_qpd_z.gbs 


         ---------------------------------------------------------
                                   SCF
            by Justin Turney, Rob Parrish, Andy Simmonett
                             and Daniel Smith
                              UHF Reference
                        4 Threads, 238418 MiB Core
         ---------------------------------------------------------

  ==> Geometry <==

    Molecular point group: d2h
    Geometry (in Angstrom), charge = 0, multiplicity = 2:

       Center              X                  Y                   Z               Mass       
    ------------   -----------------  -----------------  -----------------  -----------------
          CL          0.000000000000     0.000000000000     0.000000000000    34.968852682000

  Running in d2h symmetry.

  Rotational constants: A = ************  B = ************  C = ************ [cm^-1]
  Rotational constants: A = ************  B = ************  C = ************ [MHz]
  Nuclear repulsion =    0.000000000000000

  Charge       = 0
  Multiplicity = 2
  Electrons    = 17
  Nalpha       = 9
  Nbeta        = 8

  ==> Algorithm <==

  SCF Algorithm Type is OUT_OF_CORE.
  DIIS enabled.
  MOM disabled.
  Fractional occupation disabled.
  Guess Type is GWH.
  Energy threshold   = 1.00e-08
  Density threshold  = 1.00e-08
  Integral threshold = 0.00e+00

  ==> Primary Basis <==

  Basis Set: AUG-CC-PV(Q+D)Z
    Blend: AUG-CC-PV(Q+D)Z
    Number of shells: 23
    Number of basis function: 89
    Number of Cartesian functions: 115
    Spherical Harmonics?: true
    Max angular momentum: 4

  ==> Pre-Iterations <==

   -------------------------------------------------------
    Irrep   Nso     Nmo     Nalpha   Nbeta   Ndocc  Nsocc
   -------------------------------------------------------
     Ag        23      23       0       0       0       0
     B1g        9       9       0       0       0       0
     B2g        9       9       0       0       0       0
     B3g        9       9       0       0       0       0
     Au         3       3       0       0       0       0
     B1u       12      12       0       0       0       0
     B2u       12      12       0       0       0       0
     B3u       12      12       0       0       0       0
   -------------------------------------------------------
    Total      89      89       9       8       8       1
   -------------------------------------------------------

  ==> Integral Setup <==

  ==> DiskJK: Disk-Based J/K Matrices <==

    J tasked:                  Yes
    K tasked:                  Yes
    wK tasked:                  No
    Memory (MB):            178813
    Schwarz Cutoff:          1E-12

  Minimum eigenvalue in the overlap matrix is 6.7878660216E-04.
  Using Symmetric Orthogonalization.

  SCF Guess: Generalized Wolfsberg-Helmholtz.

  ==> Iterations <==

                        Total Energy        Delta E     RMS |[F,P]|

    Occupation by irrep:
             Ag   B1g   B2g   B3g    Au   B1u   B2u   B3u 
    DOCC [     3,    0,    0,    0,    0,    1,    2,    2 ]
    SOCC [     0,    0,    0,    0,    0,    1,    0,    0 ]

   @UHF iter   1:  -424.17619344683641   -4.24176e+02   5.91627e-01 
   @UHF iter   2:  -449.21817993125092   -2.50420e+01   1.91059e-01 DIIS
   @UHF iter   3:  -458.76683463882324   -9.54865e+00   5.17901e-02 DIIS
   @UHF iter   4:  -459.48268282202258   -7.15848e-01   7.38283e-03 DIIS
   @UHF iter   5:  -459.48759022264130   -4.90740e-03   2.57308e-03 DIIS
   @UHF iter   6:  -459.48920494020689   -1.61472e-03   2.53921e-04 DIIS
   @UHF iter   7:  -459.48923872008982   -3.37799e-05   8.01112e-05 DIIS
   @UHF iter   8:  -459.48924200520560   -3.28512e-06   1.14503e-05 DIIS
   @UHF iter   9:  -459.48924213746665   -1.32261e-07   3.26204e-06 DIIS
   @UHF iter  10:  -459.48924214751975   -1.00531e-08   4.20252e-07 DIIS
   @UHF iter  11:  -459.48924214764708   -1.27329e-10   5.79572e-08 DIIS
   @UHF iter  12:  -459.48924214765009   -3.01270e-12   7.80457e-09 DIIS

  ==> Post-Iterations <==

   @Spin Contamination Metric:   1.074670963E-02
   @S^2 Expected:                7.500000000E-01
   @S^2 Observed:                7.607467096E-01
   @S   Expected:                5.000000000E-01
   @S   Observed:                5.000000000E-01

    Orbital Energies (a.u.)
    -----------------------

    Alpha Occupied:                                                       

       1Ag  -104.889346     2Ag   -10.612459     1B1u   -8.098052  
       1B3u   -8.073757     1B2u   -8.073757     3Ag    -1.136158  
       2B1u   -0.581839     2B3u   -0.502532     2B2u   -0.502532  

    Alpha Virtual:                                                        

       3B1u    0.090619     3B3u    0.097093     3B2u    0.097093  
       4Ag     0.099923     5Ag     0.239472     1B3g    0.243163  
       1B2g    0.243163     1B1g    0.255934     6Ag     0.255934  
       4B1u    0.445575     4B3u    0.470450     4B2u    0.470450  
       7Ag     0.590956     2B2g    0.600877     2B3g    0.600877  
       8Ag     0.626312     9Ag     0.636175     2B1g    0.636175  
       5B1u    0.793412     5B2u    0.795963     5B3u    0.795963  
       1Au     0.803741     6B1u    0.803741     6B2u    0.817331  
       6B3u    0.817331    10Ag     1.537079     3B2g    1.547838  
       3B3g    1.547838     3B1g    1.584809    11Ag     1.584809  
       7B1u    1.697778     7B3u    1.746674     7B2u    1.746674  
      12Ag     1.821621     4B3g    1.823873     4B2g    1.823873  
       4B1g    1.830694    13Ag     1.830694     5B3g    1.842283  
       5B2g    1.842283    14Ag     1.859055     5B1g    1.859055  
       8B1u    1.993722     8B3u    1.999262     8B2u    1.999262  
       9B1u    2.016104     2Au     2.016104     9B2u    2.045674  
       9B3u    2.045674    15Ag     2.608384    16Ag     3.680741  
       6B2g    3.691208     6B3g    3.691208     6B1g    3.726948  
      17Ag     3.726948    10B1u    4.618692    10B3u    4.625459  
      10B2u    4.625459    18Ag     4.638403     7B2g    4.642365  
       7B3g    4.642365     3Au     4.645991    11B1u    4.645991  
       7B1g    4.654343    19Ag     4.654343     8B2g    4.674617  
       8B3g    4.674617    11B3u    4.681137    11B2u    4.681137  
       8B1g    4.703719    20Ag     4.703719    12B1u    6.007722  
      12B3u    6.058517    12B2u    6.058517    21Ag    11.307907  
       9B2g   11.316524     9B3g   11.316524     9B1g   11.342885  
      22Ag    11.342885    23Ag    22.574548  

    Beta Occupied:                                                        

       1Ag  -104.878102     2Ag   -10.601082     1B2u   -8.067719  
       1B3u   -8.067719     1B1u   -8.048649     3Ag    -1.014509  
       2B2u   -0.480947     2B3u   -0.480947  

    Beta Virtual:                                                         

       2B1u   -0.040904     3B2u    0.097687     3B3u    0.097687  
       4Ag     0.104173     3B1u    0.107002     1B1g    0.255590  
       5Ag     0.255590     1B2g    0.257651     1B3g    0.257651  
       6Ag     0.258615     4B2u    0.474419     4B3u    0.474419  
       4B1u    0.498795     7Ag     0.638869     2B1g    0.638869  
       8Ag     0.642406     2B3g    0.662151     2B2g    0.662151  
       9Ag     0.672401     5B1u    0.805052     5B3u    0.806311  
       5B2u    0.806311     1Au     0.810158     6B1u    0.810158  
       6B3u    0.816596     6B2u    0.816596     3B1g    1.588134  
      10Ag     1.588134     3B3g    1.588283     3B2g    1.588283  
      11Ag     1.588563     7B2u    1.754858     7B3u    1.754858  
       7B1u    1.769908    12Ag     1.835477     4B2g    1.836869  
       4B3g    1.836869     4B1g    1.841064    13Ag     1.841064  
       5B2g    1.848126     5B3g    1.848126    14Ag     1.858170  
       5B1g    1.858170     8B1u    2.033908     8B2u    2.035261  
       8B3u    2.035261     9B1u    2.039330     2Au     2.039330  
       9B3u    2.046004     9B2u    2.046004    15Ag     2.632711  
      16Ag     3.704832     6B3g    3.710829     6B2g    3.710829  
       6B1g    3.729073    17Ag     3.729073    10B1u    4.658926  
      10B2u    4.661540    10B3u    4.661540     3Au     4.669373  
      11B1u    4.669373    18Ag     4.671226     7B3g    4.673227  
       7B2g    4.673227     7B1g    4.679243    19Ag     4.679243  
      11B2u    4.682373    11B3u    4.682373     8B2g    4.689313  
       8B3g    4.689313    20Ag     4.703492     8B1g    4.703492  
      12B1u    6.058842    12B2u    6.065213    12B3u    6.065213  
      21Ag    11.326119     9B3g   11.330801     9B2g   11.330801  
       9B1g   11.344968    22Ag    11.344968    23Ag    22.587850  

    Final Occupation by Irrep:
             Ag   B1g   B2g   B3g    Au   B1u   B2u   B3u 
    DOCC [     3,    0,    0,    0,    0,    1,    2,    2 ]
    SOCC [     0,    0,    0,    0,    0,    1,    0,    0 ]

  Energy converged.

  @UHF Final Energy:  -459.48924214765009

   => Energetics <=

    Nuclear Repulsion Energy =              0.0000000000000000
    One-Electron Energy =                -634.8683792737131171
    Two-Electron Energy =                 175.3791371260630285
    PCM Polarization Energy =               0.0000000000000000
    Total Energy =                       -459.4892421476500886

    Alert: EFP and PCM quantities not currently incorporated into SCF psivars.
  UHF NO Occupations:
  HONO-2 :    2B3u 1.9996233
  HONO-1 :    3 Ag 1.9953731
  HONO-0 :    2B1u 1.0000000
  LUNO+0 :    4 Ag 0.0046269
  LUNO+1 :    3B3u 0.0003767
  LUNO+2 :    3B2u 0.0003767
  LUNO+3 :    3B1u 0.0000035



Properties will be evaluated at   0.000000,   0.000000,   0.000000 Bohr

Properties computed using the SCF density matrix

  Nuclear Dipole Moment: (a.u.)
     X:     0.0000      Y:     0.0000      Z:     0.0000

  Electronic Dipole Moment: (a.u.)
     X:     0.0000      Y:     0.0000      Z:     0.0000

  Dipole Moment: (a.u.)
     X:     0.0000      Y:     0.0000      Z:     0.0000     Total:     0.0000

  Dipole Moment: (Debye)
     X:     0.0000      Y:     0.0000      Z:     0.0000     Total:     0.0000


*** tstop() called on cqc05 at Thu Aug 20 22:41:48 2020
Module time:
	user time   =       1.86 seconds =       0.03 minutes
	system time =       0.07 seconds =       0.00 minutes
	total time  =          1 seconds =       0.02 minutes
Total time:
	user time   =       1.86 seconds =       0.03 minutes
	system time =       0.07 seconds =       0.00 minutes
	total time  =          1 seconds =       0.02 minutes

*** tstart() called on cqc05
*** at Thu Aug 20 22:41:48 2020


	Wfn Parameters:
	--------------------
	Wavefunction         = CCSD
	Number of irreps     = 8
	Number of MOs        = 89
	Number of active MOs = 84
	AO-Basis             = NONE
	Semicanonical        = false
	Reference            = UHF
	Print Level          = 1

	IRREP	# MOs	# FZDC	# DOCC	# SOCC	# VIRT	# FZVR
	-----	-----	------	------	------	------	------
	 Ag	   23	    2	    1	    0	    20	    0
	 B1g	   9	    0	    0	    0	    9	    0
	 B2g	   9	    0	    0	    0	    9	    0
	 B3g	   9	    0	    0	    0	    9	    0
	 Au	   3	    0	    0	    0	    3	    0
	 B1u	   12	    1	    0	    1	    10	    0
	 B2u	   12	    1	    1	    0	    10	    0
	 B3u	   12	    1	    1	    0	    10	    0
	Transforming integrals...
	IWL integrals will be deleted.
	(OO|OO)...
	Presorting SO-basis two-electron integrals.
	Sorting File: SO Ints (nn|nn) nbuckets = 1
	Transforming the one-electron integrals and constructing Fock matrices
	Starting AA/AB first half-transformation.
	Sorting AA/AB half-transformed integrals.
	Starting BB first half-transformation.
	Sorting BB half-transformed integrals.
	First half integral transformation complete.
	Starting AA second half-transformation.
	Starting AB second half-transformation.
	Starting BB second half-transformation.
	Two-electron integral transformation complete.
	(OO|OV)...
	Starting AA second half-transformation.
	Starting AB second half-transformation.
	Starting BB second half-transformation.
	Two-electron integral transformation complete.
	(OO|VV)...
	Starting AA second half-transformation.
	Starting AB second half-transformation.
	Starting BB second half-transformation.
	Two-electron integral transformation complete.
	(OV|OO)...
	Starting AA/AB first half-transformation.
	Sorting AA/AB half-transformed integrals.
	Starting BB first half-transformation.
	Sorting BB half-transformed integrals.
	First half integral transformation complete.
	Starting AA second half-transformation.
	Starting AB second half-transformation.
	Starting BB second half-transformation.
	Two-electron integral transformation complete.
	(OV|OV)...
	Starting AA second half-transformation.
	Starting AB second half-transformation.
	Starting BB second half-transformation.
	Two-electron integral transformation complete.
	(OV|VV)...
	Starting AA second half-transformation.
	Starting AB second half-transformation.
	Starting BB second half-transformation.
	Two-electron integral transformation complete.
	(VV|OO)...
	Starting AA/AB first half-transformation.
	Sorting AA/AB half-transformed integrals.
	Starting BB first half-transformation.
	Sorting BB half-transformed integrals.
	First half integral transformation complete.
	Starting AA second half-transformation.
	Starting AB second half-transformation.
	Starting BB second half-transformation.
	Two-electron integral transformation complete.
	(VV|OV)...
	Starting AA second half-transformation.
	Starting AB second half-transformation.
	Starting BB second half-transformation.
	Two-electron integral transformation complete.
	(VV|VV)...
	Starting AA second half-transformation.
	Starting AB second half-transformation.
	Starting BB second half-transformation.
	Two-electron integral transformation complete.
	Frozen core energy     =   -444.74687903227340

	Size of irrep 0 of <AB|CD> integrals:      0.190 (MW) /      1.521 (MB)
	Size of irrep 1 of <AB|CD> integrals:      0.153 (MW) /      1.223 (MB)
	Size of irrep 2 of <AB|CD> integrals:      0.153 (MW) /      1.223 (MB)
	Size of irrep 3 of <AB|CD> integrals:      0.153 (MW) /      1.223 (MB)
	Size of irrep 4 of <AB|CD> integrals:      0.109 (MW) /      0.871 (MB)
	Size of irrep 5 of <AB|CD> integrals:      0.166 (MW) /      1.325 (MB)
	Size of irrep 6 of <AB|CD> integrals:      0.166 (MW) /      1.325 (MB)
	Size of irrep 7 of <AB|CD> integrals:      0.166 (MW) /      1.325 (MB)
	Total:                                     1.255 (MW) /     10.037 (MB)

	Size of irrep 0 of <ab|cd> integrals:      0.199 (MW) /      1.591 (MB)
	Size of irrep 1 of <ab|cd> integrals:      0.155 (MW) /      1.242 (MB)
	Size of irrep 2 of <ab|cd> integrals:      0.161 (MW) /      1.286 (MB)
	Size of irrep 3 of <ab|cd> integrals:      0.161 (MW) /      1.286 (MB)
	Size of irrep 4 of <ab|cd> integrals:      0.115 (MW) /      0.919 (MB)
	Size of irrep 5 of <ab|cd> integrals:      0.182 (MW) /      1.459 (MB)
	Size of irrep 6 of <ab|cd> integrals:      0.173 (MW) /      1.384 (MB)
	Size of irrep 7 of <ab|cd> integrals:      0.173 (MW) /      1.384 (MB)
	Total:                                     1.319 (MW) /     10.553 (MB)

	Size of irrep 0 of <Ab|Cd> integrals:      0.925 (MW) /      7.404 (MB)
	Size of irrep 1 of <Ab|Cd> integrals:      0.616 (MW) /      4.930 (MB)
	Size of irrep 2 of <Ab|Cd> integrals:      0.627 (MW) /      5.018 (MB)
	Size of irrep 3 of <Ab|Cd> integrals:      0.627 (MW) /      5.018 (MB)
	Size of irrep 4 of <Ab|Cd> integrals:      0.448 (MW) /      3.580 (MB)
	Size of irrep 5 of <Ab|Cd> integrals:      0.696 (MW) /      5.564 (MB)
	Size of irrep 6 of <Ab|Cd> integrals:      0.677 (MW) /      5.419 (MB)
	Size of irrep 7 of <Ab|Cd> integrals:      0.677 (MW) /      5.419 (MB)
	Total:                                     5.294 (MW) /     42.352 (MB)

	Size of irrep 0 of <IA|BC> integrals:      0.048 (MW) /      0.381 (MB)
	Size of irrep 1 of <IA|BC> integrals:      0.025 (MW) /      0.200 (MB)
	Size of irrep 2 of <IA|BC> integrals:      0.025 (MW) /      0.200 (MB)
	Size of irrep 3 of <IA|BC> integrals:      0.025 (MW) /      0.200 (MB)
	Size of irrep 4 of <IA|BC> integrals:      0.020 (MW) /      0.158 (MB)
	Size of irrep 5 of <IA|BC> integrals:      0.039 (MW) /      0.313 (MB)
	Size of irrep 6 of <IA|BC> integrals:      0.039 (MW) /      0.313 (MB)
	Size of irrep 7 of <IA|BC> integrals:      0.039 (MW) /      0.313 (MB)
	Total:                                     0.260 (MW) /      2.078 (MB)

	Size of irrep 0 of <ia|bc> integrals:      0.039 (MW) /      0.311 (MB)
	Size of irrep 1 of <ia|bc> integrals:      0.023 (MW) /      0.183 (MB)
	Size of irrep 2 of <ia|bc> integrals:      0.018 (MW) /      0.148 (MB)
	Size of irrep 3 of <ia|bc> integrals:      0.018 (MW) /      0.148 (MB)
	Size of irrep 4 of <ia|bc> integrals:      0.014 (MW) /      0.114 (MB)
	Size of irrep 5 of <ia|bc> integrals:      0.025 (MW) /      0.198 (MB)
	Size of irrep 6 of <ia|bc> integrals:      0.032 (MW) /      0.260 (MB)
	Size of irrep 7 of <ia|bc> integrals:      0.032 (MW) /      0.260 (MB)
	Total:                                     0.203 (MW) /      1.621 (MB)

	Size of irrep 0 of <Ia|Bc> integrals:      0.049 (MW) /      0.392 (MB)
	Size of irrep 1 of <Ia|Bc> integrals:      0.025 (MW) /      0.201 (MB)
	Size of irrep 2 of <Ia|Bc> integrals:      0.026 (MW) /      0.209 (MB)
	Size of irrep 3 of <Ia|Bc> integrals:      0.026 (MW) /      0.209 (MB)
	Size of irrep 4 of <Ia|Bc> integrals:      0.020 (MW) /      0.161 (MB)
	Size of irrep 5 of <Ia|Bc> integrals:      0.041 (MW) /      0.327 (MB)
	Size of irrep 6 of <Ia|Bc> integrals:      0.040 (MW) /      0.316 (MB)
	Size of irrep 7 of <Ia|Bc> integrals:      0.040 (MW) /      0.316 (MB)
	Total:                                     0.266 (MW) /      2.131 (MB)

	Size of irrep 0 of <iA|bC> integrals:      0.038 (MW) /      0.308 (MB)
	Size of irrep 1 of <iA|bC> integrals:      0.023 (MW) /      0.182 (MB)
	Size of irrep 2 of <iA|bC> integrals:      0.017 (MW) /      0.139 (MB)
	Size of irrep 3 of <iA|bC> integrals:      0.017 (MW) /      0.139 (MB)
	Size of irrep 4 of <iA|bC> integrals:      0.014 (MW) /      0.112 (MB)
	Size of irrep 5 of <iA|bC> integrals:      0.023 (MW) /      0.187 (MB)
	Size of irrep 6 of <iA|bC> integrals:      0.032 (MW) /      0.257 (MB)
	Size of irrep 7 of <iA|bC> integrals:      0.032 (MW) /      0.257 (MB)
	Total:                                     0.198 (MW) /      1.582 (MB)

	Size of irrep 0 of tIjAb amplitudes:       0.003 (MW) /      0.023 (MB)
	Size of irrep 1 of tIjAb amplitudes:       0.002 (MW) /      0.013 (MB)
	Size of irrep 2 of tIjAb amplitudes:       0.001 (MW) /      0.006 (MB)
	Size of irrep 3 of tIjAb amplitudes:       0.001 (MW) /      0.006 (MB)
	Size of irrep 4 of tIjAb amplitudes:       0.000 (MW) /      0.000 (MB)
	Size of irrep 5 of tIjAb amplitudes:       0.001 (MW) /      0.007 (MB)
	Size of irrep 6 of tIjAb amplitudes:       0.002 (MW) /      0.013 (MB)
	Size of irrep 7 of tIjAb amplitudes:       0.002 (MW) /      0.013 (MB)
	Total:                                     0.010 (MW) /      0.081 (MB)

	Nuclear Rep. energy          =      0.00000000000000
	SCF energy                   =   -459.48924214765009
	One-electron energy          =    -24.78526194276929
	Two-electron (AA) energy     =      2.59572216640653
	Two-electron (BB) energy     =      1.26069695117915
	Two-electron (AB) energy     =      6.18647970980681
	Two-electron energy          =     10.04289882739248
	Reference energy             =   -459.48924214765020

*** tstop() called on cqc05 at Thu Aug 20 22:41:50 2020
Module time:
	user time   =       0.67 seconds =       0.01 minutes
	system time =       0.36 seconds =       0.01 minutes
	total time  =          2 seconds =       0.03 minutes
Total time:
	user time   =       2.53 seconds =       0.04 minutes
	system time =       0.43 seconds =       0.01 minutes
	total time  =          3 seconds =       0.05 minutes

*** tstart() called on cqc05
*** at Thu Aug 20 22:41:50 2020

            **************************
            *                        *
            *        CCENERGY        *
            *                        *
            **************************

    Nuclear Rep. energy (wfn)     =    0.000000000000000
    SCF energy          (wfn)     = -459.489242147650089
    Reference energy    (file100) = -459.489242147650202

    Input parameters:
    -----------------
    Wave function   =     CCSD
    Reference wfn   =     UHF
    Brueckner       =     No
    Memory (Mbytes) =     250000.0
    Maxiter         =     50
    R_Convergence   =     1.0e-07
    E_Convergence   =     1.0e-06
    Restart         =     Yes
    DIIS            =     Yes
    AO Basis        =     NONE
    ABCD            =     NEW
    Cache Level     =     2
    Cache Type      =     LRU
    Print Level     =     1
    Num. of threads =     4
    # Amps to Print =     10
    Print MP2 Amps? =     No
    Analyze T2 Amps =     No
    Print Pair Ener =     No
    Local CC        =     No
    SCS-MP2         =     False
    SCSN-MP2        =     False
    SCS-CCSD        =     False

MP2 correlation energy -0.1770352736515484
                Solving CC Amplitude Equations
                ------------------------------
  Iter             Energy              RMS        T1Diag      D1Diag    New D1Diag    D2Diag
  ----     ---------------------    ---------   ----------  ----------  ----------   --------
     0        -0.177035273651549    0.000e+00    0.000000    0.000000    0.000000    0.000000
     1        -0.193729757998551    3.945e-02    0.006679    0.000000    0.000000    0.000000
     2        -0.198949319232880    1.302e-02    0.009740    0.000000    0.000000    0.000000
     3        -0.199195376653315    3.079e-03    0.010663    0.000000    0.000000    0.000000
     4        -0.199197460082463    7.514e-04    0.010847    0.000000    0.000000    0.000000
     5        -0.199189730172612    1.963e-04    0.010865    0.000000    0.000000    0.000000
     6        -0.199189861849776    6.599e-05    0.010868    0.000000    0.000000    0.000000
     7        -0.199190645440963    2.184e-05    0.010866    0.000000    0.000000    0.000000
     8        -0.199190546831177    6.539e-06    0.010866    0.000000    0.000000    0.000000
     9        -0.199190516920677    1.793e-06    0.010866    0.000000    0.000000    0.000000
    10        -0.199190520063322    4.661e-07    0.010865    0.000000    0.000000    0.000000
    11        -0.199190522290006    1.156e-07    0.010865    0.000000    0.000000    0.000000
    12        -0.199190524061790    3.019e-08    0.010865    0.000000    0.000000    0.000000
    12        -0.199190524061790    3.019e-08    0.010865    0.000000    0.000000    0.000000

    Iterations converged.


    CCSD corr. energy   =   -0.199190524061790
    PPL corr. energy    =    0.052643636241220
    OS PPL corr. energy =    0.044187710042662
    SS PPL corr. energy =    0.008455926198558
    Largest TIA Amplitudes:
              0   3        -0.0059791576
              0   1        -0.0038978544
              3  71         0.0037665512
              2  61         0.0037665299
              1  50        -0.0036616999
              3  74        -0.0029127950
              2  64        -0.0029127878
              0   4        -0.0026486695
              1  51         0.0023964605
              0   6        -0.0021495716

    Largest Tia Amplitudes:
              0   5         0.0200694409
              0   2        -0.0117929284
              0   7         0.0073738880
              1  62         0.0032919604
              2  72         0.0032919352
              1  63         0.0029639816
              2  73         0.0029639809
              2  76        -0.0028317076
              1  66        -0.0028317072
              1  65        -0.0028311949

    Largest TIJAB Amplitudes:
      3   2  21   5         0.0359092400
      3   1  30   3         0.0286381554
      2   1  39   3         0.0286381537
      3   2  20   5         0.0213264359
      3   2  21   2         0.0213264359
      2   1  39   1         0.0181196691
      3   1  30   1         0.0181196680
      2   1  39   5         0.0181064801
      2   1  30  21        -0.0181064795
      3   1  39  21        -0.0181064793

    Largest Tijab Amplitudes:
      2   1  21   3         0.0349388308
      2   1  20   3         0.0210420531
      2   1  21   1         0.0210420531
      2   0  50  30         0.0192959701
      1   0  50  39         0.0192959700
      2   1  39  30         0.0178516587
      2   1  20   1         0.0153748398
      2   1  72  62        -0.0140541362
      2   1  21   6         0.0136082711
      2   1  22   3         0.0136082710

    Largest TIjAb Amplitudes:
      1   0   3  50         0.0531290047
      2   0  39  50        -0.0467279121
      3   0  30  50        -0.0467279116
      2   1  39  39        -0.0407641645
      3   2  30  30        -0.0407641644
      2   1   5   3        -0.0387704682
      2   1  21  21        -0.0387704647
      3   2  21  21        -0.0387704647
      3   2   5   3        -0.0387704610
      1   0   1  50         0.0332219935

    SCF energy       (wfn)                    = -459.489242147650089
    Reference energy (file100)                = -459.489242147650202

    Opposite-spin MP2 correlation energy      =   -0.138498263695820
    Same-spin MP2 correlation energy          =   -0.038537009955720
    MP2 correlation energy                    =   -0.177035273651548
      * MP2 total energy                      = -459.666277421301743

    Opposite-spin CCSD correlation energy     =   -0.160601220973817
    Same-spin CCSD correlation energy         =   -0.038589303829596
    CCSD correlation energy                   =   -0.199190524061790
      * CCSD total energy                     = -459.688432671712008


*** tstop() called on cqc05 at Thu Aug 20 22:41:52 2020
Module time:
	user time   =       0.69 seconds =       0.01 minutes
	system time =       0.47 seconds =       0.01 minutes
	total time  =          2 seconds =       0.03 minutes
Total time:
	user time   =       3.22 seconds =       0.05 minutes
	system time =       0.90 seconds =       0.02 minutes
	total time  =          5 seconds =       0.08 minutes

*** Psi4 exiting successfully. Buy a developer a beer!
