
    -----------------------------------------------------------------------
          Psi4: An Open-Source Ab Initio Electronic Structure Package
                               Psi4 1.2a1.dev938 

                         Git: Rev {HEAD} fc51d9a dirty


    R. M. Parrish, L. A. Burns, D. G. A. Smith, A. C. Simmonett,
    A. E. DePrince III, E. G. Hohenstein, U. Bozkaya, A. Yu. Sokolov,
    R. Di Remigio, R. M. Richard, J. F. Gonthier, A. M. James,
    H. R. McAlexander, A. Kumar, M. Saitow, X. Wang, B. P. Pritchard,
    P. Verma, H. F. Schaefer III, K. Patkowski, R. A. King, E. F. Valeev,
    F. A. Evangelista, J. M. Turney, T. D. Crawford, and C. D. Sherrill,
    J. Chem. Theory Comput. 13(7) pp 3185--3197 (2017).
    (doi: 10.1021/acs.jctc.7b00174)

    -----------------------------------------------------------------------


    Psi4 started on: Thursday, 20 August 2020 07:56PM

    Process ID: 422959
    PSIDATADIR: /home/irmler/Programs/psi4/beforeGrueneis3/stage/usr/local/psi4/share/psi4
    Memory:     500.0 MiB
    Threads:    4
    
  ==> Input File <==

--------------------------------------------------------------------------
# Any line starting with the # character is a comment line
memory 250000 mb
molecule molecule{
1 2
Si          0.0000000000        0.0000000000        0.0000000000
}

set {
  reference uhf
  basis aug-cc-pv(d+d)z
  scf_type OUT_OF_CORE
  freeze_core true
}

energy('ccsd')
--------------------------------------------------------------------------

  Memory set to 232.831 GiB by Python driver.

*** tstart() called on cqc05
*** at Thu Aug 20 19:56:07 2020

   => Loading Basis Set <=

    Name: AUG-CC-PV(D+D)Z
    Role: ORBITAL
    Keyword: BASIS
    atoms 1 entry SI         line   588 file /home/irmler/Programs/psi4/beforeGrueneis3/stage/usr/local/psi4/share/psi4/basis/aug-cc-pv_dpd_z.gbs 


         ---------------------------------------------------------
                                   SCF
            by Justin Turney, Rob Parrish, Andy Simmonett
                             and Daniel Smith
                              UHF Reference
                        4 Threads, 238418 MiB Core
         ---------------------------------------------------------

  ==> Geometry <==

    Molecular point group: d2h
    Geometry (in Angstrom), charge = 1, multiplicity = 2:

       Center              X                  Y                   Z               Mass       
    ------------   -----------------  -----------------  -----------------  -----------------
          SI          0.000000000000     0.000000000000     0.000000000000    27.976926532460

  Running in d2h symmetry.

  Rotational constants: A = ************  B = ************  C = ************ [cm^-1]
  Rotational constants: A = ************  B = ************  C = ************ [MHz]
  Nuclear repulsion =    0.000000000000000

  Charge       = 1
  Multiplicity = 2
  Electrons    = 13
  Nalpha       = 7
  Nbeta        = 6

  ==> Algorithm <==

  SCF Algorithm Type is OUT_OF_CORE.
  DIIS enabled.
  MOM disabled.
  Fractional occupation disabled.
  Guess Type is GWH.
  Energy threshold   = 1.00e-08
  Density threshold  = 1.00e-08
  Integral threshold = 0.00e+00

  ==> Primary Basis <==

  Basis Set: AUG-CC-PV(D+D)Z
    Blend: AUG-CC-PV(D+D)Z
    Number of shells: 12
    Number of basis function: 32
    Number of Cartesian functions: 35
    Spherical Harmonics?: true
    Max angular momentum: 2

  ==> Pre-Iterations <==

   -------------------------------------------------------
    Irrep   Nso     Nmo     Nalpha   Nbeta   Ndocc  Nsocc
   -------------------------------------------------------
     Ag        11      11       0       0       0       0
     B1g        3       3       0       0       0       0
     B2g        3       3       0       0       0       0
     B3g        3       3       0       0       0       0
     Au         0       0       0       0       0       0
     B1u        4       4       0       0       0       0
     B2u        4       4       0       0       0       0
     B3u        4       4       0       0       0       0
   -------------------------------------------------------
    Total      32      32       7       6       6       1
   -------------------------------------------------------

  ==> Integral Setup <==

  ==> DiskJK: Disk-Based J/K Matrices <==

    J tasked:                  Yes
    K tasked:                  Yes
    wK tasked:                  No
    Memory (MB):            178813
    Schwarz Cutoff:          1E-12

  Minimum eigenvalue in the overlap matrix is 4.1731279443E-02.
  Using Symmetric Orthogonalization.

  SCF Guess: Generalized Wolfsberg-Helmholtz.

  ==> Iterations <==

                        Total Energy        Delta E     RMS |[F,P]|

    Occupation by irrep:
             Ag   B1g   B2g   B3g    Au   B1u   B2u   B3u 
    DOCC [     3,    0,    0,    0,    0,    1,    1,    1 ]
    SOCC [     0,    0,    0,    0,    0,    1,    0,    0 ]

   @UHF iter   1:  -286.08348751795387   -2.86083e+02   1.31148e-01 
   @UHF iter   2:  -288.47139045748452   -2.38790e+00   2.80224e-02 DIIS
   @UHF iter   3:  -288.56049961510462   -8.91092e-02   6.37463e-03 DIIS
   @UHF iter   4:  -288.56894873338661   -8.44912e-03   2.23615e-03 DIIS
   @UHF iter   5:  -288.56997110645375   -1.02237e-03   3.92397e-04 DIIS
   @UHF iter   6:  -288.56999849189742   -2.73854e-05   4.06381e-05 DIIS
   @UHF iter   7:  -288.56999875063434   -2.58737e-07   5.11740e-06 DIIS
   @UHF iter   8:  -288.56999875523121   -4.59687e-09   4.95274e-07 DIIS
   @UHF iter   9:  -288.56999875527708   -4.58726e-11   1.01483e-07 DIIS
   @UHF iter  10:  -288.56999875527890   -1.81899e-12   1.49225e-08 DIIS
   @UHF iter  11:  -288.56999875527902   -1.13687e-13   6.31393e-10 DIIS

  ==> Post-Iterations <==

   @Spin Contamination Metric:   1.524183588E-02
   @S^2 Expected:                7.500000000E-01
   @S^2 Observed:                7.652418359E-01
   @S   Expected:                5.000000000E-01
   @S   Observed:                5.000000000E-01

    Orbital Energies (a.u.)
    -----------------------

    Alpha Occupied:                                                       

       1Ag   -69.184118     2Ag    -6.518507     1B1u   -4.626571  
       1B3u   -4.615263     1B2u   -4.615263     3Ag    -0.885557  
       2B1u   -0.594611  

    Alpha Virtual:                                                        

       2B2u   -0.263547     2B3u   -0.263547     4Ag    -0.099610  
       3B1u   -0.066490     3B2u   -0.063045     3B3u   -0.063045  
       5Ag    -0.008783     1B2g   -0.007478     1B3g   -0.007478  
       6Ag     0.001420     1B1g    0.001420     4B1u    0.269219  
       4B2u    0.292028     4B3u    0.292028     7Ag     0.302239  
       8Ag     0.381064     2B2g    0.382996     2B3g    0.382996  
       9Ag     0.393356     2B1g    0.393356    10Ag     2.975331  
       3B1g    2.975331     3B3g    2.990586     3B2g    2.990586  
      11Ag     2.995630  

    Beta Occupied:                                                        

       1Ag   -69.178226     2Ag    -6.511394     1B3u   -4.612253  
       1B2u   -4.612253     1B1u   -4.595509     3Ag    -0.797080  

    Beta Virtual:                                                         

       2B2u   -0.251679     2B3u   -0.251679     2B1u   -0.201241  
       4Ag    -0.094676     3B2u   -0.061750     3B3u   -0.061750  
       3B1u   -0.050552     5Ag     0.003083     1B1g    0.003083  
       1B2g    0.022766     1B3g    0.022766     6Ag     0.030055  
       4B3u    0.297514     4B2u    0.297514     7Ag     0.317510  
       4B1u    0.332636     8Ag     0.395826     2B1g    0.395826  
       2B2g    0.429099     2B3g    0.429099     9Ag     0.442397  
      10Ag     2.975951     3B1g    2.975951     3B3g    2.998780  
       3B2g    2.998780    11Ag     3.006415  

    Final Occupation by Irrep:
             Ag   B1g   B2g   B3g    Au   B1u   B2u   B3u 
    DOCC [     3,    0,    0,    0,    0,    1,    1,    1 ]
    SOCC [     0,    0,    0,    0,    0,    1,    0,    0 ]

  Energy converged.

  @UHF Final Energy:  -288.56999875527902

   => Energetics <=

    Nuclear Repulsion Energy =              0.0000000000000000
    One-Electron Energy =                -395.7933927592315513
    Two-Electron Energy =                 107.2233940039525351
    Total Energy =                       -288.5699987552790162


  UHF NO Occupations:
  HONO-2 :    1B1u 1.9999992
  HONO-1 :    3 Ag 1.9923507
  HONO-0 :    2B1u 1.0000000
  LUNO+0 :    4 Ag 0.0076493
  LUNO+1 :    3B1u 0.0000008
  LUNO+2 :    5 Ag 0.0000001
  LUNO+3 :    2B3u 0.0000000



Properties will be evaluated at   0.000000,   0.000000,   0.000000 Bohr

Properties computed using the SCF density matrix

  Nuclear Dipole Moment: (a.u.)
     X:     0.0000      Y:     0.0000      Z:     0.0000

  Electronic Dipole Moment: (a.u.)
     X:     0.0000      Y:     0.0000      Z:     0.0000

  Dipole Moment: (a.u.)
     X:     0.0000      Y:     0.0000      Z:     0.0000     Total:     0.0000

  Dipole Moment: (Debye)
     X:     0.0000      Y:     0.0000      Z:     0.0000     Total:     0.0000


*** tstop() called on cqc05 at Thu Aug 20 19:56:08 2020
Module time:
	user time   =       0.28 seconds =       0.00 minutes
	system time =       0.02 seconds =       0.00 minutes
	total time  =          1 seconds =       0.02 minutes
Total time:
	user time   =       0.28 seconds =       0.00 minutes
	system time =       0.02 seconds =       0.00 minutes
	total time  =          1 seconds =       0.02 minutes

*** tstart() called on cqc05
*** at Thu Aug 20 19:56:08 2020


	Wfn Parameters:
	--------------------
	Wavefunction         = CCSD
	Number of irreps     = 8
	Number of MOs        = 32
	Number of active MOs = 27
	AO-Basis             = NONE
	Semicanonical        = false
	Reference            = UHF
	Print Level          = 1

	IRREP	# MOs	# FZDC	# DOCC	# SOCC	# VIRT	# FZVR
	-----	-----	------	------	------	------	------
	 Ag	   11	    2	    1	    0	    8	    0
	 B1g	   3	    0	    0	    0	    3	    0
	 B2g	   3	    0	    0	    0	    3	    0
	 B3g	   3	    0	    0	    0	    3	    0
	 Au	   0	    0	    0	    0	    0	    0
	 B1u	   4	    1	    0	    1	    2	    0
	 B2u	   4	    1	    0	    0	    3	    0
	 B3u	   4	    1	    0	    0	    3	    0
	Transforming integrals...
	IWL integrals will be deleted.
	(OO|OO)...
	Presorting SO-basis two-electron integrals.
	Sorting File: SO Ints (nn|nn) nbuckets = 1
	Transforming the one-electron integrals and constructing Fock matrices
	Starting AA/AB first half-transformation.
	Sorting AA/AB half-transformed integrals.
	Starting BB first half-transformation.
	Sorting BB half-transformed integrals.
	First half integral transformation complete.
	Starting AA second half-transformation.
	Starting AB second half-transformation.
	Starting BB second half-transformation.
	Two-electron integral transformation complete.
	(OO|OV)...
	Starting AA second half-transformation.
	Starting AB second half-transformation.
	Starting BB second half-transformation.
	Two-electron integral transformation complete.
	(OO|VV)...
	Starting AA second half-transformation.
	Starting AB second half-transformation.
	Starting BB second half-transformation.
	Two-electron integral transformation complete.
	(OV|OO)...
	Starting AA/AB first half-transformation.
	Sorting AA/AB half-transformed integrals.
	Starting BB first half-transformation.
	Sorting BB half-transformed integrals.
	First half integral transformation complete.
	Starting AA second half-transformation.
	Starting AB second half-transformation.
	Starting BB second half-transformation.
	Two-electron integral transformation complete.
	(OV|OV)...
	Starting AA second half-transformation.
	Starting AB second half-transformation.
	Starting BB second half-transformation.
	Two-electron integral transformation complete.
	(OV|VV)...
	Starting AA second half-transformation.
	Starting AB second half-transformation.
	Starting BB second half-transformation.
	Two-electron integral transformation complete.
	(VV|OO)...
	Starting AA/AB first half-transformation.
	Sorting AA/AB half-transformed integrals.
	Starting BB first half-transformation.
	Sorting BB half-transformed integrals.
	First half integral transformation complete.
	Starting AA second half-transformation.
	Starting AB second half-transformation.
	Starting BB second half-transformation.
	Two-electron integral transformation complete.
	(VV|OV)...
	Starting AA second half-transformation.
	Starting AB second half-transformation.
	Starting BB second half-transformation.
	Two-electron integral transformation complete.
	(VV|VV)...
	Starting AA second half-transformation.
	Starting AB second half-transformation.
	Starting BB second half-transformation.
	Two-electron integral transformation complete.
	Frozen core energy     =   -285.17124429869887

	Size of irrep 0 of <AB|CD> integrals:      0.002 (MW) /      0.015 (MB)
	Size of irrep 1 of <AB|CD> integrals:      0.002 (MW) /      0.014 (MB)
	Size of irrep 2 of <AB|CD> integrals:      0.002 (MW) /      0.012 (MB)
	Size of irrep 3 of <AB|CD> integrals:      0.002 (MW) /      0.012 (MB)
	Size of irrep 4 of <AB|CD> integrals:      0.001 (MW) /      0.005 (MB)
	Size of irrep 5 of <AB|CD> integrals:      0.001 (MW) /      0.009 (MB)
	Size of irrep 6 of <AB|CD> integrals:      0.002 (MW) /      0.012 (MB)
	Size of irrep 7 of <AB|CD> integrals:      0.002 (MW) /      0.012 (MB)
	Total:                                     0.012 (MW) /      0.092 (MB)

	Size of irrep 0 of <ab|cd> integrals:      0.002 (MW) /      0.017 (MB)
	Size of irrep 1 of <ab|cd> integrals:      0.002 (MW) /      0.014 (MB)
	Size of irrep 2 of <ab|cd> integrals:      0.002 (MW) /      0.014 (MB)
	Size of irrep 3 of <ab|cd> integrals:      0.002 (MW) /      0.014 (MB)
	Size of irrep 4 of <ab|cd> integrals:      0.001 (MW) /      0.006 (MB)
	Size of irrep 5 of <ab|cd> integrals:      0.002 (MW) /      0.014 (MB)
	Size of irrep 6 of <ab|cd> integrals:      0.002 (MW) /      0.014 (MB)
	Size of irrep 7 of <ab|cd> integrals:      0.002 (MW) /      0.014 (MB)
	Total:                                     0.013 (MW) /      0.107 (MB)

	Size of irrep 0 of <Ab|Cd> integrals:      0.013 (MW) /      0.106 (MB)
	Size of irrep 1 of <Ab|Cd> integrals:      0.007 (MW) /      0.056 (MB)
	Size of irrep 2 of <Ab|Cd> integrals:      0.007 (MW) /      0.052 (MB)
	Size of irrep 3 of <Ab|Cd> integrals:      0.007 (MW) /      0.052 (MB)
	Size of irrep 4 of <Ab|Cd> integrals:      0.003 (MW) /      0.021 (MB)
	Size of irrep 5 of <Ab|Cd> integrals:      0.006 (MW) /      0.046 (MB)
	Size of irrep 6 of <Ab|Cd> integrals:      0.007 (MW) /      0.052 (MB)
	Size of irrep 7 of <Ab|Cd> integrals:      0.007 (MW) /      0.052 (MB)
	Total:                                     0.055 (MW) /      0.439 (MB)

	Size of irrep 0 of <IA|BC> integrals:      0.001 (MW) /      0.009 (MB)
	Size of irrep 1 of <IA|BC> integrals:      0.000 (MW) /      0.002 (MB)
	Size of irrep 2 of <IA|BC> integrals:      0.000 (MW) /      0.004 (MB)
	Size of irrep 3 of <IA|BC> integrals:      0.000 (MW) /      0.004 (MB)
	Size of irrep 4 of <IA|BC> integrals:      0.000 (MW) /      0.001 (MB)
	Size of irrep 5 of <IA|BC> integrals:      0.001 (MW) /      0.005 (MB)
	Size of irrep 6 of <IA|BC> integrals:      0.000 (MW) /      0.004 (MB)
	Size of irrep 7 of <IA|BC> integrals:      0.000 (MW) /      0.004 (MB)
	Total:                                     0.004 (MW) /      0.033 (MB)

	Size of irrep 0 of <ia|bc> integrals:      0.001 (MW) /      0.008 (MB)
	Size of irrep 1 of <ia|bc> integrals:      0.000 (MW) /      0.002 (MB)
	Size of irrep 2 of <ia|bc> integrals:      0.000 (MW) /      0.002 (MB)
	Size of irrep 3 of <ia|bc> integrals:      0.000 (MW) /      0.002 (MB)
	Size of irrep 4 of <ia|bc> integrals:      0.000 (MW) /      0.000 (MB)
	Size of irrep 5 of <ia|bc> integrals:      0.000 (MW) /      0.002 (MB)
	Size of irrep 6 of <ia|bc> integrals:      0.000 (MW) /      0.002 (MB)
	Size of irrep 7 of <ia|bc> integrals:      0.000 (MW) /      0.002 (MB)
	Total:                                     0.002 (MW) /      0.020 (MB)

	Size of irrep 0 of <Ia|Bc> integrals:      0.001 (MW) /      0.010 (MB)
	Size of irrep 1 of <Ia|Bc> integrals:      0.000 (MW) /      0.002 (MB)
	Size of irrep 2 of <Ia|Bc> integrals:      0.000 (MW) /      0.004 (MB)
	Size of irrep 3 of <Ia|Bc> integrals:      0.000 (MW) /      0.004 (MB)
	Size of irrep 4 of <Ia|Bc> integrals:      0.000 (MW) /      0.001 (MB)
	Size of irrep 5 of <Ia|Bc> integrals:      0.001 (MW) /      0.007 (MB)
	Size of irrep 6 of <Ia|Bc> integrals:      0.000 (MW) /      0.004 (MB)
	Size of irrep 7 of <Ia|Bc> integrals:      0.000 (MW) /      0.004 (MB)
	Total:                                     0.004 (MW) /      0.036 (MB)

	Size of irrep 0 of <iA|bC> integrals:      0.001 (MW) /      0.007 (MB)
	Size of irrep 1 of <iA|bC> integrals:      0.000 (MW) /      0.002 (MB)
	Size of irrep 2 of <iA|bC> integrals:      0.000 (MW) /      0.002 (MB)
	Size of irrep 3 of <iA|bC> integrals:      0.000 (MW) /      0.002 (MB)
	Size of irrep 4 of <iA|bC> integrals:      0.000 (MW) /      0.000 (MB)
	Size of irrep 5 of <iA|bC> integrals:      0.000 (MW) /      0.001 (MB)
	Size of irrep 6 of <iA|bC> integrals:      0.000 (MW) /      0.002 (MB)
	Size of irrep 7 of <iA|bC> integrals:      0.000 (MW) /      0.002 (MB)
	Total:                                     0.002 (MW) /      0.018 (MB)

	Size of irrep 0 of tIjAb amplitudes:       0.000 (MW) /      0.001 (MB)
	Size of irrep 1 of tIjAb amplitudes:       0.000 (MW) /      0.000 (MB)
	Size of irrep 2 of tIjAb amplitudes:       0.000 (MW) /      0.000 (MB)
	Size of irrep 3 of tIjAb amplitudes:       0.000 (MW) /      0.000 (MB)
	Size of irrep 4 of tIjAb amplitudes:       0.000 (MW) /      0.000 (MB)
	Size of irrep 5 of tIjAb amplitudes:       0.000 (MW) /      0.001 (MB)
	Size of irrep 6 of tIjAb amplitudes:       0.000 (MW) /      0.000 (MB)
	Size of irrep 7 of tIjAb amplitudes:       0.000 (MW) /      0.000 (MB)
	Total:                                     0.000 (MW) /      0.002 (MB)

	Nuclear Rep. energy          =      0.00000000000000
	SCF energy                   =   -288.56999875527902
	One-electron energy          =     -4.52026050299921
	Two-electron (AA) energy     =      0.30185838439090
	Two-electron (BB) energy     =      0.00000000000000
	Two-electron (AB) energy     =      0.81964766202807
	Two-electron energy          =      1.12150604641897
	Reference energy             =   -288.56999875527913

*** tstop() called on cqc05 at Thu Aug 20 19:56:08 2020
Module time:
	user time   =       0.04 seconds =       0.00 minutes
	system time =       0.03 seconds =       0.00 minutes
	total time  =          0 seconds =       0.00 minutes
Total time:
	user time   =       0.32 seconds =       0.01 minutes
	system time =       0.05 seconds =       0.00 minutes
	total time  =          1 seconds =       0.02 minutes

*** tstart() called on cqc05
*** at Thu Aug 20 19:56:08 2020

            **************************
            *                        *
            *        CCENERGY        *
            *                        *
            **************************

    Nuclear Rep. energy (wfn)     =    0.000000000000000
    SCF energy          (wfn)     = -288.569998755279016
    Reference energy    (file100) = -288.569998755279130

    Input parameters:
    -----------------
    Wave function   =     CCSD
    Reference wfn   =     UHF
    Brueckner       =     No
    Memory (Mbytes) =     250000.0
    Maxiter         =     50
    R_Convergence   =     1.0e-07
    E_Convergence   =     1.0e-06
    Restart         =     Yes
    DIIS            =     Yes
    AO Basis        =     NONE
    ABCD            =     NEW
    Cache Level     =     2
    Cache Type      =     LRU
    Print Level     =     1
    Num. of threads =     4
    # Amps to Print =     10
    Print MP2 Amps? =     No
    Analyze T2 Amps =     No
    Print Pair Ener =     No
    Local CC        =     No
    SCS-MP2         =     False
    SCSN-MP2        =     False
    SCS-CCSD        =     False

MP2 correlation energy -0.0355328941367538
                Solving CC Amplitude Equations
                ------------------------------
  Iter             Energy              RMS        T1Diag      D1Diag    New D1Diag    D2Diag
  ----     ---------------------    ---------   ----------  ----------  ----------   --------
     0        -0.035532894136754    0.000e+00    0.000000    0.000000    0.000000    0.000000
     1        -0.047207244466134    5.861e-02    0.008247    0.000000    0.000000    0.000000
     2        -0.054172711294922    2.554e-02    0.017072    0.000000    0.000000    0.000000
     3        -0.054381127266997    4.717e-03    0.018957    0.000000    0.000000    0.000000
     4        -0.054520812780023    8.939e-04    0.019090    0.000000    0.000000    0.000000
     5        -0.054475186236537    1.493e-04    0.019029    0.000000    0.000000    0.000000
     6        -0.054490969314604    4.721e-05    0.019045    0.000000    0.000000    0.000000
     7        -0.054486891432146    1.446e-05    0.019041    0.000000    0.000000    0.000000
     8        -0.054487279403205    1.942e-06    0.019042    0.000000    0.000000    0.000000
     9        -0.054487327498165    3.924e-07    0.019042    0.000000    0.000000    0.000000
    10        -0.054487331192617    7.248e-08    0.019042    0.000000    0.000000    0.000000
    10        -0.054487331192617    7.248e-08    0.019042    0.000000    0.000000    0.000000

    Iterations converged.


    CCSD corr. energy   =   -0.054487331192617
    PPL corr. energy    =    0.020650530510452
    OS PPL corr. energy =    0.020052405344952
    SS PPL corr. energy =    0.000598125165500
    Largest TIA Amplitudes:
              0   1        -0.0254536521
              0   4         0.0177511832
              0   0        -0.0049426303
              0   3         0.0047006577
              1  18         0.0016898422
              1  17         0.0016005122
              0   7        -0.0002347019

    Largest Tia Amplitudes:
              0   0        -0.0069718439
              0   3         0.0039478844
              0   2         0.0025554551
              0   5         0.0014538257
              0   7         0.0000240394

    Largest TIJAB Amplitudes:
      1   0  19  14        -0.0267335895
      1   0  22  11        -0.0267335895
      1   0  19  15        -0.0192703586
      1   0  22  12        -0.0192703586
      1   0  18   3        -0.0149187774
      1   0  18   0         0.0096757385
      1   0  21  15         0.0091564152
      1   0  24  12         0.0091564152
      1   0  21  14         0.0081406790
      1   0  24  11         0.0081406790

    Largest TIjAb Amplitudes:
      0   0  19  20        -0.1509001689
      0   0  22  23        -0.1509001689
      1   0   1  17         0.0779512927
      1   0  11  23         0.0736433907
      1   0  14  20         0.0736433907
      1   0   4  17        -0.0643224023
      1   0  12  23         0.0619527899
      1   0  15  20         0.0619527899
      0   0  19  22         0.0499222630
      0   0  22  25         0.0499222630

    SCF energy       (wfn)                    = -288.569998755279016
    Reference energy (file100)                = -288.569998755279130

    Opposite-spin MP2 correlation energy      =   -0.033251062552180
    Same-spin MP2 correlation energy          =   -0.002281831584574
    MP2 correlation energy                    =   -0.035532894136754
      * MP2 total energy                      = -288.605531649415866

    Opposite-spin CCSD correlation energy     =   -0.051796429615499
    Same-spin CCSD correlation energy         =   -0.002690901628384
    CCSD correlation energy                   =   -0.054487331192617
      * CCSD total energy                     = -288.624486086471734


*** tstop() called on cqc05 at Thu Aug 20 19:56:09 2020
Module time:
	user time   =       0.11 seconds =       0.00 minutes
	system time =       0.11 seconds =       0.00 minutes
	total time  =          1 seconds =       0.02 minutes
Total time:
	user time   =       0.43 seconds =       0.01 minutes
	system time =       0.16 seconds =       0.00 minutes
	total time  =          2 seconds =       0.03 minutes

*** Psi4 exiting successfully. Buy a developer a beer!
