
    -----------------------------------------------------------------------
          Psi4: An Open-Source Ab Initio Electronic Structure Package
                               Psi4 1.2a1.dev939 

                         Git: Rev {HEAD} fa1ec19 


    R. M. Parrish, L. A. Burns, D. G. A. Smith, A. C. Simmonett,
    A. E. DePrince III, E. G. Hohenstein, U. Bozkaya, A. Yu. Sokolov,
    R. Di Remigio, R. M. Richard, J. F. Gonthier, A. M. James,
    H. R. McAlexander, A. Kumar, M. Saitow, X. Wang, B. P. Pritchard,
    P. Verma, H. F. Schaefer III, K. Patkowski, R. A. King, E. F. Valeev,
    F. A. Evangelista, J. M. Turney, T. D. Crawford, and C. D. Sherrill,
    J. Chem. Theory Comput. 13(7) pp 3185--3197 (2017).
    (doi: 10.1021/acs.jctc.7b00174)

    -----------------------------------------------------------------------


    Psi4 started on: Friday, 03 May 2019 06:35AM

    Process ID:   4187
    PSIDATADIR: /home/grueneis/src/psi4/objdir/stage/usr/local/psi4/share/psi4
    Memory:     500.0 MiB
    Threads:    1
    
  ==> Input File <==

--------------------------------------------------------------------------
# Any line starting with the # character is a comment line

memory 32000 mb

molecule molecule {
-1 1
S          0.0000000000        0.0000000000        0.0408346674
H          0.0000000000        0.0000000000       -1.2988465945
}

set {
  reference rhf


  basis aug-cc-pv(5+d)z
  scf_type OUT_OF_CORE
  freeze_core true
}

energy('ccsd')
--------------------------------------------------------------------------

  Memory set to  29.802 GiB by Python driver.

*** tstart() called on cqc03
*** at Fri May  3 06:35:01 2019

   => Loading Basis Set <=

    Name: AUG-CC-PV(5+D)Z
    Role: ORBITAL
    Keyword: BASIS
    atoms 1 entry S          line   971 file /home/grueneis/src/psi4/objdir/stage/usr/local/psi4/share/psi4/basis/aug-cc-pv_5pd_z.gbs 
    atoms 2 entry H          line    56 file /home/grueneis/src/psi4/objdir/stage/usr/local/psi4/share/psi4/basis/aug-cc-pv_5pd_z.gbs 


         ---------------------------------------------------------
                                   SCF
            by Justin Turney, Rob Parrish, Andy Simmonett
                             and Daniel Smith
                              RHF Reference
                        1 Threads,  30517 MiB Core
         ---------------------------------------------------------

  ==> Geometry <==

    Molecular point group: c2v
    Full point group: C_inf_v

    Geometry (in Angstrom), charge = -1, multiplicity = 1:

       Center              X                  Y                   Z               Mass       
    ------------   -----------------  -----------------  -----------------  -----------------
           S          0.000000000000     0.000000000000     0.040939010525    31.972070999000
           H          0.000000000000     0.000000000000    -1.298742251375     1.007825032070

  Running in c2v symmetry.

  Rotational constants: A = ************  B =      9.61362  C =      9.61362 [cm^-1]
  Rotational constants: A = ************  B = 288209.04249  C = 288209.04249 [MHz]
  Nuclear repulsion =    6.320037144829456

  Charge       = -1
  Multiplicity = 1
  Electrons    = 18
  Nalpha       = 9
  Nbeta        = 9

  ==> Algorithm <==

  SCF Algorithm Type is OUT_OF_CORE.
  DIIS enabled.
  MOM disabled.
  Fractional occupation disabled.
  Guess Type is SAD.
  Energy threshold   = 1.00e-08
  Density threshold  = 1.00e-08
  Integral threshold = 0.00e+00

  ==> Primary Basis <==

  Basis Set: AUG-CC-PV(5+D)Z
    Blend: AUG-CC-PV(5+D)Z
    Number of shells: 50
    Number of basis function: 216
    Number of Cartesian functions: 297
    Spherical Harmonics?: true
    Max angular momentum: 5

  ==> Pre-Iterations <==

   -------------------------------------------------------
    Irrep   Nso     Nmo     Nalpha   Nbeta   Ndocc  Nsocc
   -------------------------------------------------------
     A1        81      81       0       0       0       0
     A2        31      31       0       0       0       0
     B1        52      52       0       0       0       0
     B2        52      52       0       0       0       0
   -------------------------------------------------------
    Total     216     216       9       9       9       0
   -------------------------------------------------------

  ==> Integral Setup <==

  ==> DiskJK: Disk-Based J/K Matrices <==

    J tasked:                  Yes
    K tasked:                  Yes
    wK tasked:                  No
    Memory (MB):             22888
    Schwarz Cutoff:          1E-12

  Minimum eigenvalue in the overlap matrix is 2.6911241480E-05.
  Using Symmetric Orthogonalization.

  SCF Guess: Superposition of Atomic Densities via on-the-fly atomic UHF.

  ==> Iterations <==

                        Total Energy        Delta E     RMS |[F,P]|

   @RHF iter   0:  -412.08678949634668   -4.12087e+02   1.00609e-02 
    Occupation by irrep:
             A1    A2    B1    B2 
    DOCC [     5,    0,    2,    2 ]

   @RHF iter   1:  -396.72314837104267    1.53636e+01   1.31157e-02 
   @RHF iter   2:  -397.61051926003557   -8.87371e-01   9.55111e-03 DIIS
   @RHF iter   3:  -398.11737217427782   -5.06853e-01   1.63617e-03 DIIS
   @RHF iter   4:  -398.14826938133126   -3.08972e-02   3.83707e-04 DIIS
   @RHF iter   5:  -398.14950149725769   -1.23212e-03   7.66672e-05 DIIS
   @RHF iter   6:  -398.14970492680726   -2.03430e-04   3.07082e-05 DIIS
   @RHF iter   7:  -398.14973939740941   -3.44706e-05   1.02794e-05 DIIS
   @RHF iter   8:  -398.14974256000835   -3.16260e-06   2.20172e-06 DIIS
   @RHF iter   9:  -398.14974269967746   -1.39669e-07   5.48618e-07 DIIS
   @RHF iter  10:  -398.14974270769159   -8.01413e-09   1.49975e-07 DIIS
   @RHF iter  11:  -398.14974270836382   -6.72230e-10   3.67904e-08 DIIS
   @RHF iter  12:  -398.14974270840219   -3.83693e-11   4.16181e-09 DIIS

  ==> Post-Iterations <==

    Orbital Energies (a.u.)
    -----------------------

    Doubly Occupied:                                                      

       1A1   -91.663413     2A1    -8.664236     3A1    -6.346082  
       1B2    -6.344599     1B1    -6.344599     4A1    -0.645154  
       5A1    -0.254792     2B2    -0.094895     2B1    -0.094895  

    Virtual:                                                              

       6A1     0.136379     7A1     0.199381     3B2     0.213579  
       3B1     0.213579     8A1     0.261685     9A1     0.323930  
       4B1     0.347032     4B2     0.347032     1A2     0.375119  
      10A1     0.375119    11A1     0.382706     5B1     0.399787  
       5B2     0.399787    12A1     0.465081    13A1     0.483228  
       6B1     0.568944     6B2     0.568944    14A1     0.597845  
       2A2     0.659854    15A1     0.659854     7B2     0.663351  
       7B1     0.663351     8B2     0.668861     8B1     0.668861  
      16A1     0.731466     3A2     0.731466    17A1     0.745889  
       9B1     0.764751     9B2     0.764751    18A1     0.767758  
      10B2     0.831728    10B1     0.831728    19A1     0.843516  
       4A2     0.843516    20A1     0.890671    21A1     0.957780  
      22A1     1.254599    11B1     1.270781    11B2     1.270781  
      12B2     1.312350    12B1     1.312350     5A2     1.328390  
      23A1     1.328390    13B1     1.364420    13B2     1.364420  
      24A1     1.369080    25A1     1.427142     6A2     1.427142  
      26A1     1.436515     7A2     1.436515    27A1     1.453823  
      14B1     1.458697    14B2     1.458697    15B1     1.465806  
      15B2     1.465806    16B1     1.487512    16B2     1.487512  
      28A1     1.497940    29A1     1.520036     8A2     1.520036  
      17B1     1.597085    17B2     1.597085    18B1     1.649853  
      18B2     1.649853    30A1     1.651726     9A2     1.651726  
      31A1     1.750337    32A1     1.780110    19B1     2.036416  
      19B2     2.036416    33A1     2.065041    34A1     2.476803  
      10A2     2.560598    35A1     2.560598    20B1     2.572079  
      20B2     2.572079    21B1     2.719328    21B2     2.719328  
      36A1     2.720563    37A1     2.870051    11A2     2.883639  
      38A1     2.883639    22B1     2.899252    22B2     2.899252  
      12A2     2.919534    39A1     2.919534    23B1     2.987640  
      23B2     2.987640    24B1     3.005887    24B2     3.005887  
      13A2     3.009984    40A1     3.009984    25B2     3.026149  
      25B1     3.026149    41A1     3.044600    14A2     3.059760  
      42A1     3.059760    26B1     3.152474    26B2     3.152474  
      15A2     3.175656    43A1     3.175656    27B1     3.221338  
      27B2     3.221338    44A1     3.299560    28B1     3.351325  
      28B2     3.351325    45A1     3.441570    16A2     3.458710  
      46A1     3.458710    17A2     3.491972    47A1     3.491972  
      48A1     3.773126    29B1     3.834431    29B2     3.834431  
      30B1     3.861993    30B2     3.861993    18A2     3.975354  
      49A1     3.975354    50A1     4.148752    31B2     4.306492  
      31B1     4.306492    51A1     4.541983    32B1     4.595249  
      32B2     4.595249    33B1     4.806346    33B2     4.806346  
      19A2     5.403996    52A1     5.403996    34B1     5.468533  
      34B2     5.468533    53A1     5.484775    54A1     5.668580  
      35B1     5.708998    35B2     5.708998    20A2     5.743073  
      55A1     5.743073    36B2     5.842183    36B1     5.842183  
      21A2     6.133344    56A1     6.133344    57A1     6.136719  
      37B1     6.269967    37B2     6.269967    58A1     6.331632  
      22A2     6.382402    59A1     6.382402    38B2     6.444681  
      38B1     6.444681    60A1     6.465028    39B1     6.480240  
      39B2     6.480240    61A1     6.485477    23A2     6.485477  
      40B1     6.593080    40B2     6.593080    24A2     6.601818  
      62A1     6.601818    25A2     6.650873    63A1     6.650873  
      41B1     6.717672    41B2     6.717672    64A1     6.751619  
      42B2     7.184350    42B1     7.184350    65A1     7.220119  
      26A2     7.343028    66A1     7.343028    43B2     7.465152  
      43B1     7.465152    67A1     8.246818    44B2     8.397713  
      44B1     8.397713    68A1    10.014898    45B1    13.262100  
      45B2    13.262100    27A2    13.410926    69A1    13.410926  
      46B2    13.583324    46B1    13.583324    28A2    13.652276  
      70A1    13.652276    47B1    13.817372    47B2    13.817372  
      71A1    14.050453    29A2    14.098554    72A1    14.098554  
      73A1    14.242917    48B1    14.564295    48B2    14.564295  
      30A2    14.699329    74A1    14.699329    75A1    14.753755  
      49B1    15.428476    49B2    15.428476    31A2    16.625562  
      76A1    16.625562    77A1    16.917610    50B2    17.106633  
      50B1    17.106633    78A1    17.294158    51B1    17.940492  
      51B2    17.940492    79A1    19.263875    52B2    25.675969  
      52B1    25.675969    80A1    28.678137    81A1    68.295069  

    Final Occupation by Irrep:
             A1    A2    B1    B2 
    DOCC [     5,    0,    2,    2 ]

  Energy converged.

  @RHF Final Energy:  -398.14974270840219

   => Energetics <=

    Nuclear Repulsion Energy =              6.3200371448294561
    One-Electron Energy =                -568.0342294936609733
    Two-Electron Energy =                 163.5644496404292738
    Total Energy =                       -398.1497427084021865



Properties will be evaluated at   0.000000,   0.000000,   0.000000 Bohr

Properties computed using the SCF density matrix

  Nuclear Dipole Moment: (a.u.)
     X:     0.0000      Y:     0.0000      Z:    -1.2165

  Electronic Dipole Moment: (a.u.)
     X:     0.0000      Y:     0.0000      Z:     1.0292

  Dipole Moment: (a.u.)
     X:     0.0000      Y:     0.0000      Z:    -0.1872     Total:     0.1872

  Dipole Moment: (Debye)
     X:     0.0000      Y:     0.0000      Z:    -0.4759     Total:     0.4759


*** tstop() called on cqc03 at Fri May  3 06:35:34 2019
Module time:
	user time   =      30.63 seconds =       0.51 minutes
	system time =       2.34 seconds =       0.04 minutes
	total time  =         33 seconds =       0.55 minutes
Total time:
	user time   =      30.63 seconds =       0.51 minutes
	system time =       2.34 seconds =       0.04 minutes
	total time  =         33 seconds =       0.55 minutes

*** tstart() called on cqc03
*** at Fri May  3 06:35:34 2019


	Wfn Parameters:
	--------------------
	Wavefunction         = CCSD
	Number of irreps     = 4
	Number of MOs        = 216
	Number of active MOs = 211
	AO-Basis             = NONE
	Semicanonical        = false
	Reference            = RHF
	Print Level          = 1

	IRREP	# MOs	# FZDC	# DOCC	# SOCC	# VIRT	# FZVR
	-----	-----	------	------	------	------	------
	 A1	   81	    3	    2	    0	    76	    0
	 A2	   31	    0	    0	    0	    31	    0
	 B1	   52	    1	    1	    0	    50	    0
	 B2	   52	    1	    1	    0	    50	    0
	Transforming integrals...
	IWL integrals will be deleted.
	(OO|OO)...
	Presorting SO-basis two-electron integrals.
	Sorting File: SO Ints (nn|nn) nbuckets = 1
	Transforming the one-electron integrals and constructing Fock matrices
	Starting first half-transformation.
	Sorting half-transformed integrals.
	First half integral transformation complete.
	Starting second half-transformation.
	Two-electron integral transformation complete.
	(OO|OV)...
	Starting second half-transformation.
	Two-electron integral transformation complete.
	(OO|VV)...
	Starting second half-transformation.
	Two-electron integral transformation complete.
	(OV|OO)...
	Starting first half-transformation.
	Sorting half-transformed integrals.
	First half integral transformation complete.
	Starting second half-transformation.
	Two-electron integral transformation complete.
	(OV|OV)...
	Starting second half-transformation.
	Two-electron integral transformation complete.
	(OV|VV)...
	Starting second half-transformation.
	Two-electron integral transformation complete.
	(VV|OO)...
	Starting first half-transformation.
	Sorting half-transformed integrals.
	First half integral transformation complete.
	Starting second half-transformation.
	Two-electron integral transformation complete.
	(VV|OV)...
	Starting second half-transformation.
	Two-electron integral transformation complete.
	(VV|VV)...
	Starting second half-transformation.
	Two-electron integral transformation complete.
	Frozen core energy     =   -391.50364863638714

	Size of irrep 0 of <ab|cd> integrals:    137.757 (MW) /   1102.057 (MB)
	Size of irrep 1 of <ab|cd> integrals:     94.323 (MW) /    754.584 (MB)
	Size of irrep 2 of <ab|cd> integrals:    114.490 (MW) /    915.920 (MB)
	Size of irrep 3 of <ab|cd> integrals:    114.490 (MW) /    915.920 (MB)
	Total:                                   461.060 (MW) /   3688.481 (MB)

	Size of irrep 0 of <ia|bc> integrals:      2.958 (MW) /     23.662 (MB)
	Size of irrep 1 of <ia|bc> integrals:      1.573 (MW) /     12.587 (MB)
	Size of irrep 2 of <ia|bc> integrals:      2.215 (MW) /     17.719 (MB)
	Size of irrep 3 of <ia|bc> integrals:      2.215 (MW) /     17.719 (MB)
	Total:                                     8.961 (MW) /     71.687 (MB)

	Size of irrep 0 of tijab amplitudes:       0.070 (MW) /      0.563 (MB)
	Size of irrep 1 of tijab amplitudes:       0.019 (MW) /      0.155 (MB)
	Size of irrep 2 of tijab amplitudes:       0.043 (MW) /      0.342 (MB)
	Size of irrep 3 of tijab amplitudes:       0.043 (MW) /      0.342 (MB)
	Total:                                     0.175 (MW) /      1.404 (MB)

	Nuclear Rep. energy          =      6.32003714482946
	SCF energy                   =   -398.14974270840219
	One-electron energy          =    -23.75279026725110
	Two-electron energy          =     10.78665905040354
	Reference energy             =   -398.14974270840526

*** tstop() called on cqc03 at Fri May  3 06:36:08 2019
Module time:
	user time   =      19.67 seconds =       0.33 minutes
	system time =      12.15 seconds =       0.20 minutes
	total time  =         34 seconds =       0.57 minutes
Total time:
	user time   =      50.30 seconds =       0.84 minutes
	system time =      14.49 seconds =       0.24 minutes
	total time  =         67 seconds =       1.12 minutes

*** tstart() called on cqc03
*** at Fri May  3 06:36:08 2019

            **************************
            *                        *
            *        CCENERGY        *
            *                        *
            **************************

    Nuclear Rep. energy (wfn)     =    6.320037144829456
    SCF energy          (wfn)     = -398.149742708402187
    Reference energy    (file100) = -398.149742708405256

    Input parameters:
    -----------------
    Wave function   =     CCSD
    Reference wfn   =     RHF
    Brueckner       =     No
    Memory (Mbytes) =     32000.0
    Maxiter         =     50
    R_Convergence   =     1.0e-07
    E_Convergence   =     1.0e-06
    Restart         =     Yes
    DIIS            =     Yes
    AO Basis        =     NONE
    ABCD            =     NEW
    Cache Level     =     2
    Cache Type      =     LOW
    Print Level     =     1
    Num. of threads =     1
    # Amps to Print =     10
    Print MP2 Amps? =     No
    Analyze T2 Amps =     No
    Print Pair Ener =     No
    Local CC        =     No
    SCS-MP2         =     False
    SCSN-MP2        =     False
    SCS-CCSD        =     False

MP2 correlation energy -0.2212646508816109
                Solving CC Amplitude Equations
                ------------------------------
  Iter             Energy              RMS        T1Diag      D1Diag    New D1Diag    D2Diag
  ----     ---------------------    ---------   ----------  ----------  ----------   --------
     0        -0.221264650881452    0.000e+00    0.000000    0.000000    0.000000    0.147444
     1        -0.248687268824539    2.305e-01    0.013656    0.020603    0.020603    0.175327
     2        -0.237615832475589    3.259e-02    0.009158    0.015644    0.015644    0.165874
     3        -0.235027383743197    8.516e-03    0.009445    0.015736    0.015736    0.163107
     4        -0.234739228128310    2.286e-03    0.009347    0.015680    0.015680    0.162685
     5        -0.234669687840830    6.509e-04    0.009317    0.015640    0.015640    0.162498
     6        -0.234647776028775    2.186e-04    0.009315    0.015643    0.015643    0.162441
     7        -0.234649215868730    8.368e-05    0.009315    0.015648    0.015648    0.162431
     8        -0.234652990641606    2.928e-05    0.009314    0.015650    0.015650    0.162433
     9        -0.234652495948450    1.093e-05    0.009314    0.015650    0.015650    0.162433
    10        -0.234652338336566    3.212e-06    0.009314    0.015651    0.015651    0.162433
    11        -0.234652407676286    9.026e-07    0.009314    0.015651    0.015651    0.162433
    12        -0.234652418725173    2.950e-07    0.009314    0.015651    0.015651    0.162433
    13        -0.234652423546243    8.415e-08    0.009314    0.015651    0.015651    0.162433
    13        -0.234652423546243    8.415e-08    0.009314    0.015651    0.015651    0.162433

    Iterations converged.


    CCSD corr. energy   =   -0.234652423546243
    PPL corr. energy    =    0.070806711920062
    OS PPL corr. energy =    0.060116132699217
    SS PPL corr. energy =    0.010690579220840
    Largest TIA Amplitudes:
              1   8         0.0078320265
              3 158         0.0077783467
              2 108         0.0077781678
              3 161        -0.0071556245
              2 111        -0.0071555730
              1   5        -0.0064466675
              1  12         0.0055229152
              1   3        -0.0054402876
              0  14        -0.0049307916
              1  18        -0.0044602722

    Largest TIjAb Amplitudes:
      1   1   8   8        -0.0462229339
      3   3 160 160        -0.0381454207
      2   2 110 110        -0.0381453900
      1   1   6   6        -0.0351791018
      2   2  78  78        -0.0293697686
      2   2  10  10        -0.0293697665
      3   3  10  10        -0.0293697616
      3   3  78  78        -0.0293697594
      1   1   6   8         0.0292919696
      1   1   8   6         0.0292919696

    SCF energy       (wfn)                    = -398.149742708402187
    Reference energy (file100)                = -398.149742708405256

    Opposite-spin MP2 correlation energy      =   -0.173799782224604
    Same-spin MP2 correlation energy          =   -0.047464868656848
    MP2 correlation energy                    =   -0.221264650881611
      * MP2 total energy                      = -398.371007359286864

    Opposite-spin CCSD correlation energy     =   -0.189802627822410
    Same-spin CCSD correlation energy         =   -0.044849798805170
    CCSD correlation energy                   =   -0.234652423546243
      * CCSD total energy                     = -398.384395131951521


*** tstop() called on cqc03 at Fri May  3 06:36:28 2019
Module time:
	user time   =       5.31 seconds =       0.09 minutes
	system time =       8.74 seconds =       0.15 minutes
	total time  =         20 seconds =       0.33 minutes
Total time:
	user time   =      55.61 seconds =       0.93 minutes
	system time =      23.23 seconds =       0.39 minutes
	total time  =         87 seconds =       1.45 minutes

*** Psi4 exiting successfully. Buy a developer a beer!
