
    -----------------------------------------------------------------------
          Psi4: An Open-Source Ab Initio Electronic Structure Package
                               Psi4 1.2a1.dev939 

                         Git: Rev {HEAD} fa1ec19 dirty


    R. M. Parrish, L. A. Burns, D. G. A. Smith, A. C. Simmonett,
    A. E. DePrince III, E. G. Hohenstein, U. Bozkaya, A. Yu. Sokolov,
    R. Di Remigio, R. M. Richard, J. F. Gonthier, A. M. James,
    H. R. McAlexander, A. Kumar, M. Saitow, X. Wang, B. P. Pritchard,
    P. Verma, H. F. Schaefer III, K. Patkowski, R. A. King, E. F. Valeev,
    F. A. Evangelista, J. M. Turney, T. D. Crawford, and C. D. Sherrill,
    J. Chem. Theory Comput. 13(7) pp 3185--3197 (2017).
    (doi: 10.1021/acs.jctc.7b00174)

    -----------------------------------------------------------------------


    Psi4 started on: Monday, 02 November 2020 05:36PM

    Process ID: 157048
    PSIDATADIR: /home/fs71337/airmler/src/psi4_uhf/build/stage/usr/local/psi4/share/psi4
    Memory:     500.0 MiB
    Threads:    48
    
  ==> Input File <==

--------------------------------------------------------------------------
# Any line starting with the # character is a comment line
memory 250000 mb
molecule molecule{
-1 1
S          0.0000000000        0.0000000000        0.0408346674
H          0.0000000000        0.0000000000       -1.2988465945
}

set {
  reference rhf
  basis aug-cc-pv(6+d)z
  scf_type OUT_OF_CORE
  freeze_core true
}

energy('ccsd')
--------------------------------------------------------------------------

  Memory set to 232.831 GiB by Python driver.

*** tstart() called on n409-062.vsc4.prov
*** at Mon Nov  2 17:36:05 2020

   => Loading Basis Set <=

    Name: AUG-CC-PV(6+D)Z
    Role: ORBITAL
    Keyword: BASIS
    atoms 1 entry S          line  1164 file /home/fs71337/airmler/src/psi4_uhf/build/stage/usr/local/psi4/share/psi4/basis/aug-cc-pv_6pd_z.gbs 
    atoms 2 entry H          line    51 file /home/fs71337/airmler/src/psi4_uhf/build/stage/usr/local/psi4/share/psi4/basis/aug-cc-pv_6pd_z.gbs 


         ---------------------------------------------------------
                                   SCF
            by Justin Turney, Rob Parrish, Andy Simmonett
                             and Daniel Smith
                              RHF Reference
                       48 Threads, 238418 MiB Core
         ---------------------------------------------------------

  ==> Geometry <==

    Molecular point group: c2v
    Full point group: C_inf_v

    Geometry (in Angstrom), charge = -1, multiplicity = 1:

       Center              X                  Y                   Z               Mass       
    ------------   -----------------  -----------------  -----------------  -----------------
           S          0.000000000000     0.000000000000     0.040939010525    31.972070999000
           H          0.000000000000     0.000000000000    -1.298742251375     1.007825032070

  Running in c2v symmetry.

  Rotational constants: A = ************  B =      9.61362  C =      9.61362 [cm^-1]
  Rotational constants: A = ************  B = 288209.04249  C = 288209.04249 [MHz]
  Nuclear repulsion =    6.320037144829456

  Charge       = -1
  Multiplicity = 1
  Electrons    = 18
  Nalpha       = 9
  Nbeta        = 9

  ==> Algorithm <==

  SCF Algorithm Type is OUT_OF_CORE.
  DIIS enabled.
  MOM disabled.
  Fractional occupation disabled.
  Guess Type is SAD.
  Energy threshold   = 1.00e-08
  Density threshold  = 1.00e-08
  Integral threshold = 0.00e+00

  ==> Primary Basis <==

  Basis Set: AUG-CC-PV(6+D)Z
    Blend: AUG-CC-PV(6+D)Z
    Number of shells: 65
    Number of basis function: 325
    Number of Cartesian functions: 486
    Spherical Harmonics?: true
    Max angular momentum: 6

  ==> Pre-Iterations <==

   -------------------------------------------------------
    Irrep   Nso     Nmo     Nalpha   Nbeta   Ndocc  Nsocc
   -------------------------------------------------------
     A1       116     116       0       0       0       0
     A2        51      51       0       0       0       0
     B1        79      79       0       0       0       0
     B2        79      79       0       0       0       0
   -------------------------------------------------------
    Total     325     325       9       9       9       0
   -------------------------------------------------------

  ==> Integral Setup <==

  ==> DiskJK: Disk-Based J/K Matrices <==

    J tasked:                  Yes
    K tasked:                  Yes
    wK tasked:                  No
    Memory (MB):            178813
    Schwarz Cutoff:          1E-12

  Minimum eigenvalue in the overlap matrix is 7.3305529501E-06.
  Using Symmetric Orthogonalization.

  SCF Guess: Superposition of Atomic Densities via on-the-fly atomic UHF.

  ==> Iterations <==

                        Total Energy        Delta E     RMS |[F,P]|

   @RHF iter   0:  -412.07377492580872   -4.12074e+02   2.40572e-02 
    Occupation by irrep:
             A1    A2    B1    B2 
    DOCC [     5,    0,    2,    2 ]

   @RHF iter   1:  -396.63563587841207    1.54381e+01   3.01568e-02 
   @RHF iter   2:  -397.57997479451257   -9.44339e-01   2.24811e-02 DIIS
   @RHF iter   3:  -398.11480568202398   -5.34831e-01   3.49657e-03 DIIS
   @RHF iter   4:  -398.14826121963864   -3.34555e-02   8.91133e-04 DIIS
   @RHF iter   5:  -398.14963989779284   -1.37868e-03   2.09474e-04 DIIS
   @RHF iter   6:  -398.14984532754687   -2.05430e-04   7.50349e-05 DIIS
   @RHF iter   7:  -398.14988018265001   -3.48551e-05   2.89743e-05 DIIS
   @RHF iter   8:  -398.14988359979316   -3.41714e-06   5.20764e-06 DIIS
   @RHF iter   9:  -398.14988375292887   -1.53136e-07   1.39659e-06 DIIS
   @RHF iter  10:  -398.14988376164774   -8.71887e-09   4.16638e-07 DIIS
   @RHF iter  11:  -398.14988376242110   -7.73355e-10   1.10493e-07 DIIS
   @RHF iter  12:  -398.14988376247425   -5.31486e-11   1.32949e-08 DIIS
   @RHF iter  13:  -398.14988376247487   -6.25278e-13   2.06644e-09 DIIS

  ==> Post-Iterations <==

    Orbital Energies (a.u.)
    -----------------------

    Doubly Occupied:                                                      

       1A1   -91.663483     2A1    -8.664227     3A1    -6.346036  
       1B2    -6.344651     1B1    -6.344651     4A1    -0.645154  
       5A1    -0.254817     2B1    -0.094914     2B2    -0.094914  

    Virtual:                                                              

       6A1     0.128783     7A1     0.182829     3B1     0.194568  
       3B2     0.194568     8A1     0.242422     9A1     0.287720  
       4B2     0.320090     4B1     0.320090    10A1     0.350112  
       1A2     0.350112    11A1     0.351683     5B2     0.369735  
       5B1     0.369735    12A1     0.408197    13A1     0.442596  
       6B2     0.483403     6B1     0.483403    14A1     0.511293  
      15A1     0.593913     2A2     0.593913     7B1     0.602791  
       7B2     0.602791     8B2     0.633125     8B1     0.633125  
      16A1     0.659553     3A2     0.659553    17A1     0.668830  
       9B2     0.696145     9B1     0.696145    18A1     0.697270  
      10B1     0.739301    10B2     0.739301    19A1     0.746266  
      20A1     0.755608     4A2     0.755608    21A1     0.845512  
      22A1     1.000341    11B2     1.084719    11B1     1.084719  
      23A1     1.093367     5A2     1.093367    12B2     1.121077  
      12B1     1.121077    13B2     1.132835    13B1     1.132835  
      24A1     1.181202    14B2     1.203555    14B1     1.203555  
       6A2     1.207819    25A1     1.207819    26A1     1.210813  
       7A2     1.252202    27A1     1.252202    28A1     1.281507  
      15B2     1.309552    15B1     1.309552    16B2     1.365951  
      16B1     1.365951    17B1     1.371647    17B2     1.371647  
       8A2     1.381818    29A1     1.381818    30A1     1.424132  
      18B1     1.453532    18B2     1.453532     9A2     1.465926  
      31A1     1.465926    32A1     1.547682    19B2     1.732717  
      19B1     1.732717    33A1     1.743642    34A1     1.937148  
      10A2     2.176469    35A1     2.176469    20B2     2.180316  
      20B1     2.180316    11A2     2.190256    36A1     2.190256  
      21B1     2.225225    21B2     2.225225    37A1     2.227742  
      22B2     2.308942    22B1     2.308942    23B2     2.365658  
      23B1     2.365658    12A2     2.384552    38A1     2.384552  
      39A1     2.391973    13A2     2.429264    40A1     2.429264  
      24B2     2.438109    24B1     2.438109    25B2     2.445459  
      25B1     2.445459    41A1     2.454570    14A2     2.526030  
      42A1     2.526030    26B2     2.568509    26B1     2.568509  
      43A1     2.593413    15A2     2.688828    44A1     2.688828  
      16A2     2.690720    45A1     2.690720    27B1     2.725928  
      27B2     2.725928    28B2     2.771917    28B1     2.771917  
      17A2     2.806040    46A1     2.806040    29B2     2.842273  
      29B1     2.842273    47A1     2.867405    48A1     3.007031  
      30B2     3.019741    30B1     3.019741    49A1     3.039630  
      18A2     3.064248    50A1     3.064248    31B2     3.084697  
      31B1     3.084697    51A1     3.436786    32B2     3.784322  
      32B1     3.784322    33B2     3.947483    33B1     3.947483  
      52A1     4.101059    19A2     4.226735    53A1     4.226735  
      34B2     4.288793    34B1     4.288793    35B2     4.400332  
      35B1     4.400332    20A2     4.410996    54A1     4.410996  
      55A1     4.510964    21A2     4.545369    56A1     4.545369  
      36B2     4.612862    36B1     4.612862    37B2     4.616579  
      37B1     4.616579    22A2     4.672315    57A1     4.672315  
      23A2     4.695502    58A1     4.695502    38B1     4.712783  
      38B2     4.712783    59A1     4.720555    60A1     4.741841  
      24A2     4.741841    61A1     4.788541    25A2     4.815311  
      62A1     4.815311    39B1     4.873087    39B2     4.873087  
      40B2     4.884923    40B1     4.884923    41B2     4.917540  
      41B1     4.917540    42B2     5.043707    42B1     5.043707  
      63A1     5.081601    26A2     5.138434    64A1     5.138434  
      65A1     5.193555    43B1     5.279732    43B2     5.279732  
      27A2     5.282127    66A1     5.282127    44B2     5.388009  
      44B1     5.388009    28A2     5.435160    67A1     5.435160  
      68A1     5.451039    45B1     5.494418    45B2     5.494418  
      69A1     5.587633    29A2     5.587633    46B2     5.695859  
      46B1     5.695859    30A2     5.741523    70A1     5.741523  
      47B2     5.748373    47B1     5.748373    71A1     5.779073  
      72A1     6.070859    48B2     6.151057    48B1     6.151057  
      73A1     6.295681    49B2     6.625164    49B1     6.625164  
      31A2     6.753170    74A1     6.753170    50B2     7.303679  
      50B1     7.303679    75A1     7.446520    76A1     7.738554  
      32A2     7.738554    51B2     7.783284    51B1     7.783284  
      52B1     8.271004    52B2     8.271004    77A1     8.333280  
      33A2     8.517894    78A1     8.517894    53B2     8.555641  
      53B1     8.555641    79A1     8.796555    34A2     9.000677  
      80A1     9.000677    54B2     9.015123    54B1     9.015123  
      81A1     9.052521    35A2     9.161129    82A1     9.161129  
      36A2     9.225754    83A1     9.225754    55B2     9.239222  
      55B1     9.239222    84A1     9.362364    37A2     9.362364  
      56B2     9.519965    56B1     9.519965    57B1     9.618667  
      57B2     9.618667    85A1     9.639942    38A2     9.639942  
      58B1     9.717001    58B2     9.717001    86A1     9.735260  
      87A1     9.806548    39A2     9.806548    59B2     9.879906  
      59B1     9.879906    60B1     9.912314    60B2     9.912314  
      88A1     9.986701    40A2    10.123966    89A1    10.123966  
      61B2    10.247332    61B1    10.247332    62B1    10.419981  
      62B2    10.419981    90A1    10.728793    41A2    10.728793  
      91A1    10.774556    92A1    10.906715    93A1    11.057514  
      42A2    11.057514    63B1    11.112368    63B2    11.112368  
      94A1    11.208440    43A2    11.208440    95A1    11.302683  
      64B2    11.532282    64B1    11.532282    65B2    11.866284  
      65B1    11.866284    44A2    11.989600    96A1    11.989600  
      97A1    11.997961    66B2    12.031561    66B1    12.031561  
      98A1    13.126088    67B2    13.253990    67B1    13.253990  
      68B2    14.173799    68B1    14.173799    99A1    15.150017  
     100A1    16.820974    69B2    17.773149    69B1    17.773149  
     101A1    17.909290    45A2    17.909290    70B1    18.101117  
      70B2    18.101117   102A1    18.664608    46A2    18.664608  
     103A1    19.401070    71B2    19.423473    71B1    19.423473  
     104A1    20.575683    47A2    20.575683    72B1    21.034853  
      72B2    21.034853   105A1    21.762558    48A2    21.762558  
      73B2    21.827403    73B1    21.827403   106A1    22.099591  
     107A1    23.025108   108A1    23.422388    49A2    23.422388  
      74B2    24.371863    74B1    24.371863   109A1    24.833692  
     110A1    24.848983    50A2    24.848983    75B2    24.872979  
      75B1    24.872979    76B2    25.557257    76B1    25.557257  
     111A1    25.855643    77B2    30.694776    77B1    30.694776  
      51A2    31.115334   112A1    31.115334    78B2    31.680162  
      78B1    31.680162   113A1    32.025539   114A1    34.801049  
      79B2    35.046247    79B1    35.046247   115A1    37.622921  
     116A1   248.144303  

    Final Occupation by Irrep:
             A1    A2    B1    B2 
    DOCC [     5,    0,    2,    2 ]

  Energy converged.

  @RHF Final Energy:  -398.14988376247487

   => Energetics <=

    Nuclear Repulsion Energy =              6.3200371448294561
    One-Electron Energy =                -568.0341430854848568
    Two-Electron Energy =                 163.5642221781805006
    PCM Polarization Energy =               0.0000000000000000
    Total Energy =                       -398.1498837624748717

    Alert: EFP and PCM quantities not currently incorporated into SCF psivars.

Properties will be evaluated at   0.000000,   0.000000,   0.000000 Bohr

Properties computed using the SCF density matrix

  Nuclear Dipole Moment: (a.u.)
     X:     0.0000      Y:     0.0000      Z:    -1.2165

  Electronic Dipole Moment: (a.u.)
     X:     0.0000      Y:     0.0000      Z:     1.0298

  Dipole Moment: (a.u.)
     X:     0.0000      Y:     0.0000      Z:    -0.1866     Total:     0.1866

  Dipole Moment: (Debye)
     X:     0.0000      Y:     0.0000      Z:    -0.4744     Total:     0.4744


*** tstop() called on n409-062.vsc4.prov at Mon Nov  2 17:44:32 2020
Module time:
	user time   =     604.57 seconds =      10.08 minutes
	system time =      37.88 seconds =       0.63 minutes
	total time  =        507 seconds =       8.45 minutes
Total time:
	user time   =     604.57 seconds =      10.08 minutes
	system time =      37.88 seconds =       0.63 minutes
	total time  =        507 seconds =       8.45 minutes

*** tstart() called on n409-062.vsc4.prov
*** at Mon Nov  2 17:44:32 2020


	Wfn Parameters:
	--------------------
	Wavefunction         = CCSD
	Number of irreps     = 4
	Number of MOs        = 325
	Number of active MOs = 320
	AO-Basis             = NONE
	Semicanonical        = false
	Reference            = RHF
	Print Level          = 1

	IRREP	# MOs	# FZDC	# DOCC	# SOCC	# VIRT	# FZVR
	-----	-----	------	------	------	------	------
	 A1	   116	    3	    2	    0	    111	    0
	 A2	   51	    0	    0	    0	    51	    0
	 B1	   79	    1	    1	    0	    77	    0
	 B2	   79	    1	    1	    0	    77	    0
	Transforming integrals...
	IWL integrals will be deleted.
	(OO|OO)...
	Presorting SO-basis two-electron integrals.
	Sorting File: SO Ints (nn|nn) nbuckets = 1
	Transforming the one-electron integrals and constructing Fock matrices
	Starting first half-transformation.
	Sorting half-transformed integrals.
	First half integral transformation complete.
	Starting second half-transformation.
	Two-electron integral transformation complete.
	(OO|OV)...
	Starting second half-transformation.
	Two-electron integral transformation complete.
	(OO|VV)...
	Starting second half-transformation.
	Two-electron integral transformation complete.
	(OV|OO)...
	Starting first half-transformation.
	Sorting half-transformed integrals.
	First half integral transformation complete.
	Starting second half-transformation.
	Two-electron integral transformation complete.
	(OV|OV)...
	Starting second half-transformation.
	Two-electron integral transformation complete.
	(OV|VV)...
	Starting second half-transformation.
	Two-electron integral transformation complete.
	(VV|OO)...
	Starting first half-transformation.
	Sorting half-transformed integrals.
	First half integral transformation complete.
	Starting second half-transformation.
	Two-electron integral transformation complete.
	(VV|OV)...
	Starting second half-transformation.
	Two-electron integral transformation complete.
	(VV|VV)...
	Starting second half-transformation.
	Two-electron integral transformation complete.
	Frozen core energy     =   -391.50373752180957

	Size of irrep 0 of <ab|cd> integrals:    717.168 (MW) /   5737.347 (MB)
	Size of irrep 1 of <ab|cd> integrals:    537.312 (MW) /   4298.499 (MB)
	Size of irrep 2 of <ab|cd> integrals:    622.403 (MW) /   4979.222 (MB)
	Size of irrep 3 of <ab|cd> integrals:    622.403 (MW) /   4979.222 (MB)
	Total:                                  2499.286 (MW) /  19994.290 (MB)

	Size of irrep 0 of <ia|bc> integrals:     10.069 (MW) /     80.554 (MB)
	Size of irrep 1 of <ia|bc> integrals:      5.934 (MW) /     47.473 (MB)
	Size of irrep 2 of <ia|bc> integrals:      7.884 (MW) /     63.069 (MB)
	Size of irrep 3 of <ia|bc> integrals:      7.884 (MW) /     63.069 (MB)
	Total:                                    31.770 (MW) /    254.164 (MB)

	Size of irrep 0 of tijab amplitudes:       0.161 (MW) /      1.285 (MB)
	Size of irrep 1 of tijab amplitudes:       0.046 (MW) /      0.371 (MB)
	Size of irrep 2 of tijab amplitudes:       0.100 (MW) /      0.798 (MB)
	Size of irrep 3 of tijab amplitudes:       0.100 (MW) /      0.798 (MB)
	Total:                                     0.407 (MW) /      3.253 (MB)

	Nuclear Rep. energy          =      6.32003714482946
	SCF energy                   =   -398.14988376247487
	One-electron energy          =    -23.75276648909626
	Two-electron energy          =     10.78658310360065
	Reference energy             =   -398.14988376247572

*** tstop() called on n409-062.vsc4.prov at Mon Nov  2 17:50:52 2020
Module time:
	user time   =    1437.34 seconds =      23.96 minutes
	system time =      84.46 seconds =       1.41 minutes
	total time  =        380 seconds =       6.33 minutes
Total time:
	user time   =    2041.92 seconds =      34.03 minutes
	system time =     122.34 seconds =       2.04 minutes
	total time  =        887 seconds =      14.78 minutes

*** tstart() called on n409-062.vsc4.prov
*** at Mon Nov  2 17:50:52 2020

            **************************
            *                        *
            *        CCENERGY        *
            *                        *
            **************************

    Nuclear Rep. energy (wfn)     =    6.320037144829456
    SCF energy          (wfn)     = -398.149883762474872
    Reference energy    (file100) = -398.149883762475724

    Input parameters:
    -----------------
    Wave function   =     CCSD
    Reference wfn   =     RHF
    Brueckner       =     No
    Memory (Mbytes) =     250000.0
    Maxiter         =     50
    R_Convergence   =     1.0e-07
    E_Convergence   =     1.0e-06
    Restart         =     Yes
    DIIS            =     Yes
    AO Basis        =     NONE
    ABCD            =     NEW
    Cache Level     =     2
    Cache Type      =     LOW
    Print Level     =     1
    Num. of threads =     48
    # Amps to Print =     10
    Print MP2 Amps? =     No
    Analyze T2 Amps =     No
    Print Pair Ener =     No
    Local CC        =     No
    SCS-MP2         =     False
    SCSN-MP2        =     False
    SCS-CCSD        =     False

MP2 correlation energy -0.2243418020221573
                Solving CC Amplitude Equations
                ------------------------------
  Iter             Energy              RMS        T1Diag      D1Diag    New D1Diag    D2Diag
  ----     ---------------------    ---------   ----------  ----------  ----------   --------
     0        -0.224341802022154    0.000e+00    0.000000    0.000000    0.000000    0.147716
     1        -0.248562052251551    2.338e-01    0.013804    0.020776    0.020776    0.174218
     2        -0.239624742795271    3.287e-02    0.009206    0.015650    0.015650    0.165825
     3        -0.236726911443990    9.067e-03    0.009499    0.015783    0.015783    0.162804
     4        -0.236379720326831    2.456e-03    0.009404    0.015725    0.015725    0.162341
     5        -0.236322136227051    7.031e-04    0.009373    0.015682    0.015682    0.162158
     6        -0.236300222101802    2.390e-04    0.009373    0.015685    0.015685    0.162099
     7        -0.236299032736892    9.398e-05    0.009373    0.015690    0.015690    0.162085
     8        -0.236302798198972    3.487e-05    0.009373    0.015692    0.015692    0.162086
     9        -0.236302729333642    1.326e-05    0.009373    0.015693    0.015693    0.162086
    10        -0.236302443644618    4.428e-06    0.009373    0.015693    0.015693    0.162086
    11        -0.236302494851433    1.105e-06    0.009373    0.015693    0.015693    0.162086
    12        -0.236302517685349    3.690e-07    0.009373    0.015693    0.015693    0.162086
    13        -0.236302524203040    1.163e-07    0.009373    0.015693    0.015693    0.162086
    14        -0.236302525499361    4.006e-08    0.009373    0.015693    0.015693    0.162086
    14        -0.236302525499361    4.006e-08    0.009373    0.015693    0.015693    0.162086

    Iterations converged.


    CCSD corr. energy   =   -0.236302525499361
    PPL corr. energy    =    0.072318189509566
    OS PPL corr. energy =    0.061569217420411
    SS PPL corr. energy =    0.010748972089155
    Largest TIA Amplitudes:
              1   8        -0.0078499383
              2 163        -0.0068031523
              3 240        -0.0068031480
              2 166         0.0063688399
              3 243         0.0063688349
              1  11         0.0056936205
              0   7        -0.0056097330
              0  15         0.0055762106
              1   6         0.0052854109
              1  22         0.0051377932

    Largest TIjAb Amplitudes:
      1   1   8   8        -0.0462786651
      3   3 242 242        -0.0364740571
      2   2 165 165        -0.0364740557
      3   3 246 246        -0.0258293766
      2   2 169 169        -0.0258293766
      1   1   8  11         0.0253796724
      1   1  11   8         0.0253796724
      2   2  14  14        -0.0251500884
      2   2 114 114        -0.0251500882
      3   3 114 114        -0.0251500878

    SCF energy       (wfn)                    = -398.149883762474872
    Reference energy (file100)                = -398.149883762475724

    Opposite-spin MP2 correlation energy      =   -0.176720037572577
    Same-spin MP2 correlation energy          =   -0.047621764449578
    MP2 correlation energy                    =   -0.224341802022157
      * MP2 total energy                      = -398.374225564497863

    Opposite-spin CCSD correlation energy     =   -0.191345982864384
    Same-spin CCSD correlation energy         =   -0.044956542895706
    CCSD correlation energy                   =   -0.236302525499361
      * CCSD total energy                     = -398.386186287975079


*** tstop() called on n409-062.vsc4.prov at Mon Nov  2 17:54:36 2020
Module time:
	user time   =    2596.63 seconds =      43.28 minutes
	system time =     117.89 seconds =       1.96 minutes
	total time  =        224 seconds =       3.73 minutes
Total time:
	user time   =    4638.55 seconds =      77.31 minutes
	system time =     240.23 seconds =       4.00 minutes
	total time  =       1111 seconds =      18.52 minutes

*** Psi4 exiting successfully. Buy a developer a beer!
