
    -----------------------------------------------------------------------
          Psi4: An Open-Source Ab Initio Electronic Structure Package
                               Psi4 1.2a1.dev939 

                         Git: Rev {HEAD} fa1ec19 


    R. M. Parrish, L. A. Burns, D. G. A. Smith, A. C. Simmonett,
    A. E. DePrince III, E. G. Hohenstein, U. Bozkaya, A. Yu. Sokolov,
    R. Di Remigio, R. M. Richard, J. F. Gonthier, A. M. James,
    H. R. McAlexander, A. Kumar, M. Saitow, X. Wang, B. P. Pritchard,
    P. Verma, H. F. Schaefer III, K. Patkowski, R. A. King, E. F. Valeev,
    F. A. Evangelista, J. M. Turney, T. D. Crawford, and C. D. Sherrill,
    J. Chem. Theory Comput. 13(7) pp 3185--3197 (2017).
    (doi: 10.1021/acs.jctc.7b00174)

    -----------------------------------------------------------------------


    Psi4 started on: Friday, 26 April 2019 03:43PM

    Process ID:  20577
    PSIDATADIR: /home/grueneis/src/psi4/objdir/stage/usr/local/psi4/share/psi4
    Memory:     500.0 MiB
    Threads:    1
    
  ==> Input File <==

--------------------------------------------------------------------------
# Any line starting with the # character is a comment line

memory 32000 mb

molecule molecule {
-1 1
S          0.0000000000        0.0000000000        0.0408346674
H          0.0000000000        0.0000000000       -1.2988465945
}

set {
  reference rhf
  basis aug-cc-pv(D+d)z
  scf_type OUT_OF_CORE
  freeze_core true
}

energy('ccsd')
--------------------------------------------------------------------------

  Memory set to  29.802 GiB by Python driver.

*** tstart() called on cqc01
*** at Fri Apr 26 15:43:21 2019

   => Loading Basis Set <=

    Name: AUG-CC-PV(D+D)Z
    Role: ORBITAL
    Keyword: BASIS
    atoms 1 entry S          line   724 file /home/grueneis/src/psi4/objdir/stage/usr/local/psi4/share/psi4/basis/aug-cc-pv_dpd_z.gbs 
    atoms 2 entry H          line    56 file /home/grueneis/src/psi4/objdir/stage/usr/local/psi4/share/psi4/basis/aug-cc-pv_dpd_z.gbs 


         ---------------------------------------------------------
                                   SCF
            by Justin Turney, Rob Parrish, Andy Simmonett
                             and Daniel Smith
                              RHF Reference
                        1 Threads,  30517 MiB Core
         ---------------------------------------------------------

  ==> Geometry <==

    Molecular point group: c2v
    Full point group: C_inf_v

    Geometry (in Angstrom), charge = -1, multiplicity = 1:

       Center              X                  Y                   Z               Mass       
    ------------   -----------------  -----------------  -----------------  -----------------
           S          0.000000000000     0.000000000000     0.040939010525    31.972070999000
           H          0.000000000000     0.000000000000    -1.298742251375     1.007825032070

  Running in c2v symmetry.

  Rotational constants: A = ************  B =      9.61362  C =      9.61362 [cm^-1]
  Rotational constants: A = ************  B = 288209.04249  C = 288209.04249 [MHz]
  Nuclear repulsion =    6.320037144829456

  Charge       = -1
  Multiplicity = 1
  Electrons    = 18
  Nalpha       = 9
  Nbeta        = 9

  ==> Algorithm <==

  SCF Algorithm Type is OUT_OF_CORE.
  DIIS enabled.
  MOM disabled.
  Fractional occupation disabled.
  Guess Type is SAD.
  Energy threshold   = 1.00e-08
  Density threshold  = 1.00e-08
  Integral threshold = 0.00e+00

  ==> Primary Basis <==

  Basis Set: AUG-CC-PV(D+D)Z
    Blend: AUG-CC-PV(D+D)Z
    Number of shells: 17
    Number of basis function: 41
    Number of Cartesian functions: 44
    Spherical Harmonics?: true
    Max angular momentum: 2

  ==> Pre-Iterations <==

   -------------------------------------------------------
    Irrep   Nso     Nmo     Nalpha   Nbeta   Ndocc  Nsocc
   -------------------------------------------------------
     A1        20      20       0       0       0       0
     A2         3       3       0       0       0       0
     B1         9       9       0       0       0       0
     B2         9       9       0       0       0       0
   -------------------------------------------------------
    Total      41      41       9       9       9       0
   -------------------------------------------------------

  ==> Integral Setup <==

  ==> DiskJK: Disk-Based J/K Matrices <==

    J tasked:                  Yes
    K tasked:                  Yes
    wK tasked:                  No
    Memory (MB):             22888
    Schwarz Cutoff:          1E-12

  Minimum eigenvalue in the overlap matrix is 1.2926271495E-03.
  Using Symmetric Orthogonalization.

  SCF Guess: Superposition of Atomic Densities via on-the-fly atomic UHF.

  ==> Iterations <==

                        Total Energy        Delta E     RMS |[F,P]|

   @RHF iter   0:  -411.87969896055421   -4.11880e+02   4.18810e-02 
   @RHF iter   1:  -397.86685762567959    1.40128e+01   3.31294e-02 
   @RHF iter   2:  -398.08657348025667   -2.19716e-01   1.17981e-02 DIIS
   @RHF iter   3:  -398.13496708995871   -4.83936e-02   9.19766e-04 DIIS
   @RHF iter   4:  -398.13551467894257   -5.47589e-04   2.79837e-04 DIIS
   @RHF iter   5:  -398.13558336032702   -6.86814e-05   1.09189e-04 DIIS
   @RHF iter   6:  -398.13560472590802   -2.13656e-05   2.91447e-05 DIIS
   @RHF iter   7:  -398.13560635710286   -1.63119e-06   4.71357e-06 DIIS
   @RHF iter   8:  -398.13560638402436   -2.69215e-08   6.76276e-07 DIIS
   @RHF iter   9:  -398.13560638455209   -5.27734e-10   1.30898e-07 DIIS
   @RHF iter  10:  -398.13560638457307   -2.09752e-11   1.68415e-08 DIIS
   @RHF iter  11:  -398.13560638457318   -1.13687e-13   4.26780e-09 DIIS

  ==> Post-Iterations <==

    Orbital Energies (a.u.)
    -----------------------

    Doubly Occupied:                                                      

       1A1   -91.668544     2A1    -8.667736     3A1    -6.350446  
       1B2    -6.347546     1B1    -6.347546     4A1    -0.646430  
       5A1    -0.255070     2B1    -0.094432     2B2    -0.094432  

    Virtual:                                                              

       6A1     0.177425     7A1     0.275679     3B1     0.297980  
       3B2     0.297980     8A1     0.365142     9A1     0.435427  
       4B2     0.542404     4B1     0.542404    10A1     0.629429  
       1A2     0.629429    11A1     0.674453     5B1     0.766072  
       5B2     0.766072    12A1     0.775385    13A1     1.090574  
       6B1     1.108809     6B2     1.108809    14A1     1.135128  
       7B2     1.356478     7B1     1.356478    15A1     1.365857  
       2A2     1.365857    16A1     1.484448    17A1     1.819986  
       8B2     2.117710     8B1     2.117710    18A1     2.630080  
      19A1     5.348152     3A2     5.348152     9B2     5.387258  
       9B1     5.387258    20A1     5.464653  

    Final Occupation by Irrep:
             A1    A2    B1    B2 
    DOCC [     5,    0,    2,    2 ]

  Energy converged.

  @RHF Final Energy:  -398.13560638457318

   => Energetics <=

    Nuclear Repulsion Energy =              6.3200371448294561
    One-Electron Energy =                -567.9669238348643603
    Two-Electron Energy =                 163.5112803054616677
    Total Energy =                       -398.1356063845731796



Properties will be evaluated at   0.000000,   0.000000,   0.000000 Bohr

Properties computed using the SCF density matrix

  Nuclear Dipole Moment: (a.u.)
     X:     0.0000      Y:     0.0000      Z:    -1.2165

  Electronic Dipole Moment: (a.u.)
     X:     0.0000      Y:     0.0000      Z:     1.0133

  Dipole Moment: (a.u.)
     X:     0.0000      Y:     0.0000      Z:    -0.2031     Total:     0.2031

  Dipole Moment: (Debye)
     X:     0.0000      Y:     0.0000      Z:    -0.5162     Total:     0.5162


*** tstop() called on cqc01 at Fri Apr 26 15:43:22 2019
Module time:
	user time   =       0.55 seconds =       0.01 minutes
	system time =       0.42 seconds =       0.01 minutes
	total time  =          1 seconds =       0.02 minutes
Total time:
	user time   =       0.55 seconds =       0.01 minutes
	system time =       0.42 seconds =       0.01 minutes
	total time  =          1 seconds =       0.02 minutes

*** tstart() called on cqc01
*** at Fri Apr 26 15:43:22 2019


	Wfn Parameters:
	--------------------
	Wavefunction         = CCSD
	Number of irreps     = 4
	Number of MOs        = 41
	Number of active MOs = 36
	AO-Basis             = NONE
	Semicanonical        = false
	Reference            = RHF
	Print Level          = 1

	IRREP	# MOs	# FZDC	# DOCC	# SOCC	# VIRT	# FZVR
	-----	-----	------	------	------	------	------
	 A1	   20	    3	    2	    0	    15	    0
	 A2	   3	    0	    0	    0	    3	    0
	 B1	   9	    1	    1	    0	    7	    0
	 B2	   9	    1	    1	    0	    7	    0
	Transforming integrals...
	IWL integrals will be deleted.
	(OO|OO)...
	Presorting SO-basis two-electron integrals.
	Sorting File: SO Ints (nn|nn) nbuckets = 1
	Transforming the one-electron integrals and constructing Fock matrices
	Starting first half-transformation.
	Sorting half-transformed integrals.
	First half integral transformation complete.
	Starting second half-transformation.
	Two-electron integral transformation complete.
	(OO|OV)...
	Starting second half-transformation.
	Two-electron integral transformation complete.
	(OO|VV)...
	Starting second half-transformation.
	Two-electron integral transformation complete.
	(OV|OO)...
	Starting first half-transformation.
	Sorting half-transformed integrals.
	First half integral transformation complete.
	Starting second half-transformation.
	Two-electron integral transformation complete.
	(OV|OV)...
	Starting second half-transformation.
	Two-electron integral transformation complete.
	(OV|VV)...
	Starting second half-transformation.
	Two-electron integral transformation complete.
	(VV|OO)...
	Starting first half-transformation.
	Sorting half-transformed integrals.
	First half integral transformation complete.
	Starting second half-transformation.
	Two-electron integral transformation complete.
	(VV|OV)...
	Starting second half-transformation.
	Two-electron integral transformation complete.
	(VV|VV)...
	Starting second half-transformation.
	Two-electron integral transformation complete.
	Frozen core energy     =   -391.49567383371971

	Size of irrep 0 of <ab|cd> integrals:      0.110 (MW) /      0.882 (MB)
	Size of irrep 1 of <ab|cd> integrals:      0.035 (MW) /      0.283 (MB)
	Size of irrep 2 of <ab|cd> integrals:      0.064 (MW) /      0.508 (MB)
	Size of irrep 3 of <ab|cd> integrals:      0.064 (MW) /      0.508 (MB)
	Total:                                     0.273 (MW) /      2.181 (MB)

	Size of irrep 0 of <ia|bc> integrals:      0.015 (MW) /      0.117 (MB)
	Size of irrep 1 of <ia|bc> integrals:      0.004 (MW) /      0.030 (MB)
	Size of irrep 2 of <ia|bc> integrals:      0.008 (MW) /      0.065 (MB)
	Size of irrep 3 of <ia|bc> integrals:      0.008 (MW) /      0.065 (MB)
	Total:                                     0.034 (MW) /      0.276 (MB)

	Size of irrep 0 of tijab amplitudes:       0.002 (MW) /      0.016 (MB)
	Size of irrep 1 of tijab amplitudes:       0.000 (MW) /      0.003 (MB)
	Size of irrep 2 of tijab amplitudes:       0.001 (MW) /      0.008 (MB)
	Size of irrep 3 of tijab amplitudes:       0.001 (MW) /      0.008 (MB)
	Total:                                     0.004 (MW) /      0.035 (MB)

	Nuclear Rep. energy          =      6.32003714482946
	SCF energy                   =   -398.13560638457318
	One-electron energy          =    -23.73920995740577
	Two-electron energy          =     10.77924026172293
	Reference energy             =   -398.13560638457307

*** tstop() called on cqc01 at Fri Apr 26 15:43:24 2019
Module time:
	user time   =       0.05 seconds =       0.00 minutes
	system time =       0.03 seconds =       0.00 minutes
	total time  =          2 seconds =       0.03 minutes
Total time:
	user time   =       0.60 seconds =       0.01 minutes
	system time =       0.45 seconds =       0.01 minutes
	total time  =          3 seconds =       0.05 minutes

*** tstart() called on cqc01
*** at Fri Apr 26 15:43:24 2019

            **************************
            *                        *
            *        CCENERGY        *
            *                        *
            **************************

    Nuclear Rep. energy (wfn)     =    6.320037144829456
    SCF energy          (wfn)     = -398.135606384573180
    Reference energy    (file100) = -398.135606384573066

    Input parameters:
    -----------------
    Wave function   =     CCSD
    Reference wfn   =     RHF
    Brueckner       =     No
    Memory (Mbytes) =     32000.0
    Maxiter         =     50
    R_Convergence   =     1.0e-07
    E_Convergence   =     1.0e-06
    Restart         =     Yes
    DIIS            =     Yes
    AO Basis        =     NONE
    ABCD            =     NEW
    Cache Level     =     2
    Cache Type      =     LOW
    Print Level     =     1
    Num. of threads =     1
    # Amps to Print =     10
    Print MP2 Amps? =     No
    Analyze T2 Amps =     No
    Print Pair Ener =     No
    Local CC        =     No
    SCS-MP2         =     False
    SCSN-MP2        =     False
    SCS-CCSD        =     False

MP2 correlation energy -0.1614460390636042
                Solving CC Amplitude Equations
                ------------------------------
  Iter             Energy              RMS        T1Diag      D1Diag    New D1Diag    D2Diag
  ----     ---------------------    ---------   ----------  ----------  ----------   --------
     0        -0.161446039063598    0.000e+00    0.000000    0.000000    0.000000    0.135931
     1        -0.197662358576559    1.908e-01    0.015857    0.025276    0.025276    0.173303
     2        -0.180039476335896    3.194e-02    0.011529    0.019343    0.019343    0.158513
     3        -0.179396371950792    5.696e-03    0.011789    0.019035    0.019035    0.157360
     4        -0.179328489440925    1.514e-03    0.011559    0.018721    0.018721    0.157134
     5        -0.179193032690783    4.394e-04    0.011507    0.018635    0.018635    0.156928
     6        -0.179189077952997    1.038e-04    0.011492    0.018613    0.018613    0.156901
     7        -0.179194755892353    3.004e-05    0.011486    0.018607    0.018607    0.156902
     8        -0.179193235912000    7.439e-06    0.011485    0.018605    0.018605    0.156900
     9        -0.179193243176702    2.040e-06    0.011484    0.018605    0.018605    0.156900
    10        -0.179193258716462    6.217e-07    0.011484    0.018605    0.018605    0.156900
    11        -0.179193258530917    2.221e-07    0.011484    0.018605    0.018605    0.156900
    12        -0.179193259691590    5.719e-08    0.011484    0.018605    0.018605    0.156900
    12        -0.179193259691590    5.719e-08    0.011484    0.018605    0.018605    0.156900

    Iterations converged.


    CCSD corr. energy   =   -0.179193259691590
    PPL corr. energy    =    0.045251333138019
    OS PPL corr. energy =    0.037165231880647
    SS PPL corr. energy =    0.008086101257374
    Largest TIA Amplitudes:
              3  25        -0.0144975452
              2  18        -0.0144975403
              1   5         0.0115613161
              3  26        -0.0101331436
              2  19        -0.0101331381
              1   1        -0.0086715996
              1  10        -0.0066957173
              1   3         0.0056871534
              1   8        -0.0047067605
              0   6         0.0039394006

    Largest TIjAb Amplitudes:
      1   1   3   3        -0.0808248045
      3   3  25  25        -0.0464491031
      2   2  18  18        -0.0464490999
      3   3   4   4        -0.0454909849
      3   3  15  15        -0.0454909848
      2   2  15  15        -0.0454909845
      2   2   4   4        -0.0454909844
      1   1   3   7        -0.0392634255
      1   1   7   3        -0.0392634255
      3   3  26  26        -0.0372626016

    SCF energy       (wfn)                    = -398.135606384573180
    Reference energy (file100)                = -398.135606384573066

    Opposite-spin MP2 correlation energy      =   -0.121811679775640
    Same-spin MP2 correlation energy          =   -0.039634359287958
    MP2 correlation energy                    =   -0.161446039063604
      * MP2 total energy                      = -398.297052423636671

    Opposite-spin CCSD correlation energy     =   -0.141643893194186
    Same-spin CCSD correlation energy         =   -0.037549367827534
    CCSD correlation energy                   =   -0.179193259691590
      * CCSD total energy                     = -398.314799644264667


*** tstop() called on cqc01 at Fri Apr 26 15:43:26 2019
Module time:
	user time   =       0.41 seconds =       0.01 minutes
	system time =       0.98 seconds =       0.02 minutes
	total time  =          2 seconds =       0.03 minutes
Total time:
	user time   =       1.01 seconds =       0.02 minutes
	system time =       1.43 seconds =       0.02 minutes
	total time  =          5 seconds =       0.08 minutes

*** Psi4 exiting successfully. Buy a developer a beer!
