
    -----------------------------------------------------------------------
          Psi4: An Open-Source Ab Initio Electronic Structure Package
                               Psi4 1.2a1.dev939 

                         Git: Rev {HEAD} fa1ec19 


    R. M. Parrish, L. A. Burns, D. G. A. Smith, A. C. Simmonett,
    A. E. DePrince III, E. G. Hohenstein, U. Bozkaya, A. Yu. Sokolov,
    R. Di Remigio, R. M. Richard, J. F. Gonthier, A. M. James,
    H. R. McAlexander, A. Kumar, M. Saitow, X. Wang, B. P. Pritchard,
    P. Verma, H. F. Schaefer III, K. Patkowski, R. A. King, E. F. Valeev,
    F. A. Evangelista, J. M. Turney, T. D. Crawford, and C. D. Sherrill,
    J. Chem. Theory Comput. 13(7) pp 3185--3197 (2017).
    (doi: 10.1021/acs.jctc.7b00174)

    -----------------------------------------------------------------------


    Psi4 started on: Sunday, 28 April 2019 04:37PM

    Process ID:   7360
    PSIDATADIR: /home/grueneis/src/psi4/objdir/stage/usr/local/psi4/share/psi4
    Memory:     500.0 MiB
    Threads:    1
    
  ==> Input File <==

--------------------------------------------------------------------------
# Any line starting with the # character is a comment line

memory 32000 mb

molecule molecule {
0 1
P          0.0000000000        0.0000000000        0.0676721068
H          1.1867955809        0.0000000000       -0.6931826617
H         -0.5933977905        1.0277951222       -0.6931826617
H         -0.5933977905       -1.0277951222       -0.6931826617
}

set {
  reference rhf
  basis aug-cc-pv(Q+d)z
  scf_type OUT_OF_CORE
  freeze_core true
}

energy('ccsd')
--------------------------------------------------------------------------

  Memory set to  29.802 GiB by Python driver.

*** tstart() called on cqc01
*** at Sun Apr 28 16:37:52 2019

   => Loading Basis Set <=

    Name: AUG-CC-PV(Q+D)Z
    Role: ORBITAL
    Keyword: BASIS
    atoms 1   entry P          line  1050 file /home/grueneis/src/psi4/objdir/stage/usr/local/psi4/share/psi4/basis/aug-cc-pv_qpd_z.gbs 
    atoms 2-4 entry H          line    56 file /home/grueneis/src/psi4/objdir/stage/usr/local/psi4/share/psi4/basis/aug-cc-pv_qpd_z.gbs 


         ---------------------------------------------------------
                                   SCF
            by Justin Turney, Rob Parrish, Andy Simmonett
                             and Daniel Smith
                              RHF Reference
                        1 Threads,  30517 MiB Core
         ---------------------------------------------------------

  ==> Geometry <==

    Molecular point group: cs
    Full point group: C3v

    Geometry (in Angstrom), charge = 0, multiplicity = 1:

       Center              X                  Y                   Z               Mass       
    ------------   -----------------  -----------------  -----------------  -----------------
           P         -0.000000000001    -0.067665071223     0.000000000000    30.973761629000
           H         -0.593397790457     0.693189697277     1.027795122191     1.007825032070
           H         -0.593397790457     0.693189697277    -1.027795122191     1.007825032070
           H          1.186795580959     0.693189697277     0.000000000000     1.007825032070

  Running in cs symmetry.

  Rotational constants: A =      4.52689  B =      4.52689  C =      3.95857 [cm^-1]
  Rotational constants: A = 135712.69348  B = 135712.69348  C = 118674.92316 [MHz]
  Nuclear repulsion =   17.663977097331589

  Charge       = 0
  Multiplicity = 1
  Electrons    = 18
  Nalpha       = 9
  Nbeta        = 9

  ==> Algorithm <==

  SCF Algorithm Type is OUT_OF_CORE.
  DIIS enabled.
  MOM disabled.
  Fractional occupation disabled.
  Guess Type is SAD.
  Energy threshold   = 1.00e-08
  Density threshold  = 1.00e-08
  Integral threshold = 0.00e+00

  ==> Primary Basis <==

  Basis Set: AUG-CC-PV(Q+D)Z
    Blend: AUG-CC-PV(Q+D)Z
    Number of shells: 65
    Number of basis function: 227
    Number of Cartesian functions: 280
    Spherical Harmonics?: true
    Max angular momentum: 4

  ==> Pre-Iterations <==

   -------------------------------------------------------
    Irrep   Nso     Nmo     Nalpha   Nbeta   Ndocc  Nsocc
   -------------------------------------------------------
     A'       132     132       0       0       0       0
     A"        95      95       0       0       0       0
   -------------------------------------------------------
    Total     227     227       9       9       9       0
   -------------------------------------------------------

  ==> Integral Setup <==

  ==> DiskJK: Disk-Based J/K Matrices <==

    J tasked:                  Yes
    K tasked:                  Yes
    wK tasked:                  No
    Memory (MB):             22888
    Schwarz Cutoff:          1E-12

  Minimum eigenvalue in the overlap matrix is 3.8210251231E-05.
  Using Symmetric Orthogonalization.

  SCF Guess: Superposition of Atomic Densities via on-the-fly atomic UHF.

  ==> Iterations <==

                        Total Energy        Delta E     RMS |[F,P]|

   @RHF iter   0:  -342.36492587978012   -3.42365e+02   1.01785e-02 
   @RHF iter   1:  -342.47642180086359   -1.11496e-01   8.31253e-04 
   @RHF iter   2:  -342.49171097980366   -1.52892e-02   2.60112e-04 DIIS
   @RHF iter   3:  -342.49361972960804   -1.90875e-03   8.98894e-05 DIIS
   @RHF iter   4:  -342.49398609182373   -3.66362e-04   1.77993e-05 DIIS
   @RHF iter   5:  -342.49400241499472   -1.63232e-05   2.99043e-06 DIIS
   @RHF iter   6:  -342.49400281116795   -3.96173e-07   7.13749e-07 DIIS
   @RHF iter   7:  -342.49400282775156   -1.65836e-08   1.35705e-07 DIIS
   @RHF iter   8:  -342.49400282852116   -7.69603e-10   2.60584e-08 DIIS
   @RHF iter   9:  -342.49400282854839   -2.72280e-11   3.15593e-09 DIIS

  ==> Post-Iterations <==

    Orbital Energies (a.u.)
    -----------------------

    Doubly Occupied:                                                      

       1Ap   -79.941141     2Ap    -7.485018     3Ap    -5.378812  
       1App   -5.378812     4Ap    -5.377821     5Ap    -0.856391  
       2App   -0.523551     6Ap    -0.523551     7Ap    -0.387679  

    Virtual:                                                              

       8Ap     0.025754     3App    0.047698     9Ap     0.047698  
      10Ap     0.066567    11Ap     0.077860     4App    0.077860  
      12Ap     0.117691     5App    0.143563    13Ap     0.143563  
      14Ap     0.147395    15Ap     0.153114     6App    0.153114  
       7App    0.207163    16Ap     0.207163    17Ap     0.237797  
      18Ap     0.238089     8App    0.238089    19Ap     0.253803  
       9App    0.259662    20Ap     0.259662    10App    0.264073  
      11App    0.310488    21Ap     0.310488    22Ap     0.312934  
      23Ap     0.381667    24Ap     0.400280    12App    0.400280  
      25Ap     0.409172    13App    0.458843    26Ap     0.458843  
      27Ap     0.475062    28Ap     0.507940    14App    0.515278  
      29Ap     0.515278    15App    0.515329    16App    0.541089  
      30Ap     0.541089    17App    0.559216    31Ap     0.559216  
      32Ap     0.659412    18App    0.669137    33Ap     0.681840  
      19App    0.681840    34Ap     0.685753    20App    0.722281  
      35Ap     0.722281    36Ap     0.752781    21App    0.781566  
      37Ap     0.781566    38Ap     0.811774    22App    0.828714  
      39Ap     0.828714    40Ap     0.896885    23App    0.896885  
      41Ap     0.909744    24App    0.931326    25App    0.949426  
      42Ap     0.949426    43Ap     1.072016    26App    1.072016  
      44Ap     1.132993    27App    1.148075    45Ap     1.148075  
      28App    1.167570    46Ap     1.167570    29App    1.175439  
      47Ap     1.196199    30App    1.239996    48Ap     1.239996  
      49Ap     1.303155    50Ap     1.373469    31App    1.408167  
      51Ap     1.408167    32App    1.417140    52Ap     1.425246  
      33App    1.425246    53Ap     1.443059    34App    1.472479  
      54Ap     1.472479    55Ap     1.517244    56Ap     1.599793  
      35App    1.632044    57Ap     1.632044    36App    1.663712  
      58Ap     1.663712    59Ap     1.712732    60Ap     1.760902  
      37App    1.760902    38App    1.785864    61Ap     1.792778  
      62Ap     1.837659    39App    1.837659    63Ap     1.866246  
      40App    1.866246    41App    1.956254    64Ap     1.956254  
      42App    1.989310    65Ap     2.018996    43App    2.027912  
      66Ap     2.053354    67Ap     2.055363    44App    2.055363  
      45App    2.109192    68Ap     2.109192    69Ap     2.209029  
      70Ap     2.223588    46App    2.223588    71Ap     2.240657  
      47App    2.240657    48App    2.302830    72Ap     2.307661  
      49App    2.307661    73Ap     2.433581    74Ap     2.480575  
      50App    2.480575    51App    2.604347    75Ap     2.604347  
      76Ap     2.632143    52App    2.731963    77Ap     2.732712  
      53App    2.732712    54App    2.814459    78Ap     2.814459  
      79Ap     2.857883    80Ap     3.034594    55App    3.034594  
      81Ap     3.049893    82Ap     3.131302    56App    3.131302  
      83Ap     3.165926    84Ap     3.203938    85Ap     3.247370  
      57App    3.247370    58App    3.267871    86Ap     3.324609  
      59App    3.324609    87Ap     3.352179    60App    3.404742  
      88Ap     3.438297    61App    3.438297    89Ap     3.455674  
      90Ap     3.589308    62App    3.589308    91Ap     3.665862  
      63App    3.665862    64App    3.723083    92Ap     3.735191  
      65App    3.810521    93Ap     3.810521    94Ap     3.928566  
      95Ap     4.044999    66App    4.044999    96Ap     4.279558  
      67App    4.279558    97Ap     4.284879    98Ap     4.418966  
      68App    4.418966    69App    4.541727    99Ap     4.567454  
     100Ap     4.611966    70App    4.611966    71App    6.627714  
     101Ap     6.627714    72App    6.658435    73App    6.681686  
     102Ap     6.681686    74App    6.692372   103Ap     6.697496  
      75App    6.757704   104Ap     6.757704   105Ap     6.773355  
     106Ap     6.934978    76App    6.934978   107Ap     6.970508  
      77App    6.970508   108Ap     7.092347   109Ap     7.247951  
      78App    7.247951   110Ap     7.335806    79App    7.432222  
     111Ap     7.432222   112Ap     7.465134    80App    7.562518  
      81App    7.690775   113Ap     7.690775   114Ap     8.058272  
      82App    8.103406   115Ap     8.103406   116Ap     8.317718  
      83App    8.359188   117Ap     8.359188    84App    8.555274  
     118Ap     8.585994    85App    8.585994   119Ap     8.596653  
      86App    8.596653    87App    8.711228   120Ap     8.711228  
     121Ap     8.752205   122Ap     8.889399    88App    8.889399  
     123Ap     9.033842    89App    9.033842    90App    9.052570  
     124Ap     9.080994   125Ap     9.417956   126Ap     9.440960  
      91App    9.440960    92App    9.447007    93App    9.738470  
     127Ap     9.738470   128Ap     9.804646   129Ap     9.851056  
      94App    9.851056   130Ap    10.327784   131Ap    11.599128  
      95App   11.599128   132Ap    18.760271  

    Final Occupation by Irrep:
             Ap   App 
    DOCC [     7,    2 ]

  Energy converged.

  @RHF Final Energy:  -342.49400282854839

   => Energetics <=

    Nuclear Repulsion Energy =             17.6639770973315891
    One-Electron Energy =                -508.6104101249232485
    Two-Electron Energy =                 148.4524301990432207
    Total Energy =                       -342.4940028285484459



Properties will be evaluated at   0.000000,   0.000000,   0.000000 Bohr

Properties computed using the SCF density matrix

  Nuclear Dipole Moment: (a.u.)
     X:     0.0000      Y:     2.0118      Z:     0.0000

  Electronic Dipole Moment: (a.u.)
     X:    -0.0000      Y:    -1.7426      Z:     0.0000

  Dipole Moment: (a.u.)
     X:    -0.0000      Y:     0.2692      Z:     0.0000     Total:     0.2692

  Dipole Moment: (Debye)
     X:    -0.0000      Y:     0.6842      Z:     0.0000     Total:     0.6842


*** tstop() called on cqc01 at Sun Apr 28 16:39:29 2019
Module time:
	user time   =      46.29 seconds =       0.77 minutes
	system time =       7.79 seconds =       0.13 minutes
	total time  =         97 seconds =       1.62 minutes
Total time:
	user time   =      46.29 seconds =       0.77 minutes
	system time =       7.79 seconds =       0.13 minutes
	total time  =         97 seconds =       1.62 minutes

*** tstart() called on cqc01
*** at Sun Apr 28 16:39:29 2019


	Wfn Parameters:
	--------------------
	Wavefunction         = CCSD
	Number of irreps     = 2
	Number of MOs        = 227
	Number of active MOs = 222
	AO-Basis             = NONE
	Semicanonical        = false
	Reference            = RHF
	Print Level          = 1

	IRREP	# MOs	# FZDC	# DOCC	# SOCC	# VIRT	# FZVR
	-----	-----	------	------	------	------	------
	 Ap	   132	    4	    3	    0	    125	    0
	 App	   95	    1	    1	    0	    93	    0
	Transforming integrals...
	IWL integrals will be deleted.
	(OO|OO)...
	Presorting SO-basis two-electron integrals.
	Sorting File: SO Ints (nn|nn) nbuckets = 1
	Transforming the one-electron integrals and constructing Fock matrices
	Starting first half-transformation.
	Sorting half-transformed integrals.
	First half integral transformation complete.
	Starting second half-transformation.
	Two-electron integral transformation complete.
	(OO|OV)...
	Starting second half-transformation.
	Two-electron integral transformation complete.
	(OO|VV)...
	Starting second half-transformation.
	Two-electron integral transformation complete.
	(OV|OO)...
	Starting first half-transformation.
	Sorting half-transformed integrals.
	First half integral transformation complete.
	Starting second half-transformation.
	Two-electron integral transformation complete.
	(OV|OV)...
	Starting second half-transformation.
	Two-electron integral transformation complete.
	(OV|VV)...
	Starting second half-transformation.
	Two-electron integral transformation complete.
	(VV|OO)...
	Starting first half-transformation.
	Sorting half-transformed integrals.
	First half integral transformation complete.
	Starting second half-transformation.
	Two-electron integral transformation complete.
	(VV|OV)...
	Starting second half-transformation.
	Two-electron integral transformation complete.
	(VV|VV)...
	Starting second half-transformation.
	Two-electron integral transformation complete.
	Frozen core energy     =   -345.62380001615452

	Size of irrep 0 of <ab|cd> integrals:    589.227 (MW) /   4713.817 (MB)
	Size of irrep 1 of <ab|cd> integrals:    540.562 (MW) /   4324.500 (MB)
	Total:                                  1129.790 (MW) /   9038.317 (MB)

	Size of irrep 0 of <ia|bc> integrals:     11.360 (MW) /     90.882 (MB)
	Size of irrep 1 of <ia|bc> integrals:      9.393 (MW) /     75.144 (MB)
	Total:                                    20.753 (MW) /    166.026 (MB)

	Size of irrep 0 of tijab amplitudes:       0.243 (MW) /      1.942 (MB)
	Size of irrep 1 of tijab amplitudes:       0.140 (MW) /      1.116 (MB)
	Total:                                     0.382 (MW) /      3.058 (MB)

	Nuclear Rep. energy          =     17.66397709733159
	SCF energy                   =   -342.49400282854839
	One-electron energy          =    -24.48601509812215
	Two-electron energy          =      9.95183518839620
	Reference energy             =   -342.49400282854890

*** tstop() called on cqc01 at Sun Apr 28 16:48:12 2019
Module time:
	user time   =     124.02 seconds =       2.07 minutes
	system time =      68.29 seconds =       1.14 minutes
	total time  =        523 seconds =       8.72 minutes
Total time:
	user time   =     170.31 seconds =       2.84 minutes
	system time =      76.08 seconds =       1.27 minutes
	total time  =        620 seconds =      10.33 minutes

*** tstart() called on cqc01
*** at Sun Apr 28 16:48:12 2019

            **************************
            *                        *
            *        CCENERGY        *
            *                        *
            **************************

    Nuclear Rep. energy (wfn)     =   17.663977097331589
    SCF energy          (wfn)     = -342.494002828548389
    Reference energy    (file100) = -342.494002828548901

    Input parameters:
    -----------------
    Wave function   =     CCSD
    Reference wfn   =     RHF
    Brueckner       =     No
    Memory (Mbytes) =     32000.0
    Maxiter         =     50
    R_Convergence   =     1.0e-07
    E_Convergence   =     1.0e-06
    Restart         =     Yes
    DIIS            =     Yes
    AO Basis        =     NONE
    ABCD            =     NEW
    Cache Level     =     2
    Cache Type      =     LOW
    Print Level     =     1
    Num. of threads =     1
    # Amps to Print =     10
    Print MP2 Amps? =     No
    Analyze T2 Amps =     No
    Print Pair Ener =     No
    Local CC        =     No
    SCS-MP2         =     False
    SCSN-MP2        =     False
    SCS-CCSD        =     False

MP2 correlation energy -0.1836621187729974
                Solving CC Amplitude Equations
                ------------------------------
  Iter             Energy              RMS        T1Diag      D1Diag    New D1Diag    D2Diag
  ----     ---------------------    ---------   ----------  ----------  ----------   --------
     0        -0.183662118772949    0.000e+00    0.000000    0.000000    0.000000    0.140732
     1        -0.226127671370302    1.833e-01    0.016721    0.025687    0.025687    0.193508
     2        -0.211847429600214    2.971e-02    0.013422    0.020996    0.020996    0.179574
     3        -0.209365987884039    6.069e-03    0.013730    0.021618    0.021618    0.176560
     4        -0.209178712375679    1.474e-03    0.013706    0.021588    0.021588    0.176081
     5        -0.209102409189843    4.416e-04    0.013750    0.021681    0.021681    0.175867
     6        -0.209099870984311    1.310e-04    0.013781    0.021740    0.021740    0.175825
     7        -0.209106677170367    4.626e-05    0.013792    0.021762    0.021762    0.175826
     8        -0.209107073354600    1.614e-05    0.013797    0.021772    0.021772    0.175827
     9        -0.209107005051335    4.403e-06    0.013798    0.021773    0.021773    0.175828
    10        -0.209107098647246    1.297e-06    0.013798    0.021773    0.021773    0.175829
    11        -0.209107119059073    3.864e-07    0.013798    0.021773    0.021773    0.175829
    12        -0.209107116406627    1.274e-07    0.013798    0.021773    0.021773    0.175829
    13        -0.209107113949320    4.494e-08    0.013798    0.021773    0.021773    0.175829
    13        -0.209107113949320    4.494e-08    0.013798    0.021773    0.021773    0.175829

    Iterations converged.


    CCSD corr. energy   =   -0.209107113949320
    PPL corr. energy    =    0.065092691023947
    OS PPL corr. energy =    0.058458074093396
    SS PPL corr. energy =    0.006634616930553
    Largest TIA Amplitudes:
              1   7        -0.0149453757
              3 128        -0.0149453756
              2   6         0.0120606939
              2  15        -0.0106135933
              2  14        -0.0085649757
              1   3        -0.0075450162
              3 126        -0.0075450162
              1   8        -0.0074647258
              3 129        -0.0074647258
              1  16         0.0073082792

    Largest TIjAb Amplitudes:
      2   2   7   7        -0.0335766306
      2   2 128 128        -0.0335766306
      1   1   7   7        -0.0287993108
      3   3 128 128        -0.0287993108
      2   2   7  13        -0.0249333008
      2   2  13   7        -0.0249333008
      2   2 128 133        -0.0249333008
      2   2 133 128        -0.0249333008
      2   2  19  19        -0.0227105676
      2   2  13  13        -0.0210406819

    SCF energy       (wfn)                    = -342.494002828548389
    Reference energy (file100)                = -342.494002828548901

    Opposite-spin MP2 correlation energy      =   -0.154815674047223
    Same-spin MP2 correlation energy          =   -0.028846444725727
    MP2 correlation energy                    =   -0.183662118772997
      * MP2 total energy                      = -342.677664947321887

    Opposite-spin CCSD correlation energy     =   -0.179243294893324
    Same-spin CCSD correlation energy         =   -0.029863818606550
    CCSD correlation energy                   =   -0.209107113949320
      * CCSD total energy                     = -342.703109942498202


*** tstop() called on cqc01 at Sun Apr 28 16:50:26 2019
Module time:
	user time   =      25.63 seconds =       0.43 minutes
	system time =      38.96 seconds =       0.65 minutes
	total time  =        134 seconds =       2.23 minutes
Total time:
	user time   =     195.94 seconds =       3.27 minutes
	system time =     115.04 seconds =       1.92 minutes
	total time  =        754 seconds =      12.57 minutes

*** Psi4 exiting successfully. Buy a developer a beer!
