
    -----------------------------------------------------------------------
          Psi4: An Open-Source Ab Initio Electronic Structure Package
                               Psi4 1.2a1.dev939 

                         Git: Rev {HEAD} fa1ec19 


    R. M. Parrish, L. A. Burns, D. G. A. Smith, A. C. Simmonett,
    A. E. DePrince III, E. G. Hohenstein, U. Bozkaya, A. Yu. Sokolov,
    R. Di Remigio, R. M. Richard, J. F. Gonthier, A. M. James,
    H. R. McAlexander, A. Kumar, M. Saitow, X. Wang, B. P. Pritchard,
    P. Verma, H. F. Schaefer III, K. Patkowski, R. A. King, E. F. Valeev,
    F. A. Evangelista, J. M. Turney, T. D. Crawford, and C. D. Sherrill,
    J. Chem. Theory Comput. 13(7) pp 3185--3197 (2017).
    (doi: 10.1021/acs.jctc.7b00174)

    -----------------------------------------------------------------------


    Psi4 started on: Friday, 26 April 2019 07:07PM

    Process ID:  16256
    PSIDATADIR: /home/grueneis/src/psi4/objdir/stage/usr/local/psi4/share/psi4
    Memory:     500.0 MiB
    Threads:    1
    
  ==> Input File <==

--------------------------------------------------------------------------
# Any line starting with the # character is a comment line

memory 32000 mb

molecule molecule {
0 1
P          0.0000000000        0.0000000000        0.0676721068
H          1.1867955809        0.0000000000       -0.6931826617
H         -0.5933977905        1.0277951222       -0.6931826617
H         -0.5933977905       -1.0277951222       -0.6931826617
}

set {
  reference rhf
  basis aug-cc-pv(T+d)z
  scf_type OUT_OF_CORE
  freeze_core true
}

energy('ccsd')
--------------------------------------------------------------------------

  Memory set to  29.802 GiB by Python driver.

*** tstart() called on cqc01
*** at Fri Apr 26 19:07:35 2019

   => Loading Basis Set <=

    Name: AUG-CC-PV(T+D)Z
    Role: ORBITAL
    Keyword: BASIS
    atoms 1   entry P          line   844 file /home/grueneis/src/psi4/objdir/stage/usr/local/psi4/share/psi4/basis/aug-cc-pv_tpd_z.gbs 
    atoms 2-4 entry H          line    56 file /home/grueneis/src/psi4/objdir/stage/usr/local/psi4/share/psi4/basis/aug-cc-pv_tpd_z.gbs 


         ---------------------------------------------------------
                                   SCF
            by Justin Turney, Rob Parrish, Andy Simmonett
                             and Daniel Smith
                              RHF Reference
                        1 Threads,  30517 MiB Core
         ---------------------------------------------------------

  ==> Geometry <==

    Molecular point group: cs
    Full point group: C3v

    Geometry (in Angstrom), charge = 0, multiplicity = 1:

       Center              X                  Y                   Z               Mass       
    ------------   -----------------  -----------------  -----------------  -----------------
           P         -0.000000000001    -0.067665071223     0.000000000000    30.973761629000
           H         -0.593397790457     0.693189697277     1.027795122191     1.007825032070
           H         -0.593397790457     0.693189697277    -1.027795122191     1.007825032070
           H          1.186795580959     0.693189697277     0.000000000000     1.007825032070

  Running in cs symmetry.

  Rotational constants: A =      4.52689  B =      4.52689  C =      3.95857 [cm^-1]
  Rotational constants: A = 135712.69348  B = 135712.69348  C = 118674.92316 [MHz]
  Nuclear repulsion =   17.663977097331589

  Charge       = 0
  Multiplicity = 1
  Electrons    = 18
  Nalpha       = 9
  Nbeta        = 9

  ==> Algorithm <==

  SCF Algorithm Type is OUT_OF_CORE.
  DIIS enabled.
  MOM disabled.
  Fractional occupation disabled.
  Guess Type is SAD.
  Energy threshold   = 1.00e-08
  Density threshold  = 1.00e-08
  Integral threshold = 0.00e+00

  ==> Primary Basis <==

  Basis Set: AUG-CC-PV(T+D)Z
    Blend: AUG-CC-PV(T+D)Z
    Number of shells: 44
    Number of basis function: 124
    Number of Cartesian functions: 140
    Spherical Harmonics?: true
    Max angular momentum: 3

  ==> Pre-Iterations <==

   -------------------------------------------------------
    Irrep   Nso     Nmo     Nalpha   Nbeta   Ndocc  Nsocc
   -------------------------------------------------------
     A'        75      75       0       0       0       0
     A"        49      49       0       0       0       0
   -------------------------------------------------------
    Total     124     124       9       9       9       0
   -------------------------------------------------------

  ==> Integral Setup <==

  ==> DiskJK: Disk-Based J/K Matrices <==

    J tasked:                  Yes
    K tasked:                  Yes
    wK tasked:                  No
    Memory (MB):             22888
    Schwarz Cutoff:          1E-12

  Minimum eigenvalue in the overlap matrix is 1.8873860047E-04.
  Using Symmetric Orthogonalization.

  SCF Guess: Superposition of Atomic Densities via on-the-fly atomic UHF.

  ==> Iterations <==

                        Total Energy        Delta E     RMS |[F,P]|

   @RHF iter   0:  -342.36146515294439   -3.42361e+02   1.83261e-02 
   @RHF iter   1:  -342.47287486847370   -1.11410e-01   1.55172e-03 
   @RHF iter   2:  -342.48830365942513   -1.54288e-02   4.83340e-04 DIIS
   @RHF iter   3:  -342.49018611146806   -1.88245e-03   1.66361e-04 DIIS
   @RHF iter   4:  -342.49057450892172   -3.88397e-04   3.19076e-05 DIIS
   @RHF iter   5:  -342.49059035982765   -1.58509e-05   5.43100e-06 DIIS
   @RHF iter   6:  -342.49059073672947   -3.76902e-07   1.39353e-06 DIIS
   @RHF iter   7:  -342.49059075585780   -1.91283e-08   2.39810e-07 DIIS
   @RHF iter   8:  -342.49059075661285   -7.55051e-10   4.61566e-08 DIIS
   @RHF iter   9:  -342.49059075663831   -2.54659e-11   5.65930e-09 DIIS

  ==> Post-Iterations <==

    Orbital Energies (a.u.)
    -----------------------

    Doubly Occupied:                                                      

       1Ap   -79.942710     2Ap    -7.485791     3Ap    -5.379294  
       1App   -5.379294     4Ap    -5.378382     5Ap    -0.856541  
       2App   -0.523444     6Ap    -0.523444     7Ap    -0.387646  

    Virtual:                                                              

       8Ap     0.029342     3App    0.053617     9Ap     0.053617  
      10Ap     0.081921    11Ap     0.090418     4App    0.090418  
      12Ap     0.138171    13Ap     0.168658     5App    0.168658  
       6App    0.199384    14Ap     0.199384    15Ap     0.201234  
       7App    0.274215    16Ap     0.274215    17Ap     0.292708  
      18Ap     0.308520     8App    0.308520    19Ap     0.325157  
       9App    0.327118    20Ap     0.327118    10App    0.332732  
      21Ap     0.380887    11App    0.380887    22Ap     0.385586  
      12App    0.557521    23Ap     0.557521    24Ap     0.559600  
      13App    0.600162    25Ap     0.600162    26Ap     0.629763  
      27Ap     0.659701    28Ap     0.668069    29Ap     0.730532  
      14App    0.730532    15App    0.749536    30Ap     0.765006  
      16App    0.765006    17App    0.783008    31Ap     0.783008  
      32Ap     0.864973    18App    0.934696    33Ap     0.934696  
      34Ap     0.969409    19App    0.976803    20App    1.005670  
      35Ap     1.005670    36Ap     1.029127    21App    1.029127  
      37Ap     1.037516    22App    1.145369    38Ap     1.145369  
      39Ap     1.169055    23App    1.200416    40Ap     1.200416  
      41Ap     1.241348    24App    1.241348    25App    1.276465  
      42Ap     1.466792    26App    1.507972    43Ap     1.507972  
      27App    1.514735    28App    1.605120    44Ap     1.605120  
      45Ap     1.609014    46Ap     1.652649    29App    1.652649  
      47Ap     1.771450    30App    1.772135    48Ap     1.772135  
      49Ap     1.887764    50Ap     2.009053    51Ap     2.133289  
      31App    2.133289    32App    2.177174    52Ap     2.267772  
      33App    2.267772    53Ap     2.319403    34App    2.401210  
      54Ap     2.401210    55Ap     2.701691    56Ap     2.925067  
      35App    2.925067    57Ap     3.457958    36App    3.580149  
      58Ap     3.580149    37App    3.903164    59Ap     3.903164  
      38App    3.922410    60Ap     3.984907    39App    3.984907  
      61Ap     4.125822    62Ap     4.135833    40App    4.135833  
      41App    4.208839    63Ap     4.284109    64Ap     4.415645  
      42App    4.415645    65Ap     4.464661    43App    4.504326  
      66Ap     4.504326    44App    4.550413    67Ap     4.649366  
      45App    4.649366    68Ap     4.660434    69Ap     4.759074  
      46App    4.759074    70Ap     4.870534    71Ap     5.221621  
      47App    5.221621    72Ap     6.423312    48App    6.439877  
      73Ap     6.439877    74Ap     7.500013    49App    7.500013  
      75Ap     8.577684  

    Final Occupation by Irrep:
             Ap   App 
    DOCC [     7,    2 ]

  Energy converged.

  @RHF Final Energy:  -342.49059075663831

   => Energetics <=

    Nuclear Repulsion Energy =             17.6639770973315891
    One-Electron Energy =                -508.5960444757433265
    Two-Electron Energy =                 148.4414766217733757
    Total Energy =                       -342.4905907566383121



Properties will be evaluated at   0.000000,   0.000000,   0.000000 Bohr

Properties computed using the SCF density matrix

  Nuclear Dipole Moment: (a.u.)
     X:     0.0000      Y:     2.0118      Z:     0.0000

  Electronic Dipole Moment: (a.u.)
     X:    -0.0000      Y:    -1.7412      Z:     0.0000

  Dipole Moment: (a.u.)
     X:    -0.0000      Y:     0.2706      Z:     0.0000     Total:     0.2706

  Dipole Moment: (Debye)
     X:    -0.0000      Y:     0.6877      Z:     0.0000     Total:     0.6877


*** tstop() called on cqc01 at Fri Apr 26 19:07:46 2019
Module time:
	user time   =       5.41 seconds =       0.09 minutes
	system time =       2.09 seconds =       0.03 minutes
	total time  =         11 seconds =       0.18 minutes
Total time:
	user time   =       5.41 seconds =       0.09 minutes
	system time =       2.09 seconds =       0.03 minutes
	total time  =         11 seconds =       0.18 minutes

*** tstart() called on cqc01
*** at Fri Apr 26 19:07:46 2019


	Wfn Parameters:
	--------------------
	Wavefunction         = CCSD
	Number of irreps     = 2
	Number of MOs        = 124
	Number of active MOs = 119
	AO-Basis             = NONE
	Semicanonical        = false
	Reference            = RHF
	Print Level          = 1

	IRREP	# MOs	# FZDC	# DOCC	# SOCC	# VIRT	# FZVR
	-----	-----	------	------	------	------	------
	 Ap	   75	    4	    3	    0	    68	    0
	 App	   49	    1	    1	    0	    47	    0
	Transforming integrals...
	IWL integrals will be deleted.
	(OO|OO)...
	Presorting SO-basis two-electron integrals.
	Sorting File: SO Ints (nn|nn) nbuckets = 1
	Transforming the one-electron integrals and constructing Fock matrices
	Starting first half-transformation.
	Sorting half-transformed integrals.
	First half integral transformation complete.
	Starting second half-transformation.
	Two-electron integral transformation complete.
	(OO|OV)...
	Starting second half-transformation.
	Two-electron integral transformation complete.
	(OO|VV)...
	Starting second half-transformation.
	Two-electron integral transformation complete.
	(OV|OO)...
	Starting first half-transformation.
	Sorting half-transformed integrals.
	First half integral transformation complete.
	Starting second half-transformation.
	Two-electron integral transformation complete.
	(OV|OV)...
	Starting second half-transformation.
	Two-electron integral transformation complete.
	(OV|VV)...
	Starting second half-transformation.
	Two-electron integral transformation complete.
	(VV|OO)...
	Starting first half-transformation.
	Sorting half-transformed integrals.
	First half integral transformation complete.
	Starting second half-transformation.
	Two-electron integral transformation complete.
	(VV|OV)...
	Starting second half-transformation.
	Two-electron integral transformation complete.
	(VV|VV)...
	Starting second half-transformation.
	Two-electron integral transformation complete.
	Frozen core energy     =   -345.62190405618838

	Size of irrep 0 of <ab|cd> integrals:     46.690 (MW) /    373.519 (MB)
	Size of irrep 1 of <ab|cd> integrals:     40.858 (MW) /    326.861 (MB)
	Total:                                    87.548 (MW) /    700.380 (MB)

	Size of irrep 0 of <ia|bc> integrals:      1.715 (MW) /     13.721 (MB)
	Size of irrep 1 of <ia|bc> integrals:      1.336 (MW) /     10.687 (MB)
	Total:                                     3.051 (MW) /     24.408 (MB)

	Size of irrep 0 of tijab amplitudes:       0.068 (MW) /      0.547 (MB)
	Size of irrep 1 of tijab amplitudes:       0.038 (MW) /      0.307 (MB)
	Total:                                     0.107 (MW) /      0.853 (MB)

	Nuclear Rep. energy          =     17.66397709733159
	SCF energy                   =   -342.49059075663831
	One-electron energy          =    -24.48317885974799
	Two-electron energy          =      9.95051506196456
	Reference energy             =   -342.49059075664024

*** tstop() called on cqc01 at Fri Apr 26 19:08:31 2019
Module time:
	user time   =       7.84 seconds =       0.13 minutes
	system time =       8.38 seconds =       0.14 minutes
	total time  =         45 seconds =       0.75 minutes
Total time:
	user time   =      13.25 seconds =       0.22 minutes
	system time =      10.47 seconds =       0.17 minutes
	total time  =         56 seconds =       0.93 minutes

*** tstart() called on cqc01
*** at Fri Apr 26 19:08:31 2019

            **************************
            *                        *
            *        CCENERGY        *
            *                        *
            **************************

    Nuclear Rep. energy (wfn)     =   17.663977097331589
    SCF energy          (wfn)     = -342.490590756638312
    Reference energy    (file100) = -342.490590756640245

    Input parameters:
    -----------------
    Wave function   =     CCSD
    Reference wfn   =     RHF
    Brueckner       =     No
    Memory (Mbytes) =     32000.0
    Maxiter         =     50
    R_Convergence   =     1.0e-07
    E_Convergence   =     1.0e-06
    Restart         =     Yes
    DIIS            =     Yes
    AO Basis        =     NONE
    ABCD            =     NEW
    Cache Level     =     2
    Cache Type      =     LOW
    Print Level     =     1
    Num. of threads =     1
    # Amps to Print =     10
    Print MP2 Amps? =     No
    Analyze T2 Amps =     No
    Print Pair Ener =     No
    Local CC        =     No
    SCS-MP2         =     False
    SCSN-MP2        =     False
    SCS-CCSD        =     False

MP2 correlation energy -0.1732134203604571
                Solving CC Amplitude Equations
                ------------------------------
  Iter             Energy              RMS        T1Diag      D1Diag    New D1Diag    D2Diag
  ----     ---------------------    ---------   ----------  ----------  ----------   --------
     0        -0.173213420360412    0.000e+00    0.000000    0.000000    0.000000    0.139399
     1        -0.220651836769341    1.734e-01    0.015988    0.024827    0.024827    0.196074
     2        -0.203317487252881    3.051e-02    0.013159    0.020942    0.020942    0.179876
     3        -0.201504447170112    5.335e-03    0.013425    0.021337    0.021337    0.177429
     4        -0.201327879838791    1.368e-03    0.013420    0.021374    0.021374    0.176960
     5        -0.201235530089600    4.127e-04    0.013466    0.021439    0.021439    0.176750
     6        -0.201241761798937    1.229e-04    0.013496    0.021480    0.021480    0.176724
     7        -0.201249082625090    4.402e-05    0.013507    0.021497    0.021497    0.176728
     8        -0.201248261029956    1.505e-05    0.013512    0.021504    0.021504    0.176729
     9        -0.201248598673496    3.863e-06    0.013512    0.021506    0.021506    0.176730
    10        -0.201248687570763    1.122e-06    0.013512    0.021506    0.021506    0.176731
    11        -0.201248692090018    3.375e-07    0.013512    0.021506    0.021506    0.176731
    12        -0.201248688595502    1.140e-07    0.013512    0.021506    0.021506    0.176731
    13        -0.201248686613863    3.405e-08    0.013512    0.021506    0.021506    0.176731
    13        -0.201248686613863    3.405e-08    0.013512    0.021506    0.021506    0.176731

    Iterations converged.


    CCSD corr. energy   =   -0.201248686613863
    PPL corr. energy    =    0.059863380423563
    OS PPL corr. energy =    0.053508716977648
    SS PPL corr. energy =    0.006354663445915
    Largest TIA Amplitudes:
              2   7         0.0162564481
              1   5         0.0145424990
              3  70         0.0145424990
              2  16        -0.0098615429
              1   3         0.0093361101
              3  69         0.0093361100
              1  13        -0.0062068783
              3  76        -0.0062068782
              1   8        -0.0062037997
              3  72        -0.0062037997

    Largest TIjAb Amplitudes:
      2   2  70  70        -0.0430273766
      2   2   5   5        -0.0430273766
      3   3  70  70        -0.0342188738
      1   1   5   5        -0.0342188738
      2   2  16  16        -0.0338602003
      2   2   7   7        -0.0287364647
      2   2   7  16         0.0272435726
      2   2  16   7         0.0272435726
      2   2  70  76         0.0255231402
      2   2  76  70         0.0255231402

    SCF energy       (wfn)                    = -342.490590756638312
    Reference energy (file100)                = -342.490590756640245

    Opposite-spin MP2 correlation energy      =   -0.145061479722302
    Same-spin MP2 correlation energy          =   -0.028151940638110
    MP2 correlation energy                    =   -0.173213420360457
      * MP2 total energy                      = -342.663804177000713

    Opposite-spin CCSD correlation energy     =   -0.171981019508001
    Same-spin CCSD correlation energy         =   -0.029267666238816
    CCSD correlation energy                   =   -0.201248686613863
      * CCSD total energy                     = -342.691839443254082


*** tstop() called on cqc01 at Fri Apr 26 19:08:50 2019
Module time:
	user time   =       3.36 seconds =       0.06 minutes
	system time =       6.94 seconds =       0.12 minutes
	total time  =         19 seconds =       0.32 minutes
Total time:
	user time   =      16.61 seconds =       0.28 minutes
	system time =      17.41 seconds =       0.29 minutes
	total time  =         75 seconds =       1.25 minutes

*** Psi4 exiting successfully. Buy a developer a beer!
