
    -----------------------------------------------------------------------
          Psi4: An Open-Source Ab Initio Electronic Structure Package
                               Psi4 1.2a1.dev939 

                         Git: Rev {HEAD} fa1ec19 


    R. M. Parrish, L. A. Burns, D. G. A. Smith, A. C. Simmonett,
    A. E. DePrince III, E. G. Hohenstein, U. Bozkaya, A. Yu. Sokolov,
    R. Di Remigio, R. M. Richard, J. F. Gonthier, A. M. James,
    H. R. McAlexander, A. Kumar, M. Saitow, X. Wang, B. P. Pritchard,
    P. Verma, H. F. Schaefer III, K. Patkowski, R. A. King, E. F. Valeev,
    F. A. Evangelista, J. M. Turney, T. D. Crawford, and C. D. Sherrill,
    J. Chem. Theory Comput. 13(7) pp 3185--3197 (2017).
    (doi: 10.1021/acs.jctc.7b00174)

    -----------------------------------------------------------------------


    Psi4 started on: Friday, 03 May 2019 03:41AM

    Process ID:   3053
    PSIDATADIR: /home/grueneis/src/psi4/objdir/stage/usr/local/psi4/share/psi4
    Memory:     500.0 MiB
    Threads:    1
    
  ==> Input File <==

--------------------------------------------------------------------------
# Any line starting with the # character is a comment line

memory 32000 mb

molecule molecule {
0 1
P          0.0000000000        0.0000000000        0.0676721068
H          1.1867955809        0.0000000000       -0.6931826617
H         -0.5933977905        1.0277951222       -0.6931826617
H         -0.5933977905       -1.0277951222       -0.6931826617
}

set {
  reference rhf


  basis aug-cc-pv(5+d)z
  scf_type OUT_OF_CORE
  freeze_core true
}

energy('ccsd')
--------------------------------------------------------------------------

  Memory set to  29.802 GiB by Python driver.

*** tstart() called on cqc03
*** at Fri May  3 03:41:43 2019

   => Loading Basis Set <=

    Name: AUG-CC-PV(5+D)Z
    Role: ORBITAL
    Keyword: BASIS
    atoms 1   entry P          line   850 file /home/grueneis/src/psi4/objdir/stage/usr/local/psi4/share/psi4/basis/aug-cc-pv_5pd_z.gbs 
    atoms 2-4 entry H          line    56 file /home/grueneis/src/psi4/objdir/stage/usr/local/psi4/share/psi4/basis/aug-cc-pv_5pd_z.gbs 


         ---------------------------------------------------------
                                   SCF
            by Justin Turney, Rob Parrish, Andy Simmonett
                             and Daniel Smith
                              RHF Reference
                        1 Threads,  30517 MiB Core
         ---------------------------------------------------------

  ==> Geometry <==

    Molecular point group: cs
    Full point group: C3v

    Geometry (in Angstrom), charge = 0, multiplicity = 1:

       Center              X                  Y                   Z               Mass       
    ------------   -----------------  -----------------  -----------------  -----------------
           P         -0.000000000001    -0.067665071223     0.000000000000    30.973761629000
           H         -0.593397790457     0.693189697277     1.027795122191     1.007825032070
           H         -0.593397790457     0.693189697277    -1.027795122191     1.007825032070
           H          1.186795580959     0.693189697277     0.000000000000     1.007825032070

  Running in cs symmetry.

  Rotational constants: A =      4.52689  B =      4.52689  C =      3.95857 [cm^-1]
  Rotational constants: A = 135712.69348  B = 135712.69348  C = 118674.92316 [MHz]
  Nuclear repulsion =   17.663977097331589

  Charge       = 0
  Multiplicity = 1
  Electrons    = 18
  Nalpha       = 9
  Nbeta        = 9

  ==> Algorithm <==

  SCF Algorithm Type is OUT_OF_CORE.
  DIIS enabled.
  MOM disabled.
  Fractional occupation disabled.
  Guess Type is SAD.
  Energy threshold   = 1.00e-08
  Density threshold  = 1.00e-08
  Integral threshold = 0.00e+00

  ==> Primary Basis <==

  Basis Set: AUG-CC-PV(5+D)Z
    Blend: AUG-CC-PV(5+D)Z
    Number of shells: 90
    Number of basis function: 376
    Number of Cartesian functions: 507
    Spherical Harmonics?: true
    Max angular momentum: 5

  ==> Pre-Iterations <==

   -------------------------------------------------------
    Irrep   Nso     Nmo     Nalpha   Nbeta   Ndocc  Nsocc
   -------------------------------------------------------
     A'       213     213       0       0       0       0
     A"       163     163       0       0       0       0
   -------------------------------------------------------
    Total     376     376       9       9       9       0
   -------------------------------------------------------

  ==> Integral Setup <==

  ==> DiskJK: Disk-Based J/K Matrices <==

    J tasked:                  Yes
    K tasked:                  Yes
    wK tasked:                  No
    Memory (MB):             22888
    Schwarz Cutoff:          1E-12

  Minimum eigenvalue in the overlap matrix is 1.1582281266E-05.
  Using Symmetric Orthogonalization.

  SCF Guess: Superposition of Atomic Densities via on-the-fly atomic UHF.

  ==> Iterations <==

                        Total Energy        Delta E     RMS |[F,P]|

   @RHF iter   0:  -342.36130043072518   -3.42361e+02   6.28477e-03 
   @RHF iter   1:  -342.47600928988032   -1.14709e-01   7.22313e-04 
   @RHF iter   2:  -342.49227957489950   -1.62703e-02   2.08126e-04 DIIS
   @RHF iter   3:  -342.49415561270979   -1.87604e-03   6.31777e-05 DIIS
   @RHF iter   4:  -342.49466202564486   -5.06413e-04   1.17121e-05 DIIS
   @RHF iter   5:  -342.49467957222612   -1.75466e-05   2.15878e-06 DIIS
   @RHF iter   6:  -342.49468009045518   -5.18229e-07   5.64493e-07 DIIS
   @RHF iter   7:  -342.49468011770210   -2.72469e-08   1.05490e-07 DIIS
   @RHF iter   8:  -342.49468011891008   -1.20798e-09   1.96987e-08 DIIS
   @RHF iter   9:  -342.49468011895362   -4.35421e-11   2.84905e-09 DIIS

  ==> Post-Iterations <==

    Orbital Energies (a.u.)
    -----------------------

    Doubly Occupied:                                                      

       1Ap   -79.941628     2Ap    -7.485050     1App   -5.378776  
       3Ap    -5.378776     4Ap    -5.378036     5Ap    -0.856320  
       2App   -0.523557     6Ap    -0.523557     7Ap    -0.387736  

    Virtual:                                                              

       8Ap     0.022172     9Ap     0.041031     3App    0.041031  
      10Ap     0.059107    11Ap     0.073185     4App    0.073185  
      12Ap     0.100044    13Ap     0.133800     5App    0.133800  
      14Ap     0.137958    15Ap     0.139100     6App    0.139100  
       7App    0.190493    16Ap     0.190493    17Ap     0.207587  
       8App    0.209128    18Ap     0.209128    19Ap     0.220145  
      20Ap     0.227572     9App    0.227572    10App    0.227945  
      21Ap     0.269243    11App    0.271933    22Ap     0.271933  
      23Ap     0.328598    12App    0.340108    24Ap     0.340108  
      25Ap     0.347069    26Ap     0.380309    13App    0.380309  
      27Ap     0.399936    14App    0.433634    28Ap     0.446415  
      15App    0.453453    29Ap     0.453453    16App    0.473833  
      30Ap     0.473833    17App    0.505595    31Ap     0.505595  
      32Ap     0.526841    33Ap     0.546138    18App    0.546138  
      19App    0.555083    20App    0.589524    34Ap     0.589524  
      35Ap     0.592701    36Ap     0.614425    21App    0.619360  
      37Ap     0.619360    22App    0.667115    38Ap     0.667115  
      39Ap     0.669170    23App    0.688282    40Ap     0.688282  
      24App    0.731001    41Ap     0.754971    42Ap     0.776617  
      25App    0.776617    43Ap     0.913798    44Ap     0.937813  
      26App    0.937813    45Ap     0.964995    46Ap     0.965703  
      27App    0.965703    28App    0.974606    47Ap     1.005476  
      29App    1.018811    48Ap     1.018811    49Ap     1.028377  
      30App    1.034581    50Ap     1.034581    31App    1.040566  
      51Ap     1.040566    52Ap     1.058966    32App    1.058966  
      33App    1.086524    34App    1.138356    53Ap     1.138356  
      54Ap     1.170243    55Ap     1.193288    56Ap     1.263664  
      35App    1.263664    36App    1.275260    57Ap     1.275260  
      58Ap     1.309961    59Ap     1.318308    37App    1.355020  
      38App    1.364913    60Ap     1.364913    61Ap     1.397572  
      62Ap     1.408100    39App    1.408100    63Ap     1.437483  
      40App    1.437483    64Ap     1.438409    41App    1.438409  
      65Ap     1.481296    42App    1.502313    66Ap     1.509360  
      43App    1.509360    67Ap     1.545115    44App    1.550456  
      45App    1.611126    68Ap     1.611126    46App    1.649303  
      69Ap     1.649303    70Ap     1.656638    71Ap     1.722847  
      47App    1.722847    48App    1.730340    72Ap     1.785801  
      73Ap     1.791599    49App    1.791599    50App    1.886334  
      74Ap     1.886334    75Ap     2.065691    51App    2.065691  
      76Ap     2.094436    52App    2.121082    77Ap     2.128780  
      53App    2.128780    54App    2.158075    78Ap     2.158075  
      79Ap     2.239085    80Ap     2.277455    81Ap     2.300134  
      55App    2.324545    82Ap     2.324545    83Ap     2.358893  
      56App    2.358893    84Ap     2.382344    85Ap     2.451591  
      57App    2.451591    58App    2.461806    86Ap     2.461806  
      59App    2.468619    60App    2.481543    61App    2.510010  
      87Ap     2.510010    88Ap     2.512738    89Ap     2.526636  
      62App    2.579311    90Ap     2.579311    63App    2.628505  
      91Ap     2.628505    92Ap     2.732653    64App    2.732653  
      65App    2.756221    93Ap     2.778559    94Ap     2.800274  
      66App    2.800274    95Ap     2.805092    67App    2.889928  
      96Ap     2.889928    97Ap     2.938300    98Ap     2.964353  
      99Ap     3.020835    68App    3.020835   100Ap     3.091084  
     101Ap     3.095211    69App    3.095211    70App    3.095300  
     102Ap     3.160061    71App    3.160622   103Ap     3.160622  
     104Ap     3.223764    72App    3.223764   105Ap     3.285997  
      73App    3.285997    74App    3.306575   106Ap     3.322434  
      75App    3.322434    76App    3.423500   107Ap     3.423500  
     108Ap     3.450119   109Ap     3.585716    77App    3.586826  
     110Ap     3.586826    78App    3.650700   111Ap     3.654071  
      79App    3.654071   112Ap     3.697047    80App    3.697047  
     113Ap     3.726753    81App    3.767612    82App    3.825093  
     114Ap     3.825093    83App    3.937371   115Ap     3.937371  
     116Ap     3.969492    84App    3.969492   117Ap     3.971809  
     118Ap     4.019749    85App    4.035724   119Ap     4.080018  
      86App    4.080018   120Ap     4.165593    87App    4.165593  
      88App    4.183761   121Ap     4.200112    89App    4.284648  
     122Ap     4.284648   123Ap     4.431328    90App    4.431328  
      91App    4.483444   124Ap     4.548868    92App    4.548868  
     125Ap     4.690940   126Ap     4.699546    93App    4.739868  
      94App    4.743238   127Ap     4.743238   128Ap     4.939449  
      95App    4.969535   129Ap     4.969535    96App    5.027802  
     130Ap     5.029246    97App    5.029246   131Ap     5.034496  
     132Ap     5.112492    98App    5.112492   133Ap     5.158189  
     134Ap     5.198333    99App    5.198333   135Ap     5.271926  
     100App    5.271926   136Ap     5.424945   101App    5.428996  
     137Ap     5.441126   102App    5.441126   138Ap     5.486295  
     103App    5.596677   139Ap     5.596677   140Ap     5.600246  
     104App    5.600246   141Ap     5.600946   142Ap     5.673029  
     105App    5.673029   143Ap     5.712155   106App    5.751893  
     144Ap     5.751893   145Ap     5.852730   107App    5.852730  
     146Ap     5.856368   108App    5.983232   147Ap     6.001341  
     148Ap     6.032153   109App    6.032153   149Ap     6.065447  
     110App    6.065447   150Ap     6.138571   111App    6.138571  
     151Ap     6.203865   112App    6.324197   113App    6.356272  
     152Ap     6.356272   153Ap     6.394002   154Ap     6.509367  
     114App    6.509367   155Ap     6.553430   115App    6.560468  
     156Ap     6.560468   157Ap     6.706113   158Ap     6.794293  
     116App    6.794293   117App    6.909583   159Ap     6.925247  
     118App    6.925247   119App    6.943422   120App    6.962727  
     160Ap     6.962727   161Ap     7.517150   121App    7.517150  
     162Ap     7.627138   163Ap     7.859129   122App    7.904965  
     164Ap     7.904965   123App    8.074965   124App    8.133654  
     165Ap     8.133654   166Ap     9.286662   125App    9.286662  
     167Ap     9.416203   126App   13.085336   168Ap    13.085336  
     127App   13.086172   169Ap    13.124675   128App   13.127115  
     170Ap    13.127115   129App   13.207034   171Ap    13.207034  
     172Ap    13.207121   130App   13.219446   131App   13.228647  
     173Ap    13.228647   174Ap    13.270809   132App   13.270809  
     175Ap    13.287551   133App   13.300333   176Ap    13.306113  
     177Ap    13.341854   134App   13.341854   135App   13.378997  
     178Ap    13.378997   136App   13.421521   137App   13.424708  
     179Ap    13.424708   180Ap    13.434959   138App   13.439343  
     181Ap    13.439343   182Ap    13.524658   139App   13.524658  
     140App   13.562449   183Ap    13.596601   141App   13.596601  
     184Ap    13.678453   142App   13.723348   185Ap    13.723348  
     143App   13.769344   144App   13.777250   186Ap    13.777250  
     187Ap    13.793492   188Ap    13.926789   189Ap    13.940032  
     145App   13.940032   190Ap    14.114175   146App   14.114175  
     191Ap    14.133443   192Ap    14.367308   147App   14.367308  
     148App   14.391838   193Ap    14.447690   194Ap    14.483838  
     149App   14.483838   195Ap    14.557235   150App   14.557235  
     196Ap    14.580522   197Ap    14.585586   151App   14.606669  
     198Ap    14.606669   152App   14.631978   199Ap    14.631978  
     200Ap    14.765849   153App   14.765849   154App   14.813426  
     155App   15.048809   201Ap    15.048809   202Ap    15.078409  
     203Ap    15.322098   156App   15.322098   157App   15.396259  
     204Ap    16.244120   158App   16.244120   205Ap    16.304536  
     206Ap    17.996933   159App   18.117815   207Ap    18.130174  
     160App   18.130174   161App   18.222736   208Ap    18.222736  
     209Ap    18.888305   210Ap    19.239079   162App   19.239079  
     211Ap    20.349746   163App   21.213913   212Ap    21.213913  
     213Ap    66.098923  

    Final Occupation by Irrep:
             Ap   App 
    DOCC [     7,    2 ]

  Energy converged.

  @RHF Final Energy:  -342.49468011895362

   => Energetics <=

    Nuclear Repulsion Energy =             17.6639770973315891
    One-Electron Energy =                -508.6104404193382607
    Two-Electron Energy =                 148.4517832030530258
    Total Energy =                       -342.4946801189536245



Properties will be evaluated at   0.000000,   0.000000,   0.000000 Bohr

Properties computed using the SCF density matrix

  Nuclear Dipole Moment: (a.u.)
     X:     0.0000      Y:     2.0118      Z:     0.0000

  Electronic Dipole Moment: (a.u.)
     X:    -0.0000      Y:    -1.7432      Z:     0.0000

  Dipole Moment: (a.u.)
     X:    -0.0000      Y:     0.2686      Z:     0.0000     Total:     0.2686

  Dipole Moment: (Debye)
     X:    -0.0000      Y:     0.6827      Z:     0.0000     Total:     0.6827


*** tstop() called on cqc03 at Fri May  3 03:49:45 2019
Module time:
	user time   =     407.36 seconds =       6.79 minutes
	system time =      72.74 seconds =       1.21 minutes
	total time  =        482 seconds =       8.03 minutes
Total time:
	user time   =     407.36 seconds =       6.79 minutes
	system time =      72.74 seconds =       1.21 minutes
	total time  =        482 seconds =       8.03 minutes

*** tstart() called on cqc03
*** at Fri May  3 03:49:45 2019


	Wfn Parameters:
	--------------------
	Wavefunction         = CCSD
	Number of irreps     = 2
	Number of MOs        = 376
	Number of active MOs = 371
	AO-Basis             = NONE
	Semicanonical        = false
	Reference            = RHF
	Print Level          = 1

	IRREP	# MOs	# FZDC	# DOCC	# SOCC	# VIRT	# FZVR
	-----	-----	------	------	------	------	------
	 Ap	   213	    4	    3	    0	    206	    0
	 App	   163	    1	    1	    0	    161	    0
	Transforming integrals...
	IWL integrals will be deleted.
	(OO|OO)...
	Presorting SO-basis two-electron integrals.
	Sorting File: SO Ints (nn|nn) nbuckets = 1
	Transforming the one-electron integrals and constructing Fock matrices
	Starting first half-transformation.
	Sorting half-transformed integrals.
	First half integral transformation complete.
	Starting second half-transformation.
	Two-electron integral transformation complete.
	(OO|OV)...
	Starting second half-transformation.
	Two-electron integral transformation complete.
	(OO|VV)...
	Starting second half-transformation.
	Two-electron integral transformation complete.
	(OV|OO)...
	Starting first half-transformation.
	Sorting half-transformed integrals.
	First half integral transformation complete.
	Starting second half-transformation.
	Two-electron integral transformation complete.
	(OV|OV)...
	Starting second half-transformation.
	Two-electron integral transformation complete.
	(OV|VV)...
	Starting second half-transformation.
	Two-electron integral transformation complete.
	(VV|OO)...
	Starting first half-transformation.
	Sorting half-transformed integrals.
	First half integral transformation complete.
	Starting second half-transformation.
	Two-electron integral transformation complete.
	(VV|OV)...
	Starting second half-transformation.
	Two-electron integral transformation complete.
	(VV|VV)...
	Starting second half-transformation.
	Two-electron integral transformation complete.
	Frozen core energy     =   -345.62412170702606

	Size of irrep 0 of <ab|cd> integrals:   4672.679 (MW) /  37381.436 (MB)
	Size of irrep 1 of <ab|cd> integrals:   4399.934 (MW) /  35199.474 (MB)
	Total:                                  9072.614 (MW) /  72580.909 (MB)

	Size of irrep 0 of <ia|bc> integrals:     53.250 (MW) /    426.001 (MB)
	Size of irrep 1 of <ia|bc> integrals:     45.703 (MW) /    365.622 (MB)
	Total:                                    98.953 (MW) /    791.623 (MB)

	Size of irrep 0 of tijab amplitudes:       0.684 (MW) /      5.469 (MB)
	Size of irrep 1 of tijab amplitudes:       0.398 (MW) /      3.184 (MB)
	Total:                                     1.082 (MW) /      8.652 (MB)

	Nuclear Rep. energy          =     17.66397709733159
	SCF energy                   =   -342.49468011895362
	One-electron energy          =    -24.48672929093746
	Two-electron energy          =      9.95219378167753
	Reference energy             =   -342.49468011895442

*** tstop() called on cqc03 at Fri May  3 04:29:56 2019
Module time:
	user time   =     732.99 seconds =      12.22 minutes
	system time =     302.47 seconds =       5.04 minutes
	total time  =       2411 seconds =      40.18 minutes
Total time:
	user time   =    1140.35 seconds =      19.01 minutes
	system time =     375.21 seconds =       6.25 minutes
	total time  =       2893 seconds =      48.22 minutes

*** tstart() called on cqc03
*** at Fri May  3 04:29:56 2019

            **************************
            *                        *
            *        CCENERGY        *
            *                        *
            **************************

    Nuclear Rep. energy (wfn)     =   17.663977097331589
    SCF energy          (wfn)     = -342.494680118953625
    Reference energy    (file100) = -342.494680118954420

    Input parameters:
    -----------------
    Wave function   =     CCSD
    Reference wfn   =     RHF
    Brueckner       =     No
    Memory (Mbytes) =     32000.0
    Maxiter         =     50
    R_Convergence   =     1.0e-07
    E_Convergence   =     1.0e-06
    Restart         =     Yes
    DIIS            =     Yes
    AO Basis        =     NONE
    ABCD            =     NEW
    Cache Level     =     2
    Cache Type      =     LOW
    Print Level     =     1
    Num. of threads =     1
    # Amps to Print =     10
    Print MP2 Amps? =     No
    Analyze T2 Amps =     No
    Print Pair Ener =     No
    Local CC        =     No
    SCS-MP2         =     False
    SCSN-MP2        =     False
    SCS-CCSD        =     False

MP2 correlation energy -0.1880260339306379
                Solving CC Amplitude Equations
                ------------------------------
  Iter             Energy              RMS        T1Diag      D1Diag    New D1Diag    D2Diag
  ----     ---------------------    ---------   ----------  ----------  ----------   --------
     0        -0.188026033930542    0.000e+00    0.000000    0.000000    0.000000    0.141135
     1        -0.226553495661511    1.882e-01    0.017195    0.026412    0.026412    0.191879
     2        -0.214914235064999    2.952e-02    0.013564    0.021179    0.021179    0.179495
     3        -0.211879948462519    6.636e-03    0.013906    0.021887    0.021887    0.176000
     4        -0.211689803866410    1.533e-03    0.013869    0.021831    0.021831    0.175515
     5        -0.211630197822217    4.622e-04    0.013912    0.021925    0.021925    0.175306
     6        -0.211620835604356    1.390e-04    0.013943    0.021985    0.021985    0.175254
     7        -0.211626747001567    4.895e-05    0.013955    0.022008    0.022008    0.175252
     8        -0.211628191002154    1.710e-05    0.013960    0.022018    0.022018    0.175254
     9        -0.211627921181490    4.992e-06    0.013961    0.022020    0.022020    0.175255
    10        -0.211627980287518    1.408e-06    0.013961    0.022020    0.022020    0.175255
    11        -0.211628019296900    4.365e-07    0.013961    0.022020    0.022020    0.175256
    12        -0.211628017495793    1.427e-07    0.013961    0.022020    0.022020    0.175256
    13        -0.211628015138459    5.013e-08    0.013961    0.022020    0.022020    0.175256
    13        -0.211628015138459    5.013e-08    0.013961    0.022020    0.022020    0.175256

    Iterations converged.


    CCSD corr. energy   =   -0.211628015138459
    PPL corr. energy    =    0.067215027252675
    OS PPL corr. energy =    0.060483380017953
    SS PPL corr. energy =    0.006731647234725
    Largest TIA Amplitudes:
              1   7        -0.0140317662
              3 209        -0.0140317662
              2   6        -0.0113343085
              2  15         0.0103678871
              3 210         0.0083546518
              1   8         0.0083546518
              1  14         0.0077217837
              3 214         0.0077217837
              2  19        -0.0070235423
              1  16        -0.0068798876

    Largest TIjAb Amplitudes:
      2   2   7   7        -0.0275986517
      2   2 209 209        -0.0275986517
      2   2  14  14        -0.0258323416
      2   2 214 214        -0.0258323416
      2   2   7  14         0.0256498920
      2   2  14   7         0.0256498920
      2   2 209 214         0.0256498919
      2   2 214 209         0.0256498919
      3   3 209 209        -0.0235555040
      1   1   7   7        -0.0235555040

    SCF energy       (wfn)                    = -342.494680118953625
    Reference energy (file100)                = -342.494680118954420

    Opposite-spin MP2 correlation energy      =   -0.158878146085194
    Same-spin MP2 correlation energy          =   -0.029147887845348
    MP2 correlation energy                    =   -0.188026033930638
      * MP2 total energy                      = -342.682706152885032

    Opposite-spin CCSD correlation energy     =   -0.181532043526658
    Same-spin CCSD correlation energy         =   -0.030095970404826
    CCSD correlation energy                   =   -0.211628015138459
      * CCSD total energy                     = -342.706308134092865


*** tstop() called on cqc03 at Fri May  3 04:35:30 2019
Module time:
	user time   =      90.95 seconds =       1.52 minutes
	system time =     165.68 seconds =       2.76 minutes
	total time  =        334 seconds =       5.57 minutes
Total time:
	user time   =    1231.30 seconds =      20.52 minutes
	system time =     540.92 seconds =       9.02 minutes
	total time  =       3227 seconds =      53.78 minutes

*** Psi4 exiting successfully. Buy a developer a beer!
