
    -----------------------------------------------------------------------
          Psi4: An Open-Source Ab Initio Electronic Structure Package
                               Psi4 1.2a1.dev939 

                         Git: Rev {HEAD} fa1ec19 dirty


    R. M. Parrish, L. A. Burns, D. G. A. Smith, A. C. Simmonett,
    A. E. DePrince III, E. G. Hohenstein, U. Bozkaya, A. Yu. Sokolov,
    R. Di Remigio, R. M. Richard, J. F. Gonthier, A. M. James,
    H. R. McAlexander, A. Kumar, M. Saitow, X. Wang, B. P. Pritchard,
    P. Verma, H. F. Schaefer III, K. Patkowski, R. A. King, E. F. Valeev,
    F. A. Evangelista, J. M. Turney, T. D. Crawford, and C. D. Sherrill,
    J. Chem. Theory Comput. 13(7) pp 3185--3197 (2017).
    (doi: 10.1021/acs.jctc.7b00174)

    -----------------------------------------------------------------------


    Psi4 started on: Tuesday, 03 November 2020 02:20PM

    Process ID: 382061
    PSIDATADIR: /home/fs71337/airmler/src/psi4_uhf/build/stage/usr/local/psi4/share/psi4
    Memory:     500.0 MiB
    Threads:    48
    
  ==> Input File <==

--------------------------------------------------------------------------
# Any line starting with the # character is a comment line
memory 250000 mb
molecule molecule{
0 1
S          0.0000000000        0.0000000000       -0.0547163639
H          0.0000000000        0.9606869869        0.8701939739
H          0.0000000000       -0.9606869869        0.8701939739
}

set {
  reference rhf
  basis aug-cc-pv(6+d)z
  scf_type OUT_OF_CORE
  freeze_core true
}

energy('ccsd')
--------------------------------------------------------------------------

  Memory set to 232.831 GiB by Python driver.

*** tstart() called on n411-012.vsc4.prov
*** at Tue Nov  3 14:20:39 2020

   => Loading Basis Set <=

    Name: AUG-CC-PV(6+D)Z
    Role: ORBITAL
    Keyword: BASIS
    atoms 1   entry S          line  1164 file /home/fs71337/airmler/src/psi4_uhf/build/stage/usr/local/psi4/share/psi4/basis/aug-cc-pv_6pd_z.gbs 
    atoms 2-3 entry H          line    51 file /home/fs71337/airmler/src/psi4_uhf/build/stage/usr/local/psi4/share/psi4/basis/aug-cc-pv_6pd_z.gbs 


         ---------------------------------------------------------
                                   SCF
            by Justin Turney, Rob Parrish, Andy Simmonett
                             and Daniel Smith
                              RHF Reference
                       48 Threads, 238418 MiB Core
         ---------------------------------------------------------

  ==> Geometry <==

    Molecular point group: c2v
    Full point group: C2v

    Geometry (in Angstrom), charge = 0, multiplicity = 1:

       Center              X                  Y                   Z               Mass       
    ------------   -----------------  -----------------  -----------------  -----------------
           S          0.000000000000     0.000000000000    -0.054852032540    31.972070999000
           H         -0.000000000000     0.960686986900     0.870058305260     1.007825032070
           H          0.000000000000    -0.960686986900     0.870058305260     1.007825032070

  Running in c2v symmetry.

  Rotational constants: A =     10.39282  B =      9.06186  C =      4.84091 [cm^-1]
  Rotational constants: A = 311568.87683  B = 271667.84855  C = 145126.74316 [MHz]
  Nuclear repulsion =   12.973523413409744

  Charge       = 0
  Multiplicity = 1
  Electrons    = 18
  Nalpha       = 9
  Nbeta        = 9

  ==> Algorithm <==

  SCF Algorithm Type is OUT_OF_CORE.
  DIIS enabled.
  MOM disabled.
  Fractional occupation disabled.
  Guess Type is SAD.
  Energy threshold   = 1.00e-08
  Density threshold  = 1.00e-08
  Integral threshold = 0.00e+00

  ==> Primary Basis <==

  Basis Set: AUG-CC-PV(6+D)Z
    Blend: AUG-CC-PV(6+D)Z
    Number of shells: 92
    Number of basis function: 452
    Number of Cartesian functions: 668
    Spherical Harmonics?: true
    Max angular momentum: 6

  ==> Pre-Iterations <==

   -------------------------------------------------------
    Irrep   Nso     Nmo     Nalpha   Nbeta   Ndocc  Nsocc
   -------------------------------------------------------
     A1       147     147       0       0       0       0
     A2        82      82       0       0       0       0
     B1        98      98       0       0       0       0
     B2       125     125       0       0       0       0
   -------------------------------------------------------
    Total     452     452       9       9       9       0
   -------------------------------------------------------

  ==> Integral Setup <==

  ==> DiskJK: Disk-Based J/K Matrices <==

    J tasked:                  Yes
    K tasked:                  Yes
    wK tasked:                  No
    Memory (MB):            178813
    Schwarz Cutoff:          1E-12

  Minimum eigenvalue in the overlap matrix is 5.3719296511E-06.
  Using Symmetric Orthogonalization.

  SCF Guess: Superposition of Atomic Densities via on-the-fly atomic UHF.

  ==> Iterations <==

                        Total Energy        Delta E     RMS |[F,P]|

   @RHF iter   0:  -398.67366941364241   -3.98674e+02   2.60651e-02 
   @RHF iter   1:  -398.69666007492248   -2.29907e-02   3.66269e-03 
   @RHF iter   2:  -398.71744757987699   -2.07875e-02   1.37568e-03 DIIS
   @RHF iter   3:  -398.71978657816618   -2.33900e-03   3.40791e-04 DIIS
   @RHF iter   4:  -398.72021185671900   -4.25279e-04   8.61018e-05 DIIS
   @RHF iter   5:  -398.72025213968453   -4.02830e-05   1.76064e-05 DIIS
   @RHF iter   6:  -398.72025363312446   -1.49344e-06   4.70956e-06 DIIS
   @RHF iter   7:  -398.72025372783924   -9.47148e-08   1.21304e-06 DIIS
   @RHF iter   8:  -398.72025373433360   -6.49436e-09   2.30621e-07 DIIS
   @RHF iter   9:  -398.72025373463777   -3.04169e-10   3.40727e-08 DIIS
   @RHF iter  10:  -398.72025373464402   -6.25278e-12   6.95445e-09 DIIS

  ==> Post-Iterations <==

    Orbital Energies (a.u.)
    -----------------------

    Doubly Occupied:                                                      

       1A1   -91.964300     2A1    -8.966892     1B2    -6.648328  
       3A1    -6.647734     1B1    -6.646866     4A1    -0.982177  
       2B2    -0.591135     5A1    -0.502464     2B1    -0.385301  

    Virtual:                                                              

       6A1     0.020050     3B2     0.034950     7A1     0.057704  
       3B1     0.065239     4B2     0.075687     8A1     0.094738  
       5B2     0.129232     9A1     0.143667    10A1     0.146754  
       1A2     0.158830     4B1     0.160153     6B2     0.175426  
      11A1     0.198398     7B2     0.202381    12A1     0.213786  
       5B1     0.214999     2A2     0.217672     8B2     0.237467  
      13A1     0.251482     9B2     0.260851    14A1     0.269805  
       6B1     0.301385    15A1     0.335238    16A1     0.359651  
       7B1     0.377245     3A2     0.385590    10B2     0.403941  
       8B1     0.412003    17A1     0.451648    11B2     0.464769  
      12B2     0.478528    18A1     0.487122     4A2     0.491198  
       9B1     0.500571    13B2     0.507666    19A1     0.507716  
       5A2     0.512424    10B1     0.520649    20A1     0.521119  
      14B2     0.545326     6A2     0.548291    21A1     0.557387  
      11B1     0.565830    15B2     0.573329    22A1     0.579566  
      16B2     0.596727    23A1     0.619967    24A1     0.780999  
      17B2     0.833545    25A1     0.872229    12B1     0.874026  
       7A2     0.889569    18B2     0.912256    13B1     0.913339  
      26A1     0.923465     8A2     0.972821    27A1     0.977367  
      14B1     0.978149    15B1     0.989251    19B2     0.991946  
      28A1     0.992269    29A1     1.002488     9A2     1.008330  
      20B2     1.017298    16B1     1.035804    30A1     1.045738  
      21B2     1.062469    31A1     1.063921    10A2     1.065051  
      17B1     1.108291    22B2     1.128434    11A2     1.130146  
      18B1     1.137998    32A1     1.142671    23B2     1.143077  
      12A2     1.158133    19B1     1.188284    24B2     1.188302  
      33A1     1.215317    25B2     1.238827    34A1     1.248195  
      35A1     1.257549    26B2     1.270231    20B1     1.279568  
      36A1     1.302613    13A2     1.362812    27B2     1.405559  
      37A1     1.476556    28B2     1.493638    21B1     1.502591  
      38A1     1.511405    14A2     1.530374    29B2     1.628565  
      39A1     1.737772    30B2     1.878265    22B1     1.894356  
      40A1     1.894946    15A2     1.915261    23B1     1.953921  
      41A1     1.969503    16A2     1.981590    42A1     2.012169  
      31B2     2.014777    24B1     2.037523    32B2     2.044021  
      43A1     2.059315    17A2     2.079067    25B1     2.141232  
      44A1     2.145536    33B2     2.147978    18A2     2.166249  
      45A1     2.170385    34B2     2.188032    26B1     2.191228  
      19A2     2.199015    27B1     2.235967    46A1     2.237262  
      35B2     2.254688    47A1     2.260254    48A1     2.275778  
      28B1     2.276777    36B2     2.310408    49A1     2.329218  
      20A2     2.333248    29B1     2.363564    50A1     2.388286  
      37B2     2.395092    21A2     2.425265    30B1     2.437519  
      38B2     2.437908    31B1     2.449710    51A1     2.486398  
      39B2     2.516610    22A2     2.558704    52A1     2.565296  
      32B1     2.570164    40B2     2.591835    33B1     2.612154  
      41B2     2.650382    53A1     2.659580    54A1     2.681066  
      42B2     2.701114    23A2     2.707358    43B2     2.716847  
      34B1     2.742597    24A2     2.756901    55A1     2.763582  
      56A1     2.822530    44B2     2.831729    35B1     2.840491  
      25A2     2.841964    57A1     2.849538    45B2     2.884290  
      36B1     2.910936    26A2     2.951836    46B2     3.037469  
      58A1     3.104709    59A1     3.259189    47B2     3.328954  
      27A2     3.482019    60A1     3.484786    48B2     3.496314  
      37B1     3.569478    61A1     3.688047    28A2     3.780934  
      38B1     3.818181    62A1     3.899767    49B2     3.918223  
      50B2     3.964541    39B1     4.014392    29A2     4.080621  
      63A1     4.092241    51B2     4.135479    40B1     4.142921  
      30A2     4.158520    64A1     4.223569    52B2     4.239533  
      65A1     4.292415    66A1     4.329430    31A2     4.336178  
      41B1     4.344058    42B1     4.362671    67A1     4.397452  
      32A2     4.410389    53B2     4.415981    68A1     4.471120  
      43B1     4.479287    69A1     4.501794    44B1     4.503695  
      54B2     4.518422    70A1     4.536177    55B2     4.553807  
      33A2     4.558796    71A1     4.560355    56B2     4.616475  
      34A2     4.628259    72A1     4.631461    45B1     4.652801  
      46B1     4.673588    73A1     4.734484    57B2     4.746602  
      35A2     4.747614    47B1     4.781583    74A1     4.805980  
      58B2     4.808948    36A2     4.812153    48B1     4.817052  
      59B2     4.848830    75A1     4.865850    60B2     4.890278  
      49B1     4.896371    76A1     4.976663    61B2     5.062350  
      37A2     5.064741    77A1     5.094979    38A2     5.098116  
      50B1     5.112830    62B2     5.121383    39A2     5.131234  
      78A1     5.183761    63B2     5.217199    79A1     5.221688  
      64B2     5.280086    80A1     5.281387    51B1     5.286581  
      52B1     5.362761    65B2     5.385156    81A1     5.396955  
      40A2     5.417741    66B2     5.435148    53B1     5.442829  
      54B1     5.478277    41A2     5.491333    82A1     5.524449  
      83A1     5.563990    42A2     5.577132    55B1     5.600704  
      84A1     5.737355    56B1     5.745663    67B2     5.761876  
      68B2     5.807406    69B2     5.847141    43A2     5.918931  
      70B2     6.013775    85A1     6.032270    86A1     6.130784  
      44A2     6.199058    87A1     6.224787    71B2     6.285188  
      45A2     6.347964    57B1     6.405516    88A1     6.484889  
      46A2     6.491247    72B2     6.509430    58B1     6.557559  
      73B2     6.661149    89A1     6.920710    59B1     7.028505  
      74B2     7.109324    90A1     7.170204    47A2     7.182482  
      91A1     7.269199    75B2     7.343292    48A2     7.588656  
      60B1     7.643735    76B2     7.684492    61B1     7.695685  
      92A1     7.728776    49A2     8.068162    77B2     8.088238  
      93A1     8.093556    62B1     8.249284    50A2     8.282157  
      78B2     8.335477    63B1     8.358071    79B2     8.386182  
      94A1     8.420493    51A2     8.424189    95A1     8.434145  
      64B1     8.587229    96A1     8.598942    80B2     8.633819  
      97A1     8.790034    81B2     8.837174    98A1     8.851317  
      52A2     8.905286    65B1     8.920871    82B2     8.933321  
      99A1     9.012530    53A2     9.238640    66B1     9.260021  
     100A1     9.265806   101A1     9.387669   102A1     9.428719  
      67B1     9.465172    54A2     9.473102    83B2     9.483253  
      84B2     9.494621    68B1     9.497009   103A1     9.514727  
     104A1     9.571982    55A2     9.586143    85B2     9.599147  
      69B1     9.626787    70B1     9.671381    56A2     9.711059  
      86B2     9.750945   105A1     9.769115   106A1     9.774619  
      87B2     9.872563    57A2     9.883573    71B1     9.915827  
      88B2     9.995149    58A2    10.075752    72B1    10.104557  
     107A1    10.116447   108A1    10.228801    73B1    10.295072  
      59A2    10.369204    89B2    10.426550    74B1    10.509405  
      90B2    10.542847   109A1    10.549323    91B2    10.562474  
     110A1    10.661894   111A1    10.782544    92B2    10.794466  
      60A2    10.910040    75B1    11.017802   112A1    11.079822  
      93B2    11.117090    76B1    11.183569    61A2    11.191494  
     113A1    11.259902    94B2    11.276509    95B2    11.429955  
     114A1    11.434251    62A2    11.495146    96B2    11.546872  
      77B1    11.579667    78B1    11.714735    63A2    11.740390  
     115A1    11.749556    64A2    11.856975    79B1    11.864981  
      97B2    11.870531   116A1    11.948977   117A1    12.209637  
      98B2    12.860573    80B1    12.947295   118A1    12.952292  
      65A2    13.087909    99B2    13.304418   119A1    13.538432  
      81B1    13.878076   100B2    13.998288    66A2    14.123783  
     120A1    14.321146   101B2    14.379353   121A1    15.245049  
     102B2    16.660984   122A1    16.771428    82B1    17.508624  
     123A1    17.519131   103B2    17.552178    67A2    17.569998  
      83B1    17.633682    68A2    17.650376   104B2    17.725596  
     124A1    17.729187    69A2    17.860150   105B2    17.905566  
      84B1    17.966015   125A1    18.017040   126A1    18.324414  
      85B1    18.359892    70A2    18.635101   106B2    18.656465  
     107B2    19.170787    86B1    19.198680    71A2    19.201612  
     127A1    19.205796   128A1    19.454381   108B2    19.479519  
      87B1    20.376626   129A1    20.401055    72A2    20.403305  
     109B2    20.429563    73A2    20.705702   110B2    20.966387  
     130A1    21.005026    88B1    21.116590    89B1    21.531376  
     111B2    21.548608    90B1    21.555418    74A2    21.593071  
     112B2    21.633961   131A1    21.645968    75A2    21.651165  
     132A1    21.770401   113B2    21.982421   133A1    22.013221  
     134A1    22.860963    91B1    23.255903    76A2    23.264968  
     114B2    23.315487   115B2    23.374879   135A1    23.567342  
     136A1    24.124645    92B1    24.213963    77A2    24.239137  
     116B2    24.345283   137A1    24.540791    93B1    24.549708  
     138A1    24.584535   117B2    24.599655    78A2    24.612082  
      94B1    24.642901    79A2    24.695652   118B2    24.857337  
     139A1    24.918638   119B2    24.947790    95B1    25.313005  
      80A2    25.384384   120B2    25.590056   140A1    25.604403  
     121B2    25.699200   141A1    25.745232    96B1    30.921849  
     142A1    31.321166    81A2    31.328163   143A1    31.525011  
      97B1    31.725261   122B2    32.677276   144A1    34.773567  
      98B1    34.821684    82A2    34.829873   145A1    35.076391  
     123B2    35.179434   124B2    36.108131   146A1    37.566748  
     125B2    37.617795   147A1   249.471593  

    Final Occupation by Irrep:
             A1    A2    B1    B2 
    DOCC [     5,    0,    2,    2 ]

  Energy converged.

  @RHF Final Energy:  -398.72025373464402

   => Energetics <=

    Nuclear Repulsion Energy =             12.9735234134097439
    One-Electron Energy =                -576.7171586416512810
    Two-Electron Energy =                 165.0233814935974692
    Total Energy =                       -398.7202537346440181



Properties will be evaluated at   0.000000,   0.000000,   0.000000 Bohr

Properties computed using the SCF density matrix

  Nuclear Dipole Moment: (a.u.)
     X:     0.0000      Y:     0.0000      Z:     1.6299

  Electronic Dipole Moment: (a.u.)
     X:     0.0000      Y:     0.0000      Z:    -1.2100

  Dipole Moment: (a.u.)
     X:     0.0000      Y:     0.0000      Z:     0.4199     Total:     0.4199

  Dipole Moment: (Debye)
     X:     0.0000      Y:     0.0000      Z:     1.0672     Total:     1.0672


*** tstop() called on n411-012.vsc4.prov at Tue Nov  3 14:49:06 2020
Module time:
	user time   =    1231.33 seconds =      20.52 minutes
	system time =     164.70 seconds =       2.75 minutes
	total time  =       1707 seconds =      28.45 minutes
Total time:
	user time   =    1231.33 seconds =      20.52 minutes
	system time =     164.70 seconds =       2.75 minutes
	total time  =       1707 seconds =      28.45 minutes

*** tstart() called on n411-012.vsc4.prov
*** at Tue Nov  3 14:49:06 2020


	Wfn Parameters:
	--------------------
	Wavefunction         = CCSD
	Number of irreps     = 4
	Number of MOs        = 452
	Number of active MOs = 447
	AO-Basis             = NONE
	Semicanonical        = false
	Reference            = RHF
	Print Level          = 1

	IRREP	# MOs	# FZDC	# DOCC	# SOCC	# VIRT	# FZVR
	-----	-----	------	------	------	------	------
	 A1	   147	    3	    2	    0	    142	    0
	 A2	   82	    0	    0	    0	    82	    0
	 B1	   98	    1	    1	    0	    96	    0
	 B2	   125	    1	    1	    0	    123	    0
	Transforming integrals...
	IWL integrals will be deleted.
	(OO|OO)...
	Presorting SO-basis two-electron integrals.
	Sorting File: SO Ints (nn|nn) nbuckets = 1
	Transforming the one-electron integrals and constructing Fock matrices
	Starting first half-transformation.
	Sorting half-transformed integrals.
	First half integral transformation complete.
	Starting second half-transformation.
	Two-electron integral transformation complete.
	(OO|OV)...
	Starting second half-transformation.
	Two-electron integral transformation complete.
	(OO|VV)...
	Starting second half-transformation.
	Two-electron integral transformation complete.
	(OV|OO)...
	Starting first half-transformation.
	Sorting half-transformed integrals.
	First half integral transformation complete.
	Starting second half-transformation.
	Two-electron integral transformation complete.
	(OV|OV)...
	Starting second half-transformation.
	Two-electron integral transformation complete.
	(OV|VV)...
	Starting second half-transformation.
	Two-electron integral transformation complete.
	(VV|OO)...
	Starting first half-transformation.
	Sorting half-transformed integrals.
	First half integral transformation complete.
	Starting second half-transformation.
	Two-electron integral transformation complete.
	(VV|OV)...
	Starting second half-transformation.
	Two-electron integral transformation complete.
	(VV|VV)...
	Starting second half-transformation.
	Two-electron integral transformation complete.
	Frozen core energy     =   -395.48998234547179

	Size of irrep 0 of <ab|cd> integrals:   2624.820 (MW) /  20998.562 (MB)
	Size of irrep 1 of <ab|cd> integrals:   2199.985 (MW) /  17599.882 (MB)
	Size of irrep 2 of <ab|cd> integrals:   2250.174 (MW) /  18001.393 (MB)
	Size of irrep 3 of <ab|cd> integrals:   2568.057 (MW) /  20544.456 (MB)
	Total:                                  9643.037 (MW) /  77144.293 (MB)

	Size of irrep 0 of <ia|bc> integrals:     25.770 (MW) /    206.162 (MB)
	Size of irrep 1 of <ia|bc> integrals:     17.964 (MW) /    143.714 (MB)
	Size of irrep 2 of <ia|bc> integrals:     19.733 (MW) /    157.867 (MB)
	Size of irrep 3 of <ia|bc> integrals:     23.818 (MW) /    190.542 (MB)
	Total:                                    87.286 (MW) /    698.284 (MB)

	Size of irrep 0 of tijab amplitudes:       0.307 (MW) /      2.459 (MB)
	Size of irrep 1 of tijab amplitudes:       0.094 (MW) /      0.750 (MB)
	Size of irrep 2 of tijab amplitudes:       0.190 (MW) /      1.518 (MB)
	Size of irrep 3 of tijab amplitudes:       0.203 (MW) /      1.622 (MB)
	Total:                                     0.794 (MW) /      6.349 (MB)

	Nuclear Rep. energy          =     12.97352341340974
	SCF energy                   =   -398.72025373464402
	One-electron energy          =    -27.48543540404308
	Two-electron energy          =     11.28164060146203
	Reference energy             =   -398.72025373464311

*** tstop() called on n411-012.vsc4.prov at Tue Nov  3 15:11:39 2020
Module time:
	user time   =    5424.18 seconds =      90.40 minutes
	system time =     365.44 seconds =       6.09 minutes
	total time  =       1353 seconds =      22.55 minutes
Total time:
	user time   =    6655.53 seconds =     110.93 minutes
	system time =     530.14 seconds =       8.84 minutes
	total time  =       3060 seconds =      51.00 minutes

*** tstart() called on n411-012.vsc4.prov
*** at Tue Nov  3 15:11:39 2020

            **************************
            *                        *
            *        CCENERGY        *
            *                        *
            **************************

    Nuclear Rep. energy (wfn)     =   12.973523413409744
    SCF energy          (wfn)     = -398.720253734644018
    Reference energy    (file100) = -398.720253734643109

    Input parameters:
    -----------------
    Wave function   =     CCSD
    Reference wfn   =     RHF
    Brueckner       =     No
    Memory (Mbytes) =     250000.0
    Maxiter         =     50
    R_Convergence   =     1.0e-07
    E_Convergence   =     1.0e-06
    Restart         =     Yes
    DIIS            =     Yes
    AO Basis        =     NONE
    ABCD            =     NEW
    Cache Level     =     2
    Cache Type      =     LOW
    Print Level     =     1
    Num. of threads =     48
    # Amps to Print =     10
    Print MP2 Amps? =     No
    Analyze T2 Amps =     No
    Print Pair Ener =     No
    Local CC        =     No
    SCS-MP2         =     False
    SCSN-MP2        =     False
    SCS-CCSD        =     False

MP2 correlation energy -0.2172435128562101
                Solving CC Amplitude Equations
                ------------------------------
  Iter             Energy              RMS        T1Diag      D1Diag    New D1Diag    D2Diag
  ----     ---------------------    ---------   ----------  ----------  ----------   --------
     0        -0.217243512856188    0.000e+00    0.000000    0.000000    0.000000    0.137938
     1        -0.249350478634627    2.027e-01    0.014756    0.024806    0.024806    0.172523
     2        -0.238481137467356    2.887e-02    0.010591    0.018218    0.018218    0.162436
     3        -0.235477641474460    6.307e-03    0.010786    0.018637    0.018637    0.159511
     4        -0.235292097477415    1.416e-03    0.010679    0.018466    0.018466    0.159101
     5        -0.235229184770477    4.051e-04    0.010667    0.018471    0.018471    0.158942
     6        -0.235214981370394    1.085e-04    0.010669    0.018489    0.018489    0.158900
     7        -0.235218084784446    2.847e-05    0.010669    0.018494    0.018494    0.158895
     8        -0.235218447182742    7.343e-06    0.010669    0.018496    0.018496    0.158894
     9        -0.235218143628182    2.267e-06    0.010669    0.018497    0.018497    0.158894
    10        -0.235218123560411    6.650e-07    0.010670    0.018498    0.018498    0.158894
    11        -0.235218144310650    2.243e-07    0.010670    0.018498    0.018498    0.158894
    12        -0.235218143827206    7.247e-08    0.010670    0.018498    0.018498    0.158894
    12        -0.235218143827206    7.247e-08    0.010670    0.018498    0.018498    0.158894

    Iterations converged.


    CCSD corr. energy   =   -0.235218143827206
    PPL corr. energy    =    0.071197624957853
    OS PPL corr. energy =    0.061840600187985
    SS PPL corr. energy =    0.009357024769870
    Largest TIA Amplitudes:
              3 322         0.0109494269
              3 326         0.0092869801
              1   9        -0.0077209720
              1   3         0.0076086581
              2 225        -0.0064136174
              2 228         0.0063579439
              3 323        -0.0063197237
              1  10         0.0060579144
              1  12         0.0059680631
              2 229         0.0050276127

    Largest TIjAb Amplitudes:
      1   1 322 322        -0.0298015494
      1   1 322 326        -0.0272292404
      1   1 326 322        -0.0272292404
      2   2   9   9        -0.0271345909
      2   2 144 144        -0.0267917024
      1   1 326 326        -0.0257830211
      3   3 322 322        -0.0253712476
      1   1  10  10        -0.0248112311
      3   3 322 326        -0.0238465677
      3   3 326 322        -0.0238465677

    SCF energy       (wfn)                    = -398.720253734644018
    Reference energy (file100)                = -398.720253734643109

    Opposite-spin MP2 correlation energy      =   -0.175547320625758
    Same-spin MP2 correlation energy          =   -0.041696192230430
    MP2 correlation energy                    =   -0.217243512856210
      * MP2 total energy                      = -398.937497247499323

    Opposite-spin CCSD correlation energy     =   -0.194334445546096
    Same-spin CCSD correlation energy         =   -0.040883699413973
    CCSD correlation energy                   =   -0.235218143827206
      * CCSD total energy                     = -398.955471878470291


*** tstop() called on n411-012.vsc4.prov at Tue Nov  3 15:23:20 2020
Module time:
	user time   =    4081.36 seconds =      68.02 minutes
	system time =     403.67 seconds =       6.73 minutes
	total time  =        701 seconds =      11.68 minutes
Total time:
	user time   =   10736.89 seconds =     178.95 minutes
	system time =     933.82 seconds =      15.56 minutes
	total time  =       3761 seconds =      62.68 minutes

*** Psi4 exiting successfully. Buy a developer a beer!
