
    -----------------------------------------------------------------------
          Psi4: An Open-Source Ab Initio Electronic Structure Package
                               Psi4 1.2a1.dev939 

                         Git: Rev {HEAD} fa1ec19 dirty


    R. M. Parrish, L. A. Burns, D. G. A. Smith, A. C. Simmonett,
    A. E. DePrince III, E. G. Hohenstein, U. Bozkaya, A. Yu. Sokolov,
    R. Di Remigio, R. M. Richard, J. F. Gonthier, A. M. James,
    H. R. McAlexander, A. Kumar, M. Saitow, X. Wang, B. P. Pritchard,
    P. Verma, H. F. Schaefer III, K. Patkowski, R. A. King, E. F. Valeev,
    F. A. Evangelista, J. M. Turney, T. D. Crawford, and C. D. Sherrill,
    J. Chem. Theory Comput. 13(7) pp 3185--3197 (2017).
    (doi: 10.1021/acs.jctc.7b00174)

    -----------------------------------------------------------------------


    Psi4 started on: Friday, 30 October 2020 11:18AM

    Process ID: 140597
    PSIDATADIR: /home/fs71337/airmler/src/psi4_uhf/build/stage/usr/local/psi4/share/psi4
    Memory:     500.0 MiB
    Threads:    48
    
  ==> Input File <==

--------------------------------------------------------------------------
# Any line starting with the # character is a comment line
memory 250000 mb
molecule molecule{
1 2
N          0.0000001497        0.0000000000        0.0000000009
H         -0.0000006933        0.0000000000       -1.0198269489
H         -0.0000006933        0.8831960411        0.5099134935
H         -0.0000006933       -0.8831960411        0.5099134431
}

set {
  reference uhf
  basis aug-cc-pv(5+d)z
  scf_type OUT_OF_CORE
  freeze_core true
}

energy('ccsd')
--------------------------------------------------------------------------

  Memory set to 232.831 GiB by Python driver.

*** tstart() called on n412-019.vsc4.prov
*** at Fri Oct 30 11:18:56 2020

   => Loading Basis Set <=

    Name: AUG-CC-PV(5+D)Z
    Role: ORBITAL
    Keyword: BASIS
    atoms 1   entry N          line   300 file /home/fs71337/airmler/src/psi4_uhf/build/stage/usr/local/psi4/share/psi4/basis/aug-cc-pv_5pd_z.gbs 
    atoms 2-4 entry H          line    56 file /home/fs71337/airmler/src/psi4_uhf/build/stage/usr/local/psi4/share/psi4/basis/aug-cc-pv_5pd_z.gbs 


         ---------------------------------------------------------
                                   SCF
            by Justin Turney, Rob Parrish, Andy Simmonett
                             and Daniel Smith
                              UHF Reference
                       48 Threads, 238418 MiB Core
         ---------------------------------------------------------

  ==> Geometry <==

    Molecular point group: c1
    Full point group: C1

    Geometry (in Angstrom), charge = 1, multiplicity = 2:

       Center              X                  Y                   Z               Mass       
    ------------   -----------------  -----------------  -----------------  -----------------
           N          0.000000149695     0.000000000000     0.000000000888    14.003074004780
           H         -0.000000693305     0.000000000000    -1.019826948912     1.007825032070
           H         -0.000000693305     0.883196041100     0.509913493488     1.007825032070
           H         -0.000000693305    -0.883196041100     0.509913443088     1.007825032070

  Running in c1 symmetry.

  Rotational constants: A =     10.72179  B =     10.72179  C =      5.36089 [cm^-1]
  Rotational constants: A = 321431.06266  B = 321431.04432  C = 160715.52675 [MHz]
  Nuclear repulsion =   11.795416131164147

  Charge       = 1
  Multiplicity = 2
  Electrons    = 9
  Nalpha       = 5
  Nbeta        = 4

  ==> Algorithm <==

  SCF Algorithm Type is OUT_OF_CORE.
  DIIS enabled.
  MOM disabled.
  Fractional occupation disabled.
  Guess Type is GWH.
  Energy threshold   = 1.00e-08
  Density threshold  = 1.00e-08
  Integral threshold = 0.00e+00

  ==> Primary Basis <==

  Basis Set: AUG-CC-PV(5+D)Z
    Blend: AUG-CC-PV(5+D)Z
    Number of shells: 87
    Number of basis function: 367
    Number of Cartesian functions: 497
    Spherical Harmonics?: true
    Max angular momentum: 5

  ==> Pre-Iterations <==

   -------------------------------------------------------
    Irrep   Nso     Nmo     Nalpha   Nbeta   Ndocc  Nsocc
   -------------------------------------------------------
     A        367     367       0       0       0       0
   -------------------------------------------------------
    Total     367     367       5       4       4       1
   -------------------------------------------------------

  ==> Integral Setup <==

  ==> DiskJK: Disk-Based J/K Matrices <==

    J tasked:                  Yes
    K tasked:                  Yes
    wK tasked:                  No
    Memory (MB):            178813
    Schwarz Cutoff:          1E-12

  Minimum eigenvalue in the overlap matrix is 6.3587540425E-06.
  Using Symmetric Orthogonalization.

  SCF Guess: Generalized Wolfsberg-Helmholtz.

  ==> Iterations <==

                        Total Energy        Delta E     RMS |[F,P]|

   @UHF iter   1:    21.15579452097904    2.11558e+01   2.58874e-01 
   @UHF iter   2:   -55.30001084683474   -7.64558e+01   1.27199e-02 DIIS
   @UHF iter   3:   -55.82819345663823   -5.28183e-01   7.63688e-03 DIIS
   @UHF iter   4:   -55.90428054717852   -7.60871e-02   1.11577e-03 DIIS
   @UHF iter   5:   -55.90782457271213   -3.54403e-03   2.75316e-04 DIIS
   @UHF iter   6:   -55.90815465145515   -3.30079e-04   8.97439e-05 DIIS
   @UHF iter   7:   -55.90821875583197   -6.41044e-05   4.09507e-05 DIIS
   @UHF iter   8:   -55.90823054100666   -1.17852e-05   9.53386e-06 DIIS
   @UHF iter   9:   -55.90823129245287   -7.51446e-07   1.97904e-06 DIIS
   @UHF iter  10:   -55.90823131905572   -2.66028e-08   2.63160e-07 DIIS
   @UHF iter  11:   -55.90823131937789   -3.22174e-10   7.92662e-08 DIIS
   @UHF iter  12:   -55.90823131940864   -3.07523e-11   2.21316e-08 DIIS
   @UHF iter  13:   -55.90823131941208   -3.43903e-12   7.03690e-09 DIIS

  ==> Post-Iterations <==

   @Spin Contamination Metric:   1.121106914E-02
   @S^2 Expected:                7.500000000E-01
   @S^2 Observed:                7.612110691E-01
   @S   Expected:                5.000000000E-01
   @S   Observed:                5.000000000E-01

    Orbital Energies (a.u.)
    -----------------------

    Alpha Occupied:                                                       

       1A    -16.005726     2A     -1.586526     3A     -1.060957  
       4A     -1.060957     5A     -0.921892  

    Alpha Virtual:                                                        

       6A     -0.151927     7A     -0.097217     8A     -0.097217  
       9A     -0.082705    10A     -0.048598    11A     -0.039556  
      12A     -0.039556    13A     -0.020345    14A     -0.020345  
      15A     -0.008226    16A     -0.003961    17A     -0.003961  
      18A      0.056153    19A      0.079509    20A      0.089063  
      21A      0.089063    22A      0.101649    23A      0.111713  
      24A      0.111713    25A      0.127251    26A      0.127251  
      27A      0.132455    28A      0.172643    29A      0.172643  
      30A      0.210864    31A      0.253422    32A      0.277377  
      33A      0.277377    34A      0.345431    35A      0.345431  
      36A      0.366730    37A      0.368672    38A      0.368672  
      39A      0.372861    40A      0.412672    41A      0.412672  
      42A      0.419830    43A      0.432446    44A      0.432446  
      45A      0.433552    46A      0.448559    47A      0.450069  
      48A      0.450069    49A      0.464960    50A      0.464960  
      51A      0.529437    52A      0.583191    53A      0.583191  
      54A      0.623585    55A      0.683974    56A      0.733917  
      57A      0.733917    58A      0.759184    59A      0.808168  
      60A      0.808168    61A      0.816345    62A      0.838817  
      63A      0.838817    64A      0.984285    65A      0.986762  
      66A      0.986762    67A      1.004777    68A      1.007911  
      69A      1.037822    70A      1.037822    71A      1.044232  
      72A      1.044232    73A      1.075334    74A      1.096269  
      75A      1.096269    76A      1.115035    77A      1.115035  
      78A      1.119477    79A      1.119477    80A      1.131096  
      81A      1.165313    82A      1.195578    83A      1.195578  
      84A      1.232745    85A      1.232745    86A      1.233940  
      87A      1.295101    88A      1.295101    89A      1.317330  
      90A      1.326881    91A      1.427314    92A      1.445646  
      93A      1.445646    94A      1.475248    95A      1.528231  
      96A      1.528231    97A      1.554224    98A      1.741010  
      99A      1.741010   100A      1.870327   101A      1.879780  
     102A      1.879780   103A      1.905982   104A      1.967749  
     105A      2.042781   106A      2.042781   107A      2.072905  
     108A      2.092409   109A      2.092409   110A      2.096080  
     111A      2.096080   112A      2.188420   113A      2.188420  
     114A      2.190514   115A      2.190514   116A      2.196561  
     117A      2.226559   118A      2.246770   119A      2.403947  
     120A      2.403947   121A      2.439613   122A      2.518001  
     123A      2.518001   124A      2.589803   125A      2.589803  
     126A      2.611340   127A      2.656533   128A      2.656533  
     129A      2.687518   130A      2.695120   131A      2.708870  
     132A      2.708870   133A      2.800683   134A      2.800683  
     135A      2.842592   136A      2.842592   137A      2.919014  
     138A      2.930430   139A      2.979787   140A      3.053721  
     141A      3.053721   142A      3.067237   143A      3.081444  
     144A      3.081444   145A      3.112723   146A      3.173875  
     147A      3.203497   148A      3.203497   149A      3.263010  
     150A      3.263010   151A      3.321301   152A      3.321301  
     153A      3.363057   154A      3.394680   155A      3.394680  
     156A      3.407336   157A      3.473658   158A      3.473658  
     159A      3.485657   160A      3.489686   161A      3.489687  
     162A      3.562113   163A      3.677316   164A      3.814596  
     165A      3.814596   166A      3.869220   167A      3.944210  
     168A      3.944210   169A      3.944714   170A      3.944714  
     171A      4.150551   172A      4.160655   173A      4.271003  
     174A      4.271003   175A      4.334804   176A      4.335226  
     177A      4.488402   178A      4.488402   179A      4.489220  
     180A      4.629269   181A      4.677681   182A      4.677681  
     183A      4.931241   184A      4.931241   185A      4.978451  
     186A      4.984164   187A      4.984164   188A      5.029232  
     189A      5.045321   190A      5.045321   191A      5.071549  
     192A      5.191072   193A      5.191072   194A      5.253468  
     195A      5.300005   196A      5.300005   197A      5.334027  
     198A      5.334027   199A      5.477794   200A      5.483113  
     201A      5.483113   202A      5.506150   203A      5.568399  
     204A      5.568399   205A      5.663870   206A      5.740357  
     207A      5.740357   208A      5.766237   209A      5.766237  
     210A      5.818130   211A      5.828309   212A      5.828309  
     213A      5.988679   214A      5.988679   215A      6.015372  
     216A      6.090272   217A      6.329046   218A      6.395667  
     219A      6.396933   220A      6.396933   221A      6.466231  
     222A      6.466231   223A      6.541716   224A      6.623436  
     225A      6.754504   226A      6.754504   227A      7.026927  
     228A      7.026927   229A      7.219747   230A      7.219748  
     231A      7.357566   232A      7.449775   233A      7.449775  
     234A      7.487487   235A      7.493990   236A      7.652967  
     237A      7.652967   238A      7.869823   239A      7.871047  
     240A      8.005208   241A      8.202590   242A      8.202590  
     243A      8.355917   244A      8.355917   245A      8.428185  
     246A      8.665457   247A      8.665458   248A      9.039114  
     249A      9.051836   250A      9.271286   251A      9.271286  
     252A      9.436202   253A      9.436202   254A      9.957176  
     255A      9.957176   256A     11.663126   257A     11.874343  
     258A     11.874343   259A     11.882526   260A     11.993672  
     261A     11.993672   262A     12.088454   263A     12.243196  
     264A     12.243196   265A     12.337393   266A     12.774716  
     267A     12.774716   268A     12.780877   269A     12.865322  
     270A     12.865322   271A     12.941258   272A     12.941258  
     273A     12.992028   274A     13.001906   275A     13.001906  
     276A     13.090055   277A     13.101691   278A     13.101691  
     279A     13.248876   280A     13.248876   281A     13.256870  
     282A     13.358821   283A     13.406299   284A     13.434243  
     285A     13.434243   286A     13.456891   287A     13.456891  
     288A     13.466903   289A     13.481589   290A     13.481589  
     291A     13.615503   292A     13.671737   293A     13.732131  
     294A     13.732131   295A     13.871916   296A     13.882850  
     297A     13.906722   298A     13.906722   299A     14.081542  
     300A     14.112474   301A     14.112474   302A     14.138943  
     303A     14.150552   304A     14.150552   305A     14.241050  
     306A     14.241050   307A     14.343539   308A     14.367180  
     309A     14.367180   310A     14.585740   311A     14.813881  
     312A     14.813881   313A     14.978195   314A     14.978195  
     315A     15.048914   316A     15.118099   317A     15.155742  
     318A     15.155742   319A     15.213496   320A     15.316678  
     321A     15.505812   322A     15.505812   323A     15.631215  
     324A     15.666617   325A     15.731314   326A     15.731315  
     327A     15.929522   328A     16.175939   329A     16.175939  
     330A     16.263103   331A     16.263103   332A     16.307625  
     333A     16.381731   334A     16.631605   335A     16.631605  
     336A     16.905233   337A     16.962107   338A     16.962107  
     339A     16.997825   340A     17.181737   341A     17.181738  
     342A     17.468028   343A     17.468028   344A     17.642810  
     345A     17.894858   346A     17.894858   347A     18.005476  
     348A     18.297055   349A     18.401218   350A     18.401219  
     351A     18.843589   352A     18.843589   353A     19.795079  
     354A     19.865941   355A     19.865941   356A     20.207679  
     357A     20.711131   358A     20.711131   359A     21.471194  
     360A     21.471194   361A     22.353583   362A     22.458197  
     363A     22.758853   364A     22.758853   365A     24.233020  
     366A     24.233020   367A     55.067053  

    Beta Occupied:                                                        

       1A    -15.969706     2A     -1.456573     3A     -1.033945  
       4A     -1.033945  

    Beta Virtual:                                                         

       5A     -0.248482     6A     -0.144663     7A     -0.095638  
       8A     -0.095638     9A     -0.063039    10A     -0.043122  
      11A     -0.039955    12A     -0.039955    13A     -0.018046  
      14A     -0.018046    15A     -0.002757    16A     -0.001605  
      17A     -0.001605    18A      0.079405    19A      0.081070  
      20A      0.089165    21A      0.089165    22A      0.111372  
      23A      0.111499    24A      0.111499    25A      0.131285  
      26A      0.131285    27A      0.136931    28A      0.179533  
      29A      0.179533    30A      0.222505    31A      0.280463  
      32A      0.280463    33A      0.292544    34A      0.346958  
      35A      0.346958    36A      0.365967    37A      0.371023  
      38A      0.371023    39A      0.380998    40A      0.412909  
      41A      0.412909    42A      0.431842    43A      0.433355  
      44A      0.433355    45A      0.438440    46A      0.448718  
      47A      0.450570    48A      0.450570    49A      0.467905  
      50A      0.467905    51A      0.541140    52A      0.605495  
      53A      0.605495    54A      0.627119    55A      0.687476  
      56A      0.736557    57A      0.736557    58A      0.758486  
      59A      0.812047    60A      0.812047    61A      0.843013  
      62A      0.843013    63A      0.867418    64A      0.988024  
      65A      0.988024    66A      1.003656    67A      1.012520  
      68A      1.019645    69A      1.041188    70A      1.041188  
      71A      1.048760    72A      1.048760    73A      1.082182  
      74A      1.097549    75A      1.097549    76A      1.116816  
      77A      1.116816    78A      1.120146    79A      1.120146  
      80A      1.133168    81A      1.165475    82A      1.195972  
      83A      1.195972    84A      1.236651    85A      1.238518  
      86A      1.238518    87A      1.314204    88A      1.314204  
      89A      1.317362    90A      1.337742    91A      1.428851  
      92A      1.446500    93A      1.446500    94A      1.474896  
      95A      1.532470    96A      1.532470    97A      1.593123  
      98A      1.753054    99A      1.753054   100A      1.875452  
     101A      1.888425   102A      1.888425   103A      1.923543  
     104A      1.970233   105A      2.041607   106A      2.041607  
     107A      2.082774   108A      2.097257   109A      2.097257  
     110A      2.102825   111A      2.102825   112A      2.196395  
     113A      2.196395   114A      2.220482   115A      2.220482  
     116A      2.225070   117A      2.251468   118A      2.255080  
     119A      2.405818   120A      2.405818   121A      2.444338  
     122A      2.521277   123A      2.521277   124A      2.594076  
     125A      2.594076   126A      2.611829   127A      2.662011  
     128A      2.662011   129A      2.687416   130A      2.708330  
     131A      2.712311   132A      2.712311   133A      2.806255  
     134A      2.806255   135A      2.844041   136A      2.844041  
     137A      2.919610   138A      2.944615   139A      2.985001  
     140A      3.056636   141A      3.056636   142A      3.075744  
     143A      3.084495   144A      3.084495   145A      3.113192  
     146A      3.197778   147A      3.207186   148A      3.207186  
     149A      3.268219   150A      3.268219   151A      3.330699  
     152A      3.330699   153A      3.363279   154A      3.398711  
     155A      3.398711   156A      3.414892   157A      3.477674  
     158A      3.477674   159A      3.487811   160A      3.492560  
     161A      3.492560   162A      3.563658   163A      3.685188  
     164A      3.820886   165A      3.820886   166A      3.874347  
     167A      3.945597   168A      3.945597   169A      3.973660  
     170A      3.973660   171A      4.162198   172A      4.170385  
     173A      4.275287   174A      4.275287   175A      4.367992  
     176A      4.371608   177A      4.488105   178A      4.496276  
     179A      4.496276   180A      4.644535   181A      4.682938  
     182A      4.682938   183A      4.937587   184A      4.937587  
     185A      4.981241   186A      4.989096   187A      4.989096  
     188A      5.038273   189A      5.056196   190A      5.056196  
     191A      5.090798   192A      5.194649   193A      5.194649  
     194A      5.256498   195A      5.305557   196A      5.305557  
     197A      5.345633   198A      5.345633   199A      5.488064  
     200A      5.496291   201A      5.496291   202A      5.515190  
     203A      5.578817   204A      5.578817   205A      5.667326  
     206A      5.742935   207A      5.742935   208A      5.775438  
     209A      5.775438   210A      5.818855   211A      5.831950  
     212A      5.831950   213A      5.995309   214A      5.995309  
     215A      6.024887   216A      6.105394   217A      6.347686  
     218A      6.401141   219A      6.404557   220A      6.404557  
     221A      6.486870   222A      6.486870   223A      6.551632  
     224A      6.636996   225A      6.766210   226A      6.766210  
     227A      7.033369   228A      7.033369   229A      7.224256  
     230A      7.224256   231A      7.357373   232A      7.478856  
     233A      7.478857   234A      7.501133   235A      7.501385  
     236A      7.661090   237A      7.661090   238A      7.872162  
     239A      7.882871   240A      8.036986   241A      8.216405  
     242A      8.216405   243A      8.360034   244A      8.360034  
     245A      8.455531   246A      8.666563   247A      8.666564  
     248A      9.043081   249A      9.062966   250A      9.295197  
     251A      9.295197   252A      9.441863   253A      9.441863  
     254A      9.963609   255A      9.963609   256A     11.690842  
     257A     11.884907   258A     11.884907   259A     11.897197  
     260A     12.006268   261A     12.006268   262A     12.095210  
     263A     12.252967   264A     12.252967   265A     12.347143  
     266A     12.776916   267A     12.776916   268A     12.781250  
     269A     12.866281   270A     12.866281   271A     12.940808  
     272A     12.940808   273A     12.992129   274A     13.002751  
     275A     13.002751   276A     13.104445   277A     13.104445  
     278A     13.121850   279A     13.256195   280A     13.256195  
     281A     13.259768   282A     13.382110   283A     13.407113  
     284A     13.443515   285A     13.443515   286A     13.458765  
     287A     13.458765   288A     13.477298   289A     13.486733  
     290A     13.486733   291A     13.621506   292A     13.673830  
     293A     13.743878   294A     13.743878   295A     13.875442  
     296A     13.883086   297A     13.914442   298A     13.914442  
     299A     14.081590   300A     14.115162   301A     14.115162  
     302A     14.137796   303A     14.155410   304A     14.155410  
     305A     14.242076   306A     14.242076   307A     14.357347  
     308A     14.369198   309A     14.369198   310A     14.603401  
     311A     14.828157   312A     14.828157   313A     14.981519  
     314A     14.981519   315A     15.053108   316A     15.126265  
     317A     15.174819   318A     15.174819   319A     15.220190  
     320A     15.319338   321A     15.521497   322A     15.521497  
     323A     15.631179   324A     15.674076   325A     15.733369  
     326A     15.733369   327A     15.929725   328A     16.189419  
     329A     16.189419   330A     16.265293   331A     16.265293  
     332A     16.333564   333A     16.392725   334A     16.636737  
     335A     16.636738   336A     16.920576   337A     16.969829  
     338A     16.969829   339A     17.004321   340A     17.191490  
     341A     17.191491   342A     17.478864   343A     17.478864  
     344A     17.647860   345A     17.897189   346A     17.897189  
     347A     18.003650   348A     18.320851   349A     18.401841  
     350A     18.401842   351A     18.860460   352A     18.860460  
     353A     19.795777   354A     19.870213   355A     19.870213  
     356A     20.217164   357A     20.727862   358A     20.727862  
     359A     21.473371   360A     21.473371   361A     22.364050  
     362A     22.460136   363A     22.765479   364A     22.765479  
     365A     24.235364   366A     24.235364   367A     55.081183  

    Final Occupation by Irrep:
              A 
    DOCC [     4 ]
    SOCC [     1 ]

  Energy converged.

  @UHF Final Energy:   -55.90823131941208

   => Energetics <=

    Nuclear Repulsion Energy =             11.7954161311641474
    One-Electron Energy =                 -95.2770675419239979
    Two-Electron Energy =                  27.5734200913477743
    Total Energy =                        -55.9082313194120815


  UHF NO Occupations:
  HONO-2 :    3  A 1.9989899
  HONO-1 :    4  A 1.9964088
  HONO-0 :    5  A 1.0000000
  LUNO+0 :    6  A 0.0035912
  LUNO+1 :    7  A 0.0010101
  LUNO+2 :    8  A 0.0010101
  LUNO+3 :    9  A 0.0000016



Properties will be evaluated at   0.000000,   0.000000,   0.000000 Bohr

Properties computed using the SCF density matrix

  Nuclear Dipole Moment: (a.u.)
     X:    -0.0000      Y:     0.0000      Z:    -0.0000

  Electronic Dipole Moment: (a.u.)
     X:     0.0000      Y:     0.0000      Z:     0.0000

  Dipole Moment: (a.u.)
     X:    -0.0000      Y:     0.0000      Z:    -0.0000     Total:     0.0000

  Dipole Moment: (Debye)
     X:    -0.0000      Y:     0.0000      Z:    -0.0000     Total:     0.0000


*** tstop() called on n412-019.vsc4.prov at Fri Oct 30 12:08:57 2020
Module time:
	user time   =    2947.71 seconds =      49.13 minutes
	system time =     313.14 seconds =       5.22 minutes
	total time  =       3001 seconds =      50.02 minutes
Total time:
	user time   =    2947.71 seconds =      49.13 minutes
	system time =     313.14 seconds =       5.22 minutes
	total time  =       3001 seconds =      50.02 minutes

*** tstart() called on n412-019.vsc4.prov
*** at Fri Oct 30 12:08:57 2020


	Wfn Parameters:
	--------------------
	Wavefunction         = CCSD
	Number of irreps     = 1
	Number of MOs        = 367
	Number of active MOs = 366
	AO-Basis             = NONE
	Semicanonical        = false
	Reference            = UHF
	Print Level          = 1

	IRREP	# MOs	# FZDC	# DOCC	# SOCC	# VIRT	# FZVR
	-----	-----	------	------	------	------	------
	 A	   367	    1	    3	    1	    362	    0
	Transforming integrals...
	IWL integrals will be deleted.
	(OO|OO)...
	Presorting SO-basis two-electron integrals.
	Sorting File: SO Ints (nn|nn) nbuckets = 1
	Transforming the one-electron integrals and constructing Fock matrices
	Starting AA/AB first half-transformation.
	Sorting AA/AB half-transformed integrals.
	Starting BB first half-transformation.
	Sorting BB half-transformed integrals.
	First half integral transformation complete.
	Starting AA second half-transformation.
	Starting AB second half-transformation.
	Starting BB second half-transformation.
	Two-electron integral transformation complete.
	(OO|OV)...
	Starting AA second half-transformation.
	Starting AB second half-transformation.
	Starting BB second half-transformation.
	Two-electron integral transformation complete.
	(OO|VV)...
	Starting AA second half-transformation.
	Starting AB second half-transformation.
	Starting BB second half-transformation.
	Two-electron integral transformation complete.
	(OV|OO)...
	Starting AA/AB first half-transformation.
	Sorting AA/AB half-transformed integrals.
	Starting BB first half-transformation.
	Sorting BB half-transformed integrals.
	First half integral transformation complete.
	Starting AA second half-transformation.
	Starting AB second half-transformation.
	Starting BB second half-transformation.
	Two-electron integral transformation complete.
	(OV|OV)...
	Starting AA second half-transformation.
	Starting AB second half-transformation.
	Starting BB second half-transformation.
	Two-electron integral transformation complete.
	(OV|VV)...
	Starting AA second half-transformation.
	Starting AB second half-transformation.
	Starting BB second half-transformation.
	Two-electron integral transformation complete.
	(VV|OO)...
	Starting AA/AB first half-transformation.
	Sorting AA/AB half-transformed integrals.
	Starting BB first half-transformation.
	Sorting BB half-transformed integrals.
	First half integral transformation complete.
	Starting AA second half-transformation.
	Starting AB second half-transformation.
	Starting BB second half-transformation.
	Two-electron integral transformation complete.
	(VV|OV)...
	Starting AA second half-transformation.
	Starting AB second half-transformation.
	Starting BB second half-transformation.
	Two-electron integral transformation complete.
	(VV|VV)...
	Starting AA second half-transformation.
	Starting AB second half-transformation.
	Starting BB second half-transformation.
	Two-electron integral transformation complete.
	Frozen core energy     =    -47.84650698390709

	Size of irrep 0 of <AB|CD> integrals:   4269.446 (MW) /  34155.570 (MB)
	Total:                                  4269.446 (MW) /  34155.570 (MB)

	Size of irrep 0 of <ab|cd> integrals:   4316.884 (MW) /  34535.074 (MB)
	Total:                                  4316.884 (MW) /  34535.074 (MB)

	Size of irrep 0 of <Ab|Cd> integrals:  17267.537 (MW) / 138140.295 (MB)
	Total:                                 17267.537 (MW) / 138140.295 (MB)

	Size of irrep 0 of <IA|BC> integrals:    189.752 (MW) /   1518.014 (MB)
	Total:                                   189.752 (MW) /   1518.014 (MB)

	Size of irrep 0 of <ia|bc> integrals:    143.496 (MW) /   1147.972 (MB)
	Total:                                   143.496 (MW) /   1147.972 (MB)

	Size of irrep 0 of <Ia|Bc> integrals:    190.802 (MW) /   1526.412 (MB)
	Total:                                   190.802 (MW) /   1526.412 (MB)

	Size of irrep 0 of <iA|bC> integrals:    142.707 (MW) /   1141.655 (MB)
	Total:                                   142.707 (MW) /   1141.655 (MB)

	Size of irrep 0 of tIjAb amplitudes:       1.577 (MW) /     12.615 (MB)
	Total:                                     1.577 (MW) /     12.615 (MB)

	Nuclear Rep. energy          =     11.79541613116415
	SCF energy                   =    -55.90823131941208
	One-electron energy          =    -31.55948546815315
	Two-electron (AA) energy     =      3.11369612707355
	Two-electron (BB) energy     =      1.39926613110340
	Two-electron (AB) energy     =      7.18938274330713
	Two-electron energy          =     11.70234500148409
	Reference energy             =    -55.90823131941201

*** tstop() called on n412-019.vsc4.prov at Fri Oct 30 13:16:38 2020
Module time:
	user time   =    8992.62 seconds =     149.88 minutes
	system time =    1209.62 seconds =      20.16 minutes
	total time  =       4061 seconds =      67.68 minutes
Total time:
	user time   =   11940.43 seconds =     199.01 minutes
	system time =    1522.76 seconds =      25.38 minutes
	total time  =       7062 seconds =     117.70 minutes

*** tstart() called on n412-019.vsc4.prov
*** at Fri Oct 30 13:16:38 2020

            **************************
            *                        *
            *        CCENERGY        *
            *                        *
            **************************

    Nuclear Rep. energy (wfn)     =   11.795416131164147
    SCF energy          (wfn)     =  -55.908231319412081
    Reference energy    (file100) =  -55.908231319412010

    Input parameters:
    -----------------
    Wave function   =     CCSD
    Reference wfn   =     UHF
    Brueckner       =     No
    Memory (Mbytes) =     250000.0
    Maxiter         =     50
    R_Convergence   =     1.0e-07
    E_Convergence   =     1.0e-06
    Restart         =     Yes
    DIIS            =     Yes
    AO Basis        =     NONE
    ABCD            =     NEW
    Cache Level     =     2
    Cache Type      =     LRU
    Print Level     =     1
    Num. of threads =     48
    # Amps to Print =     10
    Print MP2 Amps? =     No
    Analyze T2 Amps =     No
    Print Pair Ener =     No
    Local CC        =     No
    SCS-MP2         =     False
    SCSN-MP2        =     False
    SCS-CCSD        =     False

MP2 correlation energy -0.1962147861327170
                Solving CC Amplitude Equations
                ------------------------------
  Iter             Energy              RMS        T1Diag      D1Diag    New D1Diag    D2Diag
  ----     ---------------------    ---------   ----------  ----------  ----------   --------
     0        -0.196214786132727    0.000e+00    0.000000    0.000000    0.000000    0.000000
     1        -0.205975891604335    3.439e-02    0.007171    0.000000    0.000000    0.000000
     2        -0.210999613173126    1.274e-02    0.009297    0.000000    0.000000    0.000000
     3        -0.211477483943132    4.663e-03    0.010548    0.000000    0.000000    0.000000
     4        -0.211511282645963    1.858e-03    0.010934    0.000000    0.000000    0.000000
     5        -0.211534045375455    5.252e-04    0.010955    0.000000    0.000000    0.000000
     6        -0.211533533592961    1.441e-04    0.010939    0.000000    0.000000    0.000000
     7        -0.211534711673522    4.604e-05    0.010927    0.000000    0.000000    0.000000
     8        -0.211535374692218    1.098e-05    0.010924    0.000000    0.000000    0.000000
     9        -0.211535181660943    2.815e-06    0.010923    0.000000    0.000000    0.000000
    10        -0.211535244389709    7.860e-07    0.010923    0.000000    0.000000    0.000000
    11        -0.211535254782385    1.991e-07    0.010923    0.000000    0.000000    0.000000
    12        -0.211535259402304    5.024e-08    0.010923    0.000000    0.000000    0.000000
    12        -0.211535259402304    5.024e-08    0.010923    0.000000    0.000000    0.000000

    Iterations converged.


    CCSD corr. energy   =   -0.211535259402304
    PPL corr. energy    =    0.051692872363962
    OS PPL corr. energy =    0.045289153100849
    SS PPL corr. energy =    0.006403719263114
    Largest TIA Amplitudes:
              3   3        -0.0063208674
              3  12        -0.0058207131
              0   0         0.0049202319
              0  16        -0.0043894938
              3  25        -0.0042035294
              0  24        -0.0042002474
              0   4         0.0041372905
              0  36         0.0031580088
              0   9         0.0030149349
              0  49         0.0024987586

    Largest Tia Amplitudes:
              1  21         0.0059363452
              2  20         0.0059361396
              0  17         0.0052581711
              0  40        -0.0047126278
              0  62         0.0047082693
              0  25         0.0045269237
              0   5        -0.0040013235
              0   1        -0.0039485162
              1  39        -0.0038582981
              2  38         0.0038581539

    Largest TIJAB Amplitudes:
      3   1  55  19         0.0062027665
      3   2  55  20        -0.0062027642
      3   1  25  19         0.0058983703
      3   2  25  20        -0.0058983680
      2   1  38  37         0.0057563533
      3   1  46  24        -0.0057177418
      3   2  47  24         0.0057177411
      2   1  57  19         0.0055736342
      2   1  56  20        -0.0055736327
      3   2  58  47        -0.0053226781

    Largest Tijab Amplitudes:
      1   0  48   0        -0.0069533871
      2   0  47   0        -0.0069533868
      2   1  56  20        -0.0055176804
      2   1  57  21        -0.0055176765
      2   1  39  38         0.0054410695
      1   0  82   0         0.0047783126
      2   0  83   0         0.0047783114
      2   1  56  38        -0.0045819146
      2   1  57  39         0.0045819115
      2   1  29  20        -0.0045637853

    Largest TIjAb Amplitudes:
      3   0  16   0        -0.0231433076
      3   0  24   0        -0.0216772633
      3   0  36   0         0.0216347980
      3   0  58   0        -0.0209797215
      3   0   0   0         0.0199026184
      3   0   4   0         0.0189151890
      1   1  19  21         0.0170912080
      2   2  20  20        -0.0170912055
      3   0 110   0         0.0167154307
      3   0   9   0         0.0156194514

    SCF energy       (wfn)                    =  -55.908231319412081
    Reference energy (file100)                =  -55.908231319412010

    Opposite-spin MP2 correlation energy      =   -0.157569333085758
    Same-spin MP2 correlation energy          =   -0.038645453046785
    MP2 correlation energy                    =   -0.196214786132717
      * MP2 total energy                      =  -56.104446105544724

    Opposite-spin CCSD correlation energy     =   -0.174040991087352
    Same-spin CCSD correlation energy         =   -0.037494266623228
    CCSD correlation energy                   =   -0.211535259402304
      * CCSD total energy                     =  -56.119766578814314


*** tstop() called on n412-019.vsc4.prov at Fri Oct 30 14:13:34 2020
Module time:
	user time   =    8807.73 seconds =     146.80 minutes
	system time =    1748.75 seconds =      29.15 minutes
	total time  =       3416 seconds =      56.93 minutes
Total time:
	user time   =   20748.19 seconds =     345.80 minutes
	system time =    3271.51 seconds =      54.53 minutes
	total time  =      10478 seconds =     174.63 minutes

*** Psi4 exiting successfully. Buy a developer a beer!
