
    -----------------------------------------------------------------------
          Psi4: An Open-Source Ab Initio Electronic Structure Package
                               Psi4 1.2a1.dev938 

                         Git: Rev {HEAD} fc51d9a dirty


    R. M. Parrish, L. A. Burns, D. G. A. Smith, A. C. Simmonett,
    A. E. DePrince III, E. G. Hohenstein, U. Bozkaya, A. Yu. Sokolov,
    R. Di Remigio, R. M. Richard, J. F. Gonthier, A. M. James,
    H. R. McAlexander, A. Kumar, M. Saitow, X. Wang, B. P. Pritchard,
    P. Verma, H. F. Schaefer III, K. Patkowski, R. A. King, E. F. Valeev,
    F. A. Evangelista, J. M. Turney, T. D. Crawford, and C. D. Sherrill,
    J. Chem. Theory Comput. 13(7) pp 3185--3197 (2017).
    (doi: 10.1021/acs.jctc.7b00174)

    -----------------------------------------------------------------------


    Psi4 started on: Thursday, 20 August 2020 09:01PM

    Process ID: 424636
    PSIDATADIR: /home/irmler/Programs/psi4/beforeGrueneis3/stage/usr/local/psi4/share/psi4
    Memory:     500.0 MiB
    Threads:    4
    
  ==> Input File <==

--------------------------------------------------------------------------
# Any line starting with the # character is a comment line
memory 250000 mb
molecule molecule{
1 2
N          0.0000001497        0.0000000000        0.0000000009
H         -0.0000006933        0.0000000000       -1.0198269489
H         -0.0000006933        0.8831960411        0.5099134935
H         -0.0000006933       -0.8831960411        0.5099134431
}

set {
  reference uhf
  basis aug-cc-pv(q+d)z
  scf_type OUT_OF_CORE
  freeze_core true
}

energy('ccsd')
--------------------------------------------------------------------------

  Memory set to 232.831 GiB by Python driver.

*** tstart() called on cqc05
*** at Thu Aug 20 21:01:51 2020

   => Loading Basis Set <=

    Name: AUG-CC-PV(Q+D)Z
    Role: ORBITAL
    Keyword: BASIS
    atoms 1   entry N          line   379 file /home/irmler/Programs/psi4/beforeGrueneis3/stage/usr/local/psi4/share/psi4/basis/aug-cc-pv_qpd_z.gbs 
    atoms 2-4 entry H          line    56 file /home/irmler/Programs/psi4/beforeGrueneis3/stage/usr/local/psi4/share/psi4/basis/aug-cc-pv_qpd_z.gbs 


         ---------------------------------------------------------
                                   SCF
            by Justin Turney, Rob Parrish, Andy Simmonett
                             and Daniel Smith
                              UHF Reference
                        4 Threads, 238418 MiB Core
         ---------------------------------------------------------

  ==> Geometry <==

    Molecular point group: c1
    Full point group: C1

    Geometry (in Angstrom), charge = 1, multiplicity = 2:

       Center              X                  Y                   Z               Mass       
    ------------   -----------------  -----------------  -----------------  -----------------
           N          0.000000149695     0.000000000000     0.000000000888    14.003074004780
           H         -0.000000693305     0.000000000000    -1.019826948912     1.007825032070
           H         -0.000000693305     0.883196041100     0.509913493488     1.007825032070
           H         -0.000000693305    -0.883196041100     0.509913443088     1.007825032070

  Running in c1 symmetry.

  Rotational constants: A =     10.72179  B =     10.72179  C =      5.36089 [cm^-1]
  Rotational constants: A = 321431.06266  B = 321431.04432  C = 160715.52675 [MHz]
  Nuclear repulsion =   11.795416131164147

  Charge       = 1
  Multiplicity = 2
  Electrons    = 9
  Nalpha       = 5
  Nbeta        = 4

  ==> Algorithm <==

  SCF Algorithm Type is OUT_OF_CORE.
  DIIS enabled.
  MOM disabled.
  Fractional occupation disabled.
  Guess Type is GWH.
  Energy threshold   = 1.00e-08
  Density threshold  = 1.00e-08
  Integral threshold = 0.00e+00

  ==> Primary Basis <==

  Basis Set: AUG-CC-PV(Q+D)Z
    Blend: AUG-CC-PV(Q+D)Z
    Number of shells: 62
    Number of basis function: 218
    Number of Cartesian functions: 270
    Spherical Harmonics?: true
    Max angular momentum: 4

  ==> Pre-Iterations <==

   -------------------------------------------------------
    Irrep   Nso     Nmo     Nalpha   Nbeta   Ndocc  Nsocc
   -------------------------------------------------------
     A        218     218       0       0       0       0
   -------------------------------------------------------
    Total     218     218       5       4       4       1
   -------------------------------------------------------

  ==> Integral Setup <==

  ==> DiskJK: Disk-Based J/K Matrices <==

    J tasked:                  Yes
    K tasked:                  Yes
    wK tasked:                  No
    Memory (MB):            178813
    Schwarz Cutoff:          1E-12

  Minimum eigenvalue in the overlap matrix is 6.1244114947E-05.
  Using Symmetric Orthogonalization.

  SCF Guess: Generalized Wolfsberg-Helmholtz.

  ==> Iterations <==

                        Total Energy        Delta E     RMS |[F,P]|

   @UHF iter   1:   -46.70125789558337   -4.67013e+01   7.09644e-02 
   @UHF iter   2:   -54.23438672601348   -7.53313e+00   1.63048e-02 DIIS
   @UHF iter   3:   -55.63964066979470   -1.40525e+00   8.36149e-03 DIIS
   @UHF iter   4:   -55.90243243577467   -2.62792e-01   8.84871e-04 DIIS
   @UHF iter   5:   -55.90700732897080   -4.57489e-03   1.41989e-04 DIIS
   @UHF iter   6:   -55.90727996947926   -2.72641e-04   5.99424e-05 DIIS
   @UHF iter   7:   -55.90734445620702   -6.44867e-05   2.15619e-05 DIIS
   @UHF iter   8:   -55.90735388045981   -9.42425e-06   4.99234e-06 DIIS
   @UHF iter   9:   -55.90735441074349   -5.30284e-07   7.21032e-07 DIIS
   @UHF iter  10:   -55.90735441808580   -7.34231e-09   1.00825e-07 DIIS
   @UHF iter  11:   -55.90735441819965   -1.13850e-10   1.72019e-08 DIIS
   @UHF iter  12:   -55.90735441820301   -3.36087e-12   2.79966e-09 DIIS

  ==> Post-Iterations <==

   @Spin Contamination Metric:   1.120305662E-02
   @S^2 Expected:                7.500000000E-01
   @S^2 Observed:                7.612030566E-01
   @S   Expected:                5.000000000E-01
   @S   Observed:                5.000000000E-01

    Orbital Energies (a.u.)
    -----------------------

    Alpha Occupied:                                                       

       1A    -16.006084     2A     -1.586623     3A     -1.060919  
       4A     -1.060919     5A     -0.921777  

    Alpha Virtual:                                                        

       6A     -0.151908     7A     -0.096781     8A     -0.096781  
       9A     -0.076741    10A     -0.042586    11A     -0.030192  
      12A     -0.030192    13A     -0.009330    14A     -0.009330  
      15A      0.008463    16A      0.011770    17A      0.011770  
      18A      0.092345    19A      0.107219    20A      0.119325  
      21A      0.119325    22A      0.132939    23A      0.159804  
      24A      0.159804    25A      0.173211    26A      0.177807  
      27A      0.177807    28A      0.214182    29A      0.214182  
      30A      0.299852    31A      0.382057    32A      0.382057  
      33A      0.386418    34A      0.460486    35A      0.473634  
      36A      0.473634    37A      0.486272    38A      0.486272  
      39A      0.520503    40A      0.520694    41A      0.537862  
      42A      0.537862    43A      0.552401    44A      0.552401  
      45A      0.564904    46A      0.606756    47A      0.610694  
      48A      0.610694    49A      0.621823    50A      0.621823  
      51A      0.641271    52A      0.707850    53A      0.707850  
      54A      0.861316    55A      0.948976    56A      0.970969  
      57A      0.970969    58A      1.069274    59A      1.069274  
      60A      1.070939    61A      1.106409    62A      1.159925  
      63A      1.159925    64A      1.258259    65A      1.264456  
      66A      1.264456    67A      1.386836    68A      1.386836  
      69A      1.408457    70A      1.408457    71A      1.413734  
      72A      1.436195    73A      1.470716    74A      1.470716  
      75A      1.507409    76A      1.532508    77A      1.532508  
      78A      1.623436    79A      1.623436    80A      1.649261  
      81A      1.680191    82A      1.680191    83A      1.691607  
      84A      1.691607    85A      1.702810    86A      1.738995  
      87A      1.740605    88A      1.744161    89A      1.816455  
      90A      1.816455    91A      2.074246    92A      2.074246  
      93A      2.122806    94A      2.122806    95A      2.154946  
      96A      2.262251    97A      2.411846    98A      2.483287  
      99A      2.493589   100A      2.541939   101A      2.548853  
     102A      2.548853   103A      2.560384   104A      2.560384  
     105A      2.594279   106A      2.646819   107A      2.646819  
     108A      2.673319   109A      2.673319   110A      2.757680  
     111A      2.785739   112A      2.846644   113A      2.846644  
     114A      2.981748   115A      2.981748   116A      2.986831  
     117A      2.986831   118A      3.170273   119A      3.236426  
     120A      3.236426   121A      3.311512   122A      3.559109  
     123A      3.576956   124A      3.576956   125A      3.666527  
     126A      3.666527   127A      3.740893   128A      3.740893  
     129A      3.741378   130A      3.998893   131A      4.068533  
     132A      4.068533   133A      4.326285   134A      4.336203  
     135A      4.336203   136A      4.450618   137A      4.690376  
     138A      4.690376   139A      4.716291   140A      4.716292  
     141A      4.851958   142A      5.093778   143A      5.205039  
     144A      5.232727   145A      5.232727   146A      6.379468  
     147A      6.379468   148A      6.383025   149A      6.613521  
     150A      6.613521   151A      6.704464   152A      6.954894  
     153A      7.122182   154A      7.122182   155A      7.162992  
     156A      7.202847   157A      7.211793   158A      7.211793  
     159A      7.231937   160A      7.231937   161A      7.361905  
     162A      7.361905   163A      7.382853   164A      7.745502  
     165A      7.847668   166A      7.847668   167A      7.920282  
     168A      7.920282   169A      7.979154   170A      7.979154  
     171A      8.070486   172A      8.240230   173A      8.291198  
     174A      8.349071   175A      8.349071   176A      8.525820  
     177A      8.525820   178A      8.530429   179A      8.551133  
     180A      8.551133   181A      8.586507   182A      8.666007  
     183A      8.666007   184A      8.745527   185A      8.860674  
     186A      8.860674   187A      8.966815   188A      9.069108  
     189A      9.069108   190A      9.112268   191A      9.364456  
     192A      9.419752   193A      9.419752   194A      9.470609  
     195A      9.539532   196A      9.539532   197A      9.837507  
     198A      9.890911   199A      9.904674   200A      9.904674  
     201A     10.038400   202A     10.038400   203A     10.390673  
     204A     10.556031   205A     10.556031   206A     11.330265  
     207A     11.507870   208A     11.583895   209A     11.793635  
     210A     11.793635   211A     12.549051   212A     12.549052  
     213A     12.863230   214A     12.863230   215A     14.166861  
     216A     14.585645   217A     14.585646   218A     35.312687  

    Beta Occupied:                                                        

       1A    -15.969988     2A     -1.456674     3A     -1.033905  
       4A     -1.033905  

    Beta Virtual:                                                         

       5A     -0.248500     6A     -0.144629     7A     -0.095143  
       8A     -0.095143     9A     -0.053101    10A     -0.036319  
      11A     -0.030669    12A     -0.030669    13A     -0.006598  
      14A     -0.006598    15A      0.014858    16A      0.014858  
      17A      0.015916    18A      0.107054    19A      0.119327  
      20A      0.119327    21A      0.121568    22A      0.144549  
      23A      0.162342    24A      0.162342    25A      0.180046  
      26A      0.180207    27A      0.180207    28A      0.223596  
      29A      0.223596    30A      0.310016    31A      0.385031  
      32A      0.385031    33A      0.447941    34A      0.459381  
      35A      0.475039    36A      0.475039    37A      0.489631  
      38A      0.489631    39A      0.522863    40A      0.536324  
      41A      0.540589    42A      0.540589    43A      0.552898  
      44A      0.552898    45A      0.567927    46A      0.607141  
      47A      0.612001    48A      0.612001    49A      0.623831  
      50A      0.623831    51A      0.660778    52A      0.735934  
      53A      0.735934    54A      0.869279    55A      0.946975  
      56A      0.976593    57A      0.976593    58A      1.068983  
      59A      1.075549    60A      1.075549    61A      1.153662  
      62A      1.163716    63A      1.163716    64A      1.268889  
      65A      1.268889    66A      1.288584    67A      1.399370  
      68A      1.399370    69A      1.413092    70A      1.413092  
      71A      1.434099    72A      1.437063    73A      1.473305  
      74A      1.473305    75A      1.513846    76A      1.535519  
      77A      1.535519    78A      1.623977    79A      1.623977  
      80A      1.661950    81A      1.680479    82A      1.680479  
      83A      1.709990    84A      1.709990    85A      1.710304  
      86A      1.738886    87A      1.740560    88A      1.745235  
      89A      1.823485    90A      1.823485    91A      2.074836  
      92A      2.074836    93A      2.129450    94A      2.129450  
      95A      2.160742    96A      2.300504    97A      2.411590  
      98A      2.487074    99A      2.500745   100A      2.552181  
     101A      2.552181   102A      2.569778   103A      2.569778  
     104A      2.578439   105A      2.593073   106A      2.650151  
     107A      2.650151   108A      2.682882   109A      2.682882  
     110A      2.793898   111A      2.823376   112A      2.861489  
     113A      2.861489   114A      2.994930   115A      2.994930  
     116A      3.019598   117A      3.019598   118A      3.196215  
     119A      3.238642   120A      3.238642   121A      3.310800  
     122A      3.573527   123A      3.582473   124A      3.582473  
     125A      3.685280   126A      3.685281   127A      3.750656  
     128A      3.769009   129A      3.769009   130A      4.007881  
     131A      4.069624   132A      4.069624   133A      4.332365  
     134A      4.342799   135A      4.342799   136A      4.469547  
     137A      4.699008   138A      4.699008   139A      4.747347  
     140A      4.747347   141A      4.873813   142A      5.128102  
     143A      5.211907   144A      5.238170   145A      5.238170  
     146A      6.380519   147A      6.380519   148A      6.383631  
     149A      6.614523   150A      6.614523   151A      6.707084  
     152A      6.965451   153A      7.128194   154A      7.128194  
     155A      7.176990   156A      7.210589   157A      7.222788  
     158A      7.222788   159A      7.232742   160A      7.232742  
     161A      7.365941   162A      7.365941   163A      7.381240  
     164A      7.758242   165A      7.849546   166A      7.849546  
     167A      7.937426   168A      7.937426   169A      7.992489  
     170A      7.992489   171A      8.086742   172A      8.249044  
     173A      8.357888   174A      8.357888   175A      8.365028  
     176A      8.529567   177A      8.530210   178A      8.530210  
     179A      8.557310   180A      8.557310   181A      8.588074  
     182A      8.677535   183A      8.677535   184A      8.743153  
     185A      8.862043   186A      8.862043   187A      8.977236  
     188A      9.102314   189A      9.102314   190A      9.125735  
     191A      9.384951   192A      9.434355   193A      9.434355  
     194A      9.488367   195A      9.548105   196A      9.548105  
     197A      9.841580   198A      9.903216   199A      9.910123  
     200A      9.910123   201A     10.076751   202A     10.076751  
     203A     10.403048   204A     10.561976   205A     10.561976  
     206A     11.352357   207A     11.531358   208A     11.590026  
     209A     11.820968   210A     11.820968   211A     12.554706  
     212A     12.554707   213A     12.870706   214A     12.870706  
     215A     14.178751   216A     14.590476   217A     14.590476  
     218A     35.333676  

    Final Occupation by Irrep:
              A 
    DOCC [     4 ]
    SOCC [     1 ]

  Energy converged.

  @UHF Final Energy:   -55.90735441820301

   => Energetics <=

    Nuclear Repulsion Energy =             11.7954161311641474
    One-Electron Energy =                 -95.2747490151701300
    Two-Electron Energy =                  27.5719784658029710
    Total Energy =                        -55.9073544182030133


  UHF NO Occupations:
  HONO-2 :    3  A 1.9989906
  HONO-1 :    4  A 1.9964114
  HONO-0 :    5  A 1.0000000
  LUNO+0 :    6  A 0.0035886
  LUNO+1 :    7  A 0.0010094
  LUNO+2 :    8  A 0.0010094
  LUNO+3 :    9  A 0.0000015



Properties will be evaluated at   0.000000,   0.000000,   0.000000 Bohr

Properties computed using the SCF density matrix

  Nuclear Dipole Moment: (a.u.)
     X:    -0.0000      Y:     0.0000      Z:    -0.0000

  Electronic Dipole Moment: (a.u.)
     X:     0.0000      Y:     0.0000      Z:     0.0000

  Dipole Moment: (a.u.)
     X:    -0.0000      Y:     0.0000      Z:    -0.0000     Total:     0.0000

  Dipole Moment: (Debye)
     X:    -0.0000      Y:     0.0000      Z:    -0.0000     Total:     0.0000


*** tstop() called on cqc05 at Thu Aug 20 21:05:27 2020
Module time:
	user time   =     205.32 seconds =       3.42 minutes
	system time =      11.87 seconds =       0.20 minutes
	total time  =        216 seconds =       3.60 minutes
Total time:
	user time   =     205.32 seconds =       3.42 minutes
	system time =      11.87 seconds =       0.20 minutes
	total time  =        216 seconds =       3.60 minutes

*** tstart() called on cqc05
*** at Thu Aug 20 21:05:27 2020


	Wfn Parameters:
	--------------------
	Wavefunction         = CCSD
	Number of irreps     = 1
	Number of MOs        = 218
	Number of active MOs = 217
	AO-Basis             = NONE
	Semicanonical        = false
	Reference            = UHF
	Print Level          = 1

	IRREP	# MOs	# FZDC	# DOCC	# SOCC	# VIRT	# FZVR
	-----	-----	------	------	------	------	------
	 A	   218	    1	    3	    1	    213	    0
	Transforming integrals...
	IWL integrals will be deleted.
	(OO|OO)...
	Presorting SO-basis two-electron integrals.
	Sorting File: SO Ints (nn|nn) nbuckets = 1
	Transforming the one-electron integrals and constructing Fock matrices
	Starting AA/AB first half-transformation.
	Sorting AA/AB half-transformed integrals.
	Starting BB first half-transformation.
	Sorting BB half-transformed integrals.
	First half integral transformation complete.
	Starting AA second half-transformation.
	Starting AB second half-transformation.
	Starting BB second half-transformation.
	Two-electron integral transformation complete.
	(OO|OV)...
	Starting AA second half-transformation.
	Starting AB second half-transformation.
	Starting BB second half-transformation.
	Two-electron integral transformation complete.
	(OO|VV)...
	Starting AA second half-transformation.
	Starting AB second half-transformation.
	Starting BB second half-transformation.
	Two-electron integral transformation complete.
	(OV|OO)...
	Starting AA/AB first half-transformation.
	Sorting AA/AB half-transformed integrals.
	Starting BB first half-transformation.
	Sorting BB half-transformed integrals.
	First half integral transformation complete.
	Starting AA second half-transformation.
	Starting AB second half-transformation.
	Starting BB second half-transformation.
	Two-electron integral transformation complete.
	(OV|OV)...
	Starting AA second half-transformation.
	Starting AB second half-transformation.
	Starting BB second half-transformation.
	Two-electron integral transformation complete.
	(OV|VV)...
	Starting AA second half-transformation.
	Starting AB second half-transformation.
	Starting BB second half-transformation.
	Two-electron integral transformation complete.
	(VV|OO)...
	Starting AA/AB first half-transformation.
	Sorting AA/AB half-transformed integrals.
	Starting BB first half-transformation.
	Sorting BB half-transformed integrals.
	First half integral transformation complete.
	Starting AA second half-transformation.
	Starting AB second half-transformation.
	Starting BB second half-transformation.
	Two-electron integral transformation complete.
	(VV|OV)...
	Starting AA second half-transformation.
	Starting AB second half-transformation.
	Starting BB second half-transformation.
	Two-electron integral transformation complete.
	(VV|VV)...
	Starting AA second half-transformation.
	Starting AB second half-transformation.
	Starting BB second half-transformation.
	Two-electron integral transformation complete.
	Frozen core energy     =    -47.84640848207432

	Size of irrep 0 of <AB|CD> integrals:    509.766 (MW) /   4078.129 (MB)
	Total:                                   509.766 (MW) /   4078.129 (MB)

	Size of irrep 0 of <ab|cd> integrals:    519.430 (MW) /   4155.437 (MB)
	Total:                                   519.430 (MW) /   4155.437 (MB)

	Size of irrep 0 of <Ab|Cd> integrals:   2077.719 (MW) /  16621.750 (MB)
	Total:                                  2077.719 (MW) /  16621.750 (MB)

	Size of irrep 0 of <IA|BC> integrals:     38.654 (MW) /    309.235 (MB)
	Total:                                    38.654 (MW) /    309.235 (MB)

	Size of irrep 0 of <ia|bc> integrals:     29.401 (MW) /    235.208 (MB)
	Total:                                    29.401 (MW) /    235.208 (MB)

	Size of irrep 0 of <Ia|Bc> integrals:     39.018 (MW) /    312.146 (MB)
	Total:                                    39.018 (MW) /    312.146 (MB)

	Size of irrep 0 of <iA|bC> integrals:     29.127 (MW) /    233.015 (MB)
	Total:                                    29.127 (MW) /    233.015 (MB)

	Size of irrep 0 of tIjAb amplitudes:       0.547 (MW) /      4.376 (MB)
	Total:                                     0.547 (MW) /      4.376 (MB)

	Nuclear Rep. energy          =     11.79541613116415
	SCF energy                   =    -55.90735441820301
	One-electron energy          =    -31.55800372117780
	Two-electron (AA) energy     =      3.11343413778425
	Two-electron (BB) energy     =      1.39923050983313
	Two-electron (AB) energy     =      7.18897700626785
	Two-electron energy          =     11.70164165388523
	Reference energy             =    -55.90735441820276

*** tstop() called on cqc05 at Thu Aug 20 21:20:05 2020
Module time:
	user time   =     302.66 seconds =       5.04 minutes
	system time =     119.30 seconds =       1.99 minutes
	total time  =        878 seconds =      14.63 minutes
Total time:
	user time   =     507.98 seconds =       8.47 minutes
	system time =     131.17 seconds =       2.19 minutes
	total time  =       1094 seconds =      18.23 minutes

*** tstart() called on cqc05
*** at Thu Aug 20 21:20:05 2020

            **************************
            *                        *
            *        CCENERGY        *
            *                        *
            **************************

    Nuclear Rep. energy (wfn)     =   11.795416131164147
    SCF energy          (wfn)     =  -55.907354418203013
    Reference energy    (file100) =  -55.907354418202758

    Input parameters:
    -----------------
    Wave function   =     CCSD
    Reference wfn   =     UHF
    Brueckner       =     No
    Memory (Mbytes) =     250000.0
    Maxiter         =     50
    R_Convergence   =     1.0e-07
    E_Convergence   =     1.0e-06
    Restart         =     Yes
    DIIS            =     Yes
    AO Basis        =     NONE
    ABCD            =     NEW
    Cache Level     =     2
    Cache Type      =     LRU
    Print Level     =     1
    Num. of threads =     4
    # Amps to Print =     10
    Print MP2 Amps? =     No
    Analyze T2 Amps =     No
    Print Pair Ener =     No
    Local CC        =     No
    SCS-MP2         =     False
    SCSN-MP2        =     False
    SCS-CCSD        =     False

MP2 correlation energy -0.1918423624129181
                Solving CC Amplitude Equations
                ------------------------------
  Iter             Energy              RMS        T1Diag      D1Diag    New D1Diag    D2Diag
  ----     ---------------------    ---------   ----------  ----------  ----------   --------
     0        -0.191842362412919    0.000e+00    0.000000    0.000000    0.000000    0.000000
     1        -0.203059058353023    3.436e-02    0.006929    0.000000    0.000000    0.000000
     2        -0.208008229036133    1.274e-02    0.009201    0.000000    0.000000    0.000000
     3        -0.208471723166817    4.565e-03    0.010413    0.000000    0.000000    0.000000
     4        -0.208508347594962    1.819e-03    0.010786    0.000000    0.000000    0.000000
     5        -0.208526502995249    5.222e-04    0.010804    0.000000    0.000000    0.000000
     6        -0.208527978031922    1.401e-04    0.010787    0.000000    0.000000    0.000000
     7        -0.208529098290284    4.446e-05    0.010776    0.000000    0.000000    0.000000
     8        -0.208529497647898    1.044e-05    0.010773    0.000000    0.000000    0.000000
     9        -0.208529359033545    2.589e-06    0.010772    0.000000    0.000000    0.000000
    10        -0.208529411384880    7.133e-07    0.010772    0.000000    0.000000    0.000000
    11        -0.208529420719531    1.843e-07    0.010772    0.000000    0.000000    0.000000
    12        -0.208529424505367    4.306e-08    0.010772    0.000000    0.000000    0.000000
    12        -0.208529424505367    4.306e-08    0.010772    0.000000    0.000000    0.000000

    Iterations converged.


    CCSD corr. energy   =   -0.208529424505367
    PPL corr. energy    =    0.050022415063577
    OS PPL corr. energy =    0.043714306861079
    SS PPL corr. energy =    0.006308108202498
    Largest TIA Amplitudes:
              3   3        -0.0069323046
              3  12        -0.0060881321
              0   0         0.0050727259
              0  16         0.0045405737
              0   4         0.0044811555
              0  24        -0.0042485479
              3  27        -0.0041265128
              0   9         0.0035257637
              0  33         0.0027421280
              1  60         0.0021739803

    Largest Tia Amplitudes:
              0  35        -0.0057201165
              0  17        -0.0056483617
              0  61        -0.0055562699
              1  36         0.0048469897
              2  37        -0.0048469847
              1  18         0.0045047993
              2  19        -0.0045047912
              0  25         0.0045032149
              0   5        -0.0040972430
              1  59         0.0038660394

    Largest TIJAB Amplitudes:
      3   1  27   8        -0.0072377674
      3   2  27   7        -0.0072377670
      3   1  27  18        -0.0072212431
      3   2  27  17        -0.0072212425
      3   1  47  24        -0.0072136291
      3   2  46  24        -0.0072136287
      2   1  20  17        -0.0063841636
      2   1  21  18        -0.0063841635
      3   2  58  46        -0.0059341595
      3   1  58  47        -0.0059341502

    Largest Tijab Amplitudes:
      1   0  47   0         0.0068298997
      2   0  48   0        -0.0068298996
      2   1  19  18        -0.0063888950
      2   1  19   7        -0.0057423698
      2   1  18   6         0.0057423693
      2   1  42  19        -0.0055585676
      2   1  43  18         0.0055585676
      2   1  64  18         0.0051872120
      2   1  65  19        -0.0051872119
      2   1  21  19        -0.0051409849

    Largest TIjAb Amplitudes:
      3   0  16   0         0.0240160024
      3   0  24   0        -0.0217516438
      3   0  33   0         0.0206162119
      2   1  17  18        -0.0202673028
      1   2  18  19         0.0202673017
      3   0   4   0         0.0201803837
      3   0   0   0         0.0199804703
      3   0  58   0         0.0193630207
      3   0   9   0         0.0183748727
      1   0  47   0         0.0179567107

    SCF energy       (wfn)                    =  -55.907354418203013
    Reference energy (file100)                =  -55.907354418202758

    Opposite-spin MP2 correlation energy      =   -0.153555115231130
    Same-spin MP2 correlation energy          =   -0.038287247181773
    MP2 correlation energy                    =   -0.191842362412918
      * MP2 total energy                      =  -56.099196780615678

    Opposite-spin CCSD correlation energy     =   -0.171330826231518
    Same-spin CCSD correlation energy         =   -0.037198599084786
    CCSD correlation energy                   =   -0.208529424505367
      * CCSD total energy                     =  -56.115883842708122


*** tstop() called on cqc05 at Thu Aug 20 21:26:09 2020
Module time:
	user time   =     134.15 seconds =       2.24 minutes
	system time =     151.00 seconds =       2.52 minutes
	total time  =        364 seconds =       6.07 minutes
Total time:
	user time   =     642.13 seconds =      10.70 minutes
	system time =     282.17 seconds =       4.70 minutes
	total time  =       1458 seconds =      24.30 minutes

*** Psi4 exiting successfully. Buy a developer a beer!
