
    -----------------------------------------------------------------------
          Psi4: An Open-Source Ab Initio Electronic Structure Package
                               Psi4 1.4a3.dev88 

                         Git: Rev {master} 262e345 


    D. G. A. Smith, L. A. Burns, A. C. Simmonett, R. M. Parrish,
    M. C. Schieber, R. Galvelis, P. Kraus, H. Kruse, R. Di Remigio,
    A. Alenaizan, A. M. James, S. Lehtola, J. P. Misiewicz, M. Scheurer,
    R. A. Shaw, J. B. Schriber, Y. Xie, Z. L. Glick, D. A. Sirianni,
    J. S. O'Brien, J. M. Waldrop, A. Kumar, E. G. Hohenstein,
    B. P. Pritchard, B. R. Brooks, H. F. Schaefer III, A. Yu. Sokolov,
    K. Patkowski, A. E. DePrince III, U. Bozkaya, R. A. King,
    F. A. Evangelista, J. M. Turney, T. D. Crawford, C. D. Sherrill,
    J. Chem. Phys. 152(18) 184108 (2020). https://doi.org/10.1063/5.0006002

                            Additional Code Authors
    E. T. Seidl, C. L. Janssen, E. F. Valeev, M. L. Leininger,
    J. F. Gonthier, R. M. Richard, H. R. McAlexander, M. Saitow, X. Wang,
    P. Verma, and M. H. Lechner

             Previous Authors, Complete List of Code Contributors,
                       and Citations for Specific Modules
    https://github.com/psi4/psi4/blob/master/codemeta.json
    https://github.com/psi4/psi4/graphs/contributors
    http://psicode.org/psi4manual/master/introduction.html#citing-psifour

    -----------------------------------------------------------------------


    Psi4 started on: Tuesday, 26 January 2021 06:15PM

    Process ID: 401596
    Host:       n412-039.vsc4.prov
    PSIDATADIR: /home/fs71337/gallo4/psi4/eri-6/psi4/build/stage/share/psi4
    Memory:     500.0 MiB
    Threads:    48
    
  ==> Input File <==

--------------------------------------------------------------------------
# Any line starting with the # character is a comment line
memory 250000 mb
molecule molecule{
-1 1
C          0.0000000000        0.0000000000       -0.0725642828
H          1.0380267415        0.0000000000        0.2882346175
H         -0.5190133708        0.8989575280        0.2882346175
H         -0.5190133708       -0.8989575280        0.2882346175
}

set {
  reference rhf
  basis aug-cc-pV(d+d)Z
  scf_type OUT_OF_CORE
  freeze_core true
}

energy('ccsd(t)')
--------------------------------------------------------------------------

  Memory set to 232.831 GiB by Python driver.

Scratch directory: /binfl/lv71337/airmler/temp/

*** tstart() called on n412-039.vsc4.prov
*** at Tue Jan 26 18:15:55 2021

   => Loading Basis Set <=

    Name: AUG-CC-PV(D+D)Z
    Role: ORBITAL
    Keyword: BASIS
    atoms 1   entry C          line   210 file /home/fs71337/gallo4/psi4/eri-6/psi4/build/stage/share/psi4/basis/aug-cc-pv_dpd_z.gbs 
    atoms 2-4 entry H          line    68 file /home/fs71337/gallo4/psi4/eri-6/psi4/build/stage/share/psi4/basis/aug-cc-pv_dpd_z.gbs 


         ---------------------------------------------------------
                                   SCF
               by Justin Turney, Rob Parrish, Andy Simmonett
                          and Daniel G. A. Smith
                              RHF Reference
                       48 Threads, 238418 MiB Core
         ---------------------------------------------------------

  ==> Geometry <==

    Molecular point group: cs
    Full point group: C3v

    Geometry (in Angstrom), charge = -1, multiplicity = 1:

       Center              X                  Y                   Z               Mass       
    ------------   -----------------  -----------------  -----------------  -----------------
         C           -0.000000000003     0.072610796300     0.000000000000    12.000000000000
         H           -0.519013370764    -0.288188104000     0.898957527982     1.007825032230
         H           -0.519013370764    -0.288188104000    -0.898957527982     1.007825032230
         H            1.038026741568    -0.288188104000     0.000000000000     1.007825032230

  Running in cs symmetry.

  Rotational constants: A =      8.67487  B =      8.67487  C =      5.17456 [cm^-1]
  Rotational constants: A = 260066.12100  B = 260066.12099  C = 155129.25960 [MHz]
  Nuclear repulsion =    9.550578269095043

  Charge       = -1
  Multiplicity = 1
  Electrons    = 10
  Nalpha       = 5
  Nbeta        = 5

  ==> Algorithm <==

  SCF Algorithm Type is OUT_OF_CORE.
  DIIS enabled.
  MOM disabled.
  Fractional occupation disabled.
  Guess Type is SAD.
  Energy threshold   = 1.00e-08
  Density threshold  = 1.00e-08
  Integral threshold = 1.00e-12

  ==> Primary Basis <==

  Basis Set: AUG-CC-PV(D+D)Z
    Blend: AUG-CC-PV(D+D)Z
    Number of shells: 24
    Number of basis function: 50
    Number of Cartesian functions: 52
    Spherical Harmonics?: true
    Max angular momentum: 2

  ==> Integral Setup <==

  ==> DiskJK: Disk-Based J/K Matrices <==

    J tasked:                  Yes
    K tasked:                  Yes
    wK tasked:                  No
    Memory [MiB]:           178813
    Schwarz Cutoff:          1E-12

  Minimum eigenvalue in the overlap matrix is 7.5108067109E-04.
  Reciprocal condition number of the overlap matrix is 1.2202541417E-04.
    Using symmetric orthogonalization.

  ==> Pre-Iterations <==

  SCF Guess: Superposition of Atomic Densities via on-the-fly atomic UHF (no occupation information).


 WARNING: Atomic UHF is not converging! Try casting from a smaller basis or call Rob at CCMST.
   -------------------------
    Irrep   Nso     Nmo    
   -------------------------
     A'        32      32 
     A"        18      18 
   -------------------------
    Total      50      50
   -------------------------

  ==> Iterations <==

                        Total Energy        Delta E     RMS |[F,P]|

   @RHF iter SAD:   -38.70577243363338   -3.87058e+01   0.00000e+00 
   @RHF iter   1:   -39.29279921136455   -5.87027e-01   1.58279e-02 DIIS
   @RHF iter   2:   -39.41491595259991   -1.22117e-01   1.07168e-02 DIIS
   @RHF iter   3:   -39.51061842768753   -9.57025e-02   6.89138e-04 DIIS
   @RHF iter   4:   -39.51155075714590   -9.32329e-04   2.64168e-04 DIIS
   @RHF iter   5:   -39.51168829898153   -1.37542e-04   5.72134e-05 DIIS
   @RHF iter   6:   -39.51170044367328   -1.21447e-05   1.92870e-05 DIIS
   @RHF iter   7:   -39.51170222015397   -1.77648e-06   4.87158e-06 DIIS
   @RHF iter   8:   -39.51170232078439   -1.00630e-07   1.01492e-06 DIIS
   @RHF iter   9:   -39.51170232587202   -5.08763e-09   3.01982e-07 DIIS
   @RHF iter  10:   -39.51170232678979   -9.17765e-10   1.23281e-07 DIIS
   @RHF iter  11:   -39.51170232703594   -2.46153e-10   3.26376e-08 DIIS
   @RHF iter  12:   -39.51170232704446   -8.51941e-12   5.65992e-09 DIIS
  Energy and wave function converged.


  ==> Post-Iterations <==

    Orbital Energies [Eh]
    ---------------------

    Doubly Occupied:                                                      

       1Ap   -10.944152     2Ap    -0.623811     3Ap    -0.268462  
       1App   -0.268462     4Ap    -0.021157  

    Virtual:                                                              

       5Ap     0.170349     6Ap     0.188064     2App    0.188064  
       7Ap     0.299167     3App    0.309592     8Ap     0.309592  
       9Ap     0.356887    10Ap     0.512848     4App    0.512848  
      11Ap     0.538861    12Ap     0.552006     5App    0.552006  
      13Ap     0.666204     6App    0.666204    14Ap     0.672959  
       7App    0.726257    15Ap     0.785940    16Ap     0.787484  
       8App    0.787484    17Ap     0.834046    18Ap     0.844108  
       9App    0.844108    10App    0.953112    19Ap     0.953112  
      20Ap     1.230631    11App    1.230631    21Ap     1.237281  
      22Ap     1.305754    23Ap     1.609663    12App    1.609663  
      13App    1.906100    24Ap     1.906100    25Ap     1.952417  
      14App    2.135475    26Ap     2.293252    27Ap     2.297908  
      15App    2.297908    28Ap     2.494387    16App    2.494387  
      29Ap     2.509029    17App    2.761197    30Ap     2.761197  
      31Ap     3.050822    32Ap     3.141963    18App    3.141963  

    Final Occupation by Irrep:
             Ap   App 
    DOCC [     4,    1 ]

  @RHF Final Energy:   -39.51170232704446

   => Energetics <=

    Nuclear Repulsion Energy =              9.5505782690950429
    One-Electron Energy =                 -73.8724737072990649
    Two-Electron Energy =                  24.8101931111595668
    Total Energy =                        -39.5117023270444605

Computation Completed


Properties will be evaluated at   0.000000,   0.000000,   0.000000 [a0]

Properties computed using the SCF density matrix

  Nuclear Dipole Moment: [e a0]
     X:     0.0000      Y:    -0.8105      Z:     0.0000

  Electronic Dipole Moment: [e a0]
     X:     0.0000      Y:     0.1657      Z:     0.0000

  Dipole Moment: [e a0]
     X:     0.0000      Y:    -0.6448      Z:     0.0000     Total:     0.6448

  Dipole Moment: [D]
     X:     0.0000      Y:    -1.6390      Z:     0.0000     Total:     1.6390


*** tstop() called on n412-039.vsc4.prov at Tue Jan 26 18:15:56 2021
Module time:
	user time   =      20.59 seconds =       0.34 minutes
	system time =       1.05 seconds =       0.02 minutes
	total time  =          1 seconds =       0.02 minutes
Total time:
	user time   =      20.59 seconds =       0.34 minutes
	system time =       1.05 seconds =       0.02 minutes
	total time  =          1 seconds =       0.02 minutes

*** tstart() called on n412-039.vsc4.prov
*** at Tue Jan 26 18:15:56 2021


	Wfn Parameters:
	--------------------
	Wavefunction         = CCSD_T
	Number of irreps     = 2
	Number of MOs        = 50
	Number of active MOs = 49
	AO-Basis             = NONE
	Semicanonical        = false
	Reference            = RHF
	Print Level          = 1

	IRREP	# MOs	# FZDC	# DOCC	# SOCC	# VIRT	# FZVR
	-----	-----	------	------	------	------	------
	 Ap	   32	    1	    3	    0	    28	    0
	 App	   18	    0	    1	    0	    17	    0
	Transforming integrals...
	IWL integrals will be deleted.
	(OO|OO)...
	Presorting SO-basis two-electron integrals.
	Sorting File: SO Ints (nn|nn) nbuckets = 1
	Constructing frozen core operators
	Starting first half-transformation.
	Sorting half-transformed integrals.
	First half integral transformation complete.
	Starting second half-transformation.
	Two-electron integral transformation complete.
	(OO|OV)...
	Starting second half-transformation.
	Two-electron integral transformation complete.
	(OO|VV)...
	Starting second half-transformation.
	Two-electron integral transformation complete.
	(OV|OO)...
	Starting first half-transformation.
	Sorting half-transformed integrals.
	First half integral transformation complete.
	Starting second half-transformation.
	Two-electron integral transformation complete.
	(OV|OV)...
	Starting second half-transformation.
	Two-electron integral transformation complete.
	(OV|VV)...
	Starting second half-transformation.
	Two-electron integral transformation complete.
	(VV|OO)...
	Starting first half-transformation.
	Sorting half-transformed integrals.
	First half integral transformation complete.
	Starting second half-transformation.
	Two-electron integral transformation complete.
	(VV|OV)...
	Starting second half-transformation.
	Two-electron integral transformation complete.
	(VV|VV)...
	Starting second half-transformation.
	Two-electron integral transformation complete.
	Frozen core energy     =    -35.24792841835446

	Size of irrep 0 of <ab|cd> integrals:      1.151 (MW) /      9.211 (MB)
	Size of irrep 1 of <ab|cd> integrals:      0.906 (MW) /      7.250 (MB)
	Total:                                     2.058 (MW) /     16.461 (MB)

	Size of irrep 0 of <ia|bc> integrals:      0.108 (MW) /      0.867 (MB)
	Size of irrep 1 of <ia|bc> integrals:      0.075 (MW) /      0.602 (MB)
	Total:                                     0.184 (MW) /      1.469 (MB)

	Size of irrep 0 of tijab amplitudes:       0.011 (MW) /      0.086 (MB)
	Size of irrep 1 of tijab amplitudes:       0.006 (MW) /      0.046 (MB)
	Total:                                     0.016 (MW) /      0.132 (MB)

	Nuclear Rep. energy          =      9.55057826909504
	SCF energy                   =    -39.51170232704446
	One-electron energy          =    -25.26492156866622
	Two-electron energy          =     11.45056939088085
	Reference energy             =    -39.51170232704479

*** tstop() called on n412-039.vsc4.prov at Tue Jan 26 18:15:58 2021
Module time:
	user time   =       0.16 seconds =       0.00 minutes
	system time =       0.20 seconds =       0.00 minutes
	total time  =          2 seconds =       0.03 minutes
Total time:
	user time   =      20.75 seconds =       0.35 minutes
	system time =       1.25 seconds =       0.02 minutes
	total time  =          3 seconds =       0.05 minutes
            **************************
            *                        *
            *        CCENERGY        *
            *                        *
            **************************

    Nuclear Rep. energy (wfn)     =    9.550578269095043
    SCF energy          (wfn)     =  -39.511702327044461
    Reference energy    (file100) =  -39.511702327044794

    Input parameters:
    -----------------
    Wave function   =     CCSD_T
    Reference wfn   =     RHF
    Brueckner       =     No
    Memory (Mbytes) =     250000.0
    Maxiter         =     50
    R_Convergence   =     1.0e-07
    E_Convergence   =     1.0e-06
    Restart         =     Yes
    DIIS            =     Yes
    AO Basis        =     NONE
    ABCD            =     NEW
    Cache Level     =     2
    Cache Type      =     LOW
    Print Level     =     1
    Num. of threads =     48
    # Amps to Print =     10
    Print MP2 Amps? =     No
    Analyze T2 Amps =     No
    Print Pair Ener =     No
    Local CC        =     No
    SCS-MP2         =     False
    SCSN-MP2        =     False
    SCS-CCSD        =     False

MP2 correlation energy -0.1839944622187388
                Solving CC Amplitude Equations
                ------------------------------
  Iter             Energy              RMS        T1Diag      D1Diag    New D1Diag    D2Diag
  ----     ---------------------    ---------   ----------  ----------  ----------   --------
     0        -0.183994462218739    0.000e+00    0.000000    0.000000    0.000000    0.155550
     1        -0.195148845737239    4.677e-02    0.009710    0.021519    0.021519    0.165025
     2        -0.200196488359512    1.767e-02    0.010498    0.022988    0.022988    0.175291
     3        -0.201632896455270    7.745e-03    0.012364    0.028099    0.028099    0.179441
     4        -0.201632859010040    2.703e-03    0.012921    0.029781    0.029781    0.181022
     5        -0.201636371501544    1.282e-03    0.013238    0.030881    0.030881    0.181779
     6        -0.201639518434310    4.998e-04    0.013399    0.031470    0.031470    0.181981
     7        -0.201630937825233    1.944e-04    0.013435    0.031624    0.031624    0.181972
     8        -0.201631715521276    1.073e-04    0.013457    0.031709    0.031709    0.181981
     9        -0.201630950018429    6.882e-05    0.013470    0.031752    0.031752    0.181977
    10        -0.201629584968835    4.997e-05    0.013478    0.031777    0.031777    0.181971
    11        -0.201630499912465    2.315e-05    0.013483    0.031793    0.031793    0.181972
    12        -0.201630737257308    6.350e-06    0.013484    0.031795    0.031795    0.181972
    13        -0.201630941807463    1.831e-06    0.013484    0.031794    0.031794    0.181972
    14        -0.201630953331580    7.511e-07    0.013484    0.031795    0.031795    0.181972
    15        -0.201630940791136    3.382e-07    0.013484    0.031794    0.031794    0.181972
    16        -0.201630938154596    1.234e-07    0.013484    0.031795    0.031795    0.181972
    17        -0.201630938116722    3.828e-08    0.013484    0.031795    0.031795    0.181972

    Iterations converged.


    Largest TIA Amplitudes:
              2   2        -0.0266701344
              2  17         0.0098623281
              2   6        -0.0072215762
              2  12         0.0066258332
              2   0         0.0063086168
              2  16        -0.0062917500
              3  29        -0.0062786435
              1   3        -0.0062786433
              1  15         0.0054711931
              3  37         0.0054711930

    Largest TIjAb Amplitudes:
      2   2   2   2        -0.0754552572
      2   2   2   9         0.0391080067
      2   2   9   2         0.0391080067
      2   2   9   9        -0.0281048712
      2   2   4   4        -0.0280986813
      3   3  37  37        -0.0257587024
      1   1  15  15        -0.0257587020
      1   1   5   5        -0.0245287211
      3   3  30  30        -0.0245287200
      2   2   2   4         0.0238030469

    SCF energy       (wfn)                    =  -39.511702327044461
    Reference energy (file100)                =  -39.511702327044794

    Opposite-spin MP2 correlation energy      =   -0.144326119826010
    Same-spin MP2 correlation energy          =   -0.039668342392729
    Singles MP2 correlation energy            =   -0.000000000000000
    MP2 correlation energy                    =   -0.183994462218739
      * MP2 total energy                      =  -39.695696789263536

    Opposite-spin CCSD correlation energy     =   -0.165713876501514
    Same-spin CCSD correlation energy         =   -0.035917061615208
    Singles CCSD correlation energy           =    0.000000000000000
    CCSD correlation energy                   =   -0.201630938116722
      * CCSD total energy                     =  -39.713333265161516

            **************************
            *                        *
            *        CCTRIPLES       *
            *                        *
            **************************


    Wave function   =    CCSD_T
    Reference wfn   =      RHF

    Nuclear Rep. energy (wfn)                =    9.550578269095043
    SCF energy          (wfn)                =  -39.511702327044461
    Reference energy    (file100)            =  -39.511702327044794
    CCSD energy         (file100)            =   -0.201630938116722
    Total CCSD energy   (file100)            =  -39.713333265161516

    Number of ijk index combinations:               20
    Memory available in words        :     31250000000
    ~Words needed per explicit thread:           87808
    Number of threads for explicit ijk threading:   48

    (T) energy                                =   -0.007163676580119
      * CCSD(T) total energy                  =  -39.720496941741636


    Psi4 stopped on: Tuesday, 26 January 2021 06:16PM
    Psi4 wall time for execution: 0:00:05.89

*** Psi4 exiting successfully. Buy a developer a beer!
