
    -----------------------------------------------------------------------
          Psi4: An Open-Source Ab Initio Electronic Structure Package
                               Psi4 1.2a1.dev938 

                         Git: Rev {HEAD} fc51d9a dirty


    R. M. Parrish, L. A. Burns, D. G. A. Smith, A. C. Simmonett,
    A. E. DePrince III, E. G. Hohenstein, U. Bozkaya, A. Yu. Sokolov,
    R. Di Remigio, R. M. Richard, J. F. Gonthier, A. M. James,
    H. R. McAlexander, A. Kumar, M. Saitow, X. Wang, B. P. Pritchard,
    P. Verma, H. F. Schaefer III, K. Patkowski, R. A. King, E. F. Valeev,
    F. A. Evangelista, J. M. Turney, T. D. Crawford, and C. D. Sherrill,
    J. Chem. Theory Comput. 13(7) pp 3185--3197 (2017).
    (doi: 10.1021/acs.jctc.7b00174)

    -----------------------------------------------------------------------


    Psi4 started on: Thursday, 20 August 2020 07:54PM

    Process ID: 422557
    PSIDATADIR: /home/irmler/Programs/psi4/beforeGrueneis3/stage/usr/local/psi4/share/psi4
    Memory:     500.0 MiB
    Threads:    4
    
  ==> Input File <==

--------------------------------------------------------------------------
# Any line starting with the # character is a comment line
memory 250000 mb
molecule molecule{
0 2
O          0.0000000000       -0.0289459853        0.5529111539
C          0.0000000000        0.1015352015       -0.6237171836
H          0.0000000000       -0.7504622383       -1.3441074102
}

set {
  reference uhf
  basis aug-cc-pv(d+d)z
  scf_type OUT_OF_CORE
  freeze_core true
}

energy('ccsd')
--------------------------------------------------------------------------

  Memory set to 232.831 GiB by Python driver.

*** tstart() called on cqc05
*** at Thu Aug 20 19:54:11 2020

   => Loading Basis Set <=

    Name: AUG-CC-PV(D+D)Z
    Role: ORBITAL
    Keyword: BASIS
    atoms 1 entry O          line   270 file /home/irmler/Programs/psi4/beforeGrueneis3/stage/usr/local/psi4/share/psi4/basis/aug-cc-pv_dpd_z.gbs 
    atoms 2 entry C          line   198 file /home/irmler/Programs/psi4/beforeGrueneis3/stage/usr/local/psi4/share/psi4/basis/aug-cc-pv_dpd_z.gbs 
    atoms 3 entry H          line    56 file /home/irmler/Programs/psi4/beforeGrueneis3/stage/usr/local/psi4/share/psi4/basis/aug-cc-pv_dpd_z.gbs 


         ---------------------------------------------------------
                                   SCF
            by Justin Turney, Rob Parrish, Andy Simmonett
                             and Daniel Smith
                              UHF Reference
                        4 Threads, 238418 MiB Core
         ---------------------------------------------------------

  ==> Geometry <==

    Molecular point group: cs
    Full point group: Cs

    Geometry (in Angstrom), charge = 0, multiplicity = 2:

       Center              X                  Y                   Z               Mass       
    ------------   -----------------  -----------------  -----------------  -----------------
           O          0.028914927033    -0.552754775506     0.000000000000    15.994914619560
           C         -0.101566259767     0.623873561994     0.000000000000    12.000000000000
           H          0.750431180033     1.344263788594     0.000000000000     1.007825032070

  Running in cs symmetry.

  Rotational constants: A =     23.92120  B =      1.48149  C =      1.39509 [cm^-1]
  Rotational constants: A = 717139.62420  B =  44413.86884  C =  41823.64798 [MHz]
  Nuclear repulsion =   26.387569858012455

  Charge       = 0
  Multiplicity = 2
  Electrons    = 15
  Nalpha       = 8
  Nbeta        = 7

  ==> Algorithm <==

  SCF Algorithm Type is OUT_OF_CORE.
  DIIS enabled.
  MOM disabled.
  Fractional occupation disabled.
  Guess Type is GWH.
  Energy threshold   = 1.00e-08
  Density threshold  = 1.00e-08
  Integral threshold = 0.00e+00

  ==> Primary Basis <==

  Basis Set: AUG-CC-PV(D+D)Z
    Blend: AUG-CC-PV(D+D)Z
    Number of shells: 23
    Number of basis function: 55
    Number of Cartesian functions: 59
    Spherical Harmonics?: true
    Max angular momentum: 2

  ==> Pre-Iterations <==

   -------------------------------------------------------
    Irrep   Nso     Nmo     Nalpha   Nbeta   Ndocc  Nsocc
   -------------------------------------------------------
     A'        39      39       0       0       0       0
     A"        16      16       0       0       0       0
   -------------------------------------------------------
    Total      55      55       8       7       7       1
   -------------------------------------------------------

  ==> Integral Setup <==

  ==> DiskJK: Disk-Based J/K Matrices <==

    J tasked:                  Yes
    K tasked:                  Yes
    wK tasked:                  No
    Memory (MB):            178813
    Schwarz Cutoff:          1E-12

  Minimum eigenvalue in the overlap matrix is 9.8814416661E-04.
  Using Symmetric Orthogonalization.

  SCF Guess: Generalized Wolfsberg-Helmholtz.

  ==> Iterations <==

                        Total Energy        Delta E     RMS |[F,P]|

   @UHF iter   1:  -111.67427080172470   -1.11674e+02   1.06174e-01 
   @UHF iter   2:  -110.80673503414849    8.67536e-01   9.06619e-02 DIIS
   @UHF iter   3:  -112.98833052140267   -2.18160e+00   3.55229e-02 DIIS
   @UHF iter   4:  -113.24768042112184   -2.59350e-01   6.86143e-03 DIIS
   @UHF iter   5:  -113.26463180338339   -1.69514e-02   1.52333e-03 DIIS
   @UHF iter   6:  -113.26608857362262   -1.45677e-03   5.84244e-04 DIIS
   @UHF iter   7:  -113.26632675862112   -2.38185e-04   1.94607e-04 DIIS
   @UHF iter   8:  -113.26636184221849   -3.50836e-05   7.00950e-05 DIIS
   @UHF iter   9:  -113.26636852330245   -6.68108e-06   3.96272e-05 DIIS
   @UHF iter  10:  -113.26637105426063   -2.53096e-06   3.04290e-05 DIIS
   @UHF iter  11:  -113.26637371146792   -2.65721e-06   2.28552e-05 DIIS
   @UHF iter  12:  -113.26637622695195   -2.51548e-06   1.32185e-05 DIIS
   @UHF iter  13:  -113.26637712808376   -9.01132e-07   7.04362e-06 DIIS
   @UHF iter  14:  -113.26637732876479   -2.00681e-07   3.75489e-06 DIIS
   @UHF iter  15:  -113.26637737552885   -4.67641e-08   1.65769e-06 DIIS
   @UHF iter  16:  -113.26637738340078   -7.87193e-09   3.81417e-07 DIIS
   @UHF iter  17:  -113.26637738353858   -1.37803e-10   1.12602e-07 DIIS
   @UHF iter  18:  -113.26637738354749   -8.91021e-12   2.92343e-08 DIIS
   @UHF iter  19:  -113.26637738354815   -6.53699e-13   8.35228e-09 DIIS

  ==> Post-Iterations <==

   @Spin Contamination Metric:   1.573959658E-02
   @S^2 Expected:                7.500000000E-01
   @S^2 Observed:                7.657395966E-01
   @S   Expected:                5.000000000E-01
   @S   Observed:                5.000000000E-01

    Orbital Energies (a.u.)
    -----------------------

    Alpha Occupied:                                                       

       1Ap   -20.634004     2Ap   -11.368906     3Ap    -1.464206  
       4Ap    -0.864092     5Ap    -0.714760     6Ap    -0.651454  
       1App   -0.575715     7Ap    -0.395456  

    Alpha Virtual:                                                        

       8Ap     0.034512     2App    0.068162     9Ap     0.089219  
      10Ap     0.099364     3App    0.145692    11Ap     0.161833  
      12Ap     0.219897    13Ap     0.247090     4App    0.258532  
      14Ap     0.288714    15Ap     0.331011     5App    0.363899  
      16Ap     0.419419    17Ap     0.471621     6App    0.511156  
      18Ap     0.515966    19Ap     0.583655     7App    0.623088  
      20Ap     0.654448    21Ap     0.716851     8App    0.791183  
      22Ap     0.854875    23Ap     0.901370    24Ap     0.978704  
       9App    1.137410    25Ap     1.156398    26Ap     1.213272  
      10App    1.217299    27Ap     1.400048    11App    1.512297  
      28Ap     1.546641    29Ap     1.659060    12App    1.660386  
      30Ap     1.792703    13App    1.880786    31Ap     1.960654  
      32Ap     2.130554    14App    2.160888    33Ap     2.190690  
      34Ap     2.365465    35Ap     2.725707    36Ap     3.099911  
      15App    3.610935    37Ap     3.614267    16App    3.710145  
      38Ap     3.763532    39Ap     4.034524  

    Beta Occupied:                                                        

       1Ap   -20.622103     2Ap   -11.349757     3Ap    -1.435331  
       4Ap    -0.803123     5Ap    -0.668162     1App   -0.576586  
       6Ap    -0.525023  

    Beta Virtual:                                                         

       7Ap     0.035670     8Ap     0.060218     2App    0.074137  
       9Ap     0.089819    10Ap     0.133665     3App    0.166250  
      11Ap     0.174832    12Ap     0.221703    13Ap     0.257403  
       4App    0.258445    14Ap     0.314877    15Ap     0.345590  
       5App    0.379970    16Ap     0.430141    17Ap     0.483029  
       6App    0.517960    18Ap     0.527986    19Ap     0.603172  
       7App    0.625295    20Ap     0.678932    21Ap     0.748411  
       8App    0.805519    22Ap     0.887511    23Ap     0.917665  
      24Ap     1.016395     9App    1.141579    25Ap     1.169704  
      10App    1.221101    26Ap     1.242261    27Ap     1.408116  
      11App    1.543817    28Ap     1.575837    12App    1.669535  
      29Ap     1.707591    30Ap     1.821756    13App    1.901240  
      31Ap     1.988627    32Ap     2.143995    14App    2.180111  
      33Ap     2.218380    34Ap     2.387329    35Ap     2.748671  
      36Ap     3.113391    15App    3.633685    37Ap     3.637642  
      16App    3.711619    38Ap     3.793555    39Ap     4.047656  

    Final Occupation by Irrep:
             Ap   App 
    DOCC [     6,    1 ]
    SOCC [     1,    0 ]

  Energy converged.

  @UHF Final Energy:  -113.26637738354815

   => Energetics <=

    Nuclear Repulsion Energy =             26.3875698580124549
    One-Electron Energy =                -206.6592179085144778
    Two-Electron Energy =                  67.0052706669538765
    PCM Polarization Energy =               0.0000000000000000
    Total Energy =                       -113.2663773835481464

    Alert: EFP and PCM quantities not currently incorporated into SCF psivars.
  UHF NO Occupations:
  HONO-2 :    1App 1.9980654
  HONO-1 :    6 Ap 1.9959025
  HONO-0 :    7 Ap 1.0000000
  LUNO+0 :    8 Ap 0.0040975
  LUNO+1 :    2App 0.0019346
  LUNO+2 :    9 Ap 0.0016114
  LUNO+3 :   10 Ap 0.0002087



Properties will be evaluated at   0.000000,   0.000000,   0.000000 Bohr

Properties computed using the SCF density matrix

  Nuclear Dipole Moment: (a.u.)
     X:     0.7036      Y:     1.2576      Z:     0.0000

  Electronic Dipole Moment: (a.u.)
     X:    -0.4104      Y:    -0.4464      Z:     0.0000

  Dipole Moment: (a.u.)
     X:     0.2933      Y:     0.8112      Z:     0.0000     Total:     0.8625

  Dipole Moment: (Debye)
     X:     0.7455      Y:     2.0617      Z:     0.0000     Total:     2.1924


*** tstop() called on cqc05 at Thu Aug 20 19:54:12 2020
Module time:
	user time   =       1.43 seconds =       0.02 minutes
	system time =       0.05 seconds =       0.00 minutes
	total time  =          1 seconds =       0.02 minutes
Total time:
	user time   =       1.43 seconds =       0.02 minutes
	system time =       0.05 seconds =       0.00 minutes
	total time  =          1 seconds =       0.02 minutes

*** tstart() called on cqc05
*** at Thu Aug 20 19:54:12 2020


	Wfn Parameters:
	--------------------
	Wavefunction         = CCSD
	Number of irreps     = 2
	Number of MOs        = 55
	Number of active MOs = 53
	AO-Basis             = NONE
	Semicanonical        = false
	Reference            = UHF
	Print Level          = 1

	IRREP	# MOs	# FZDC	# DOCC	# SOCC	# VIRT	# FZVR
	-----	-----	------	------	------	------	------
	 Ap	   39	    2	    4	    1	    32	    0
	 App	   16	    0	    1	    0	    15	    0
	Transforming integrals...
	IWL integrals will be deleted.
	(OO|OO)...
	Presorting SO-basis two-electron integrals.
	Sorting File: SO Ints (nn|nn) nbuckets = 1
	Transforming the one-electron integrals and constructing Fock matrices
	Starting AA/AB first half-transformation.
	Sorting AA/AB half-transformed integrals.
	Starting BB first half-transformation.
	Sorting BB half-transformed integrals.
	First half integral transformation complete.
	Starting AA second half-transformation.
	Starting AB second half-transformation.
	Starting BB second half-transformation.
	Two-electron integral transformation complete.
	(OO|OV)...
	Starting AA second half-transformation.
	Starting AB second half-transformation.
	Starting BB second half-transformation.
	Two-electron integral transformation complete.
	(OO|VV)...
	Starting AA second half-transformation.
	Starting AB second half-transformation.
	Starting BB second half-transformation.
	Two-electron integral transformation complete.
	(OV|OO)...
	Starting AA/AB first half-transformation.
	Sorting AA/AB half-transformed integrals.
	Starting BB first half-transformation.
	Sorting BB half-transformed integrals.
	First half integral transformation complete.
	Starting AA second half-transformation.
	Starting AB second half-transformation.
	Starting BB second half-transformation.
	Two-electron integral transformation complete.
	(OV|OV)...
	Starting AA second half-transformation.
	Starting AB second half-transformation.
	Starting BB second half-transformation.
	Two-electron integral transformation complete.
	(OV|VV)...
	Starting AA second half-transformation.
	Starting AB second half-transformation.
	Starting BB second half-transformation.
	Two-electron integral transformation complete.
	(VV|OO)...
	Starting AA/AB first half-transformation.
	Sorting AA/AB half-transformed integrals.
	Starting BB first half-transformation.
	Sorting BB half-transformed integrals.
	First half integral transformation complete.
	Starting AA second half-transformation.
	Starting AB second half-transformation.
	Starting BB second half-transformation.
	Two-electron integral transformation complete.
	(VV|OV)...
	Starting AA second half-transformation.
	Starting AB second half-transformation.
	Starting BB second half-transformation.
	Two-electron integral transformation complete.
	(VV|VV)...
	Starting AA second half-transformation.
	Starting AB second half-transformation.
	Starting BB second half-transformation.
	Two-electron integral transformation complete.
	Frozen core energy     =   -103.66277144274861

	Size of irrep 0 of <AB|CD> integrals:      0.361 (MW) /      2.890 (MB)
	Size of irrep 1 of <AB|CD> integrals:      0.230 (MW) /      1.843 (MB)
	Total:                                     0.592 (MW) /      4.733 (MB)

	Size of irrep 0 of <ab|cd> integrals:      0.401 (MW) /      3.206 (MB)
	Size of irrep 1 of <ab|cd> integrals:      0.245 (MW) /      1.960 (MB)
	Total:                                     0.646 (MW) /      5.166 (MB)

	Size of irrep 0 of <Ab|Cd> integrals:      1.641 (MW) /     13.128 (MB)
	Size of irrep 1 of <Ab|Cd> integrals:      0.951 (MW) /      7.605 (MB)
	Total:                                     2.592 (MW) /     20.733 (MB)

	Size of irrep 0 of <IA|BC> integrals:      0.219 (MW) /      1.749 (MB)
	Size of irrep 1 of <IA|BC> integrals:      0.103 (MW) /      0.822 (MB)
	Total:                                     0.321 (MW) /      2.570 (MB)

	Size of irrep 0 of <ia|bc> integrals:      0.193 (MW) /      1.545 (MB)
	Size of irrep 1 of <ia|bc> integrals:      0.092 (MW) /      0.737 (MB)
	Total:                                     0.285 (MW) /      2.282 (MB)

	Size of irrep 0 of <Ia|Bc> integrals:      0.231 (MW) /      1.845 (MB)
	Size of irrep 1 of <Ia|Bc> integrals:      0.105 (MW) /      0.842 (MB)
	Total:                                     0.336 (MW) /      2.687 (MB)

	Size of irrep 0 of <iA|bC> integrals:      0.183 (MW) /      1.465 (MB)
	Size of irrep 1 of <iA|bC> integrals:      0.090 (MW) /      0.718 (MB)
	Total:                                     0.273 (MW) /      2.183 (MB)

	Size of irrep 0 of tIjAb amplitudes:       0.027 (MW) /      0.215 (MB)
	Size of irrep 1 of tIjAb amplitudes:       0.009 (MW) /      0.070 (MB)
	Total:                                     0.036 (MW) /      0.285 (MB)

	Nuclear Rep. energy          =     26.38756985801245
	SCF energy                   =   -113.26637738354815
	One-electron energy          =    -63.30844540758857
	Two-electron (AA) energy     =      6.63175672847389
	Two-electron (BB) energy     =      4.65883659312446
	Two-electron (AB) energy     =     16.02667628717771
	Two-electron energy          =     27.31726960877607
	Reference energy             =   -113.26637738354866

*** tstop() called on cqc05 at Thu Aug 20 19:54:13 2020
Module time:
	user time   =       0.34 seconds =       0.01 minutes
	system time =       0.20 seconds =       0.00 minutes
	total time  =          1 seconds =       0.02 minutes
Total time:
	user time   =       1.78 seconds =       0.03 minutes
	system time =       0.25 seconds =       0.00 minutes
	total time  =          2 seconds =       0.03 minutes

*** tstart() called on cqc05
*** at Thu Aug 20 19:54:13 2020

            **************************
            *                        *
            *        CCENERGY        *
            *                        *
            **************************

    Nuclear Rep. energy (wfn)     =   26.387569858012455
    SCF energy          (wfn)     = -113.266377383548146
    Reference energy    (file100) = -113.266377383548658

    Input parameters:
    -----------------
    Wave function   =     CCSD
    Reference wfn   =     UHF
    Brueckner       =     No
    Memory (Mbytes) =     250000.0
    Maxiter         =     50
    R_Convergence   =     1.0e-07
    E_Convergence   =     1.0e-06
    Restart         =     Yes
    DIIS            =     Yes
    AO Basis        =     NONE
    ABCD            =     NEW
    Cache Level     =     2
    Cache Type      =     LRU
    Print Level     =     1
    Num. of threads =     4
    # Amps to Print =     10
    Print MP2 Amps? =     No
    Analyze T2 Amps =     No
    Print Pair Ener =     No
    Local CC        =     No
    SCS-MP2         =     False
    SCSN-MP2        =     False
    SCS-CCSD        =     False

MP2 correlation energy -0.3103835422760464
                Solving CC Amplitude Equations
                ------------------------------
  Iter             Energy              RMS        T1Diag      D1Diag    New D1Diag    D2Diag
  ----     ---------------------    ---------   ----------  ----------  ----------   --------
     0        -0.310383542276062    0.000e+00    0.000000    0.000000    0.000000    0.000000
     1        -0.306033270818571    9.660e-02    0.024122    0.000000    0.000000    0.000000
     2        -0.317303625030780    3.141e-02    0.023796    0.000000    0.000000    0.000000
     3        -0.321013544782934    1.931e-02    0.030415    0.000000    0.000000    0.000000
     4        -0.320777117359251    5.749e-03    0.032235    0.000000    0.000000    0.000000
     5        -0.320789790846667    2.864e-03    0.033201    0.000000    0.000000    0.000000
     6        -0.320815316889906    1.208e-03    0.033491    0.000000    0.000000    0.000000
     7        -0.320812906878728    5.525e-04    0.033563    0.000000    0.000000    0.000000
     8        -0.320817418631768    1.807e-04    0.033581    0.000000    0.000000    0.000000
     9        -0.320818515015301    5.813e-05    0.033584    0.000000    0.000000    0.000000
    10        -0.320816781386996    2.529e-05    0.033585    0.000000    0.000000    0.000000
    11        -0.320817299793913    1.084e-05    0.033583    0.000000    0.000000    0.000000
    12        -0.320817098413207    4.585e-06    0.033584    0.000000    0.000000    0.000000
    13        -0.320817142765643    2.047e-06    0.033584    0.000000    0.000000    0.000000
    14        -0.320817213079650    7.103e-07    0.033584    0.000000    0.000000    0.000000
    15        -0.320817199293297    2.975e-07    0.033584    0.000000    0.000000    0.000000
    16        -0.320817196452015    1.381e-07    0.033584    0.000000    0.000000    0.000000
    17        -0.320817196866347    6.550e-08    0.033584    0.000000    0.000000    0.000000
    17        -0.320817196866347    6.550e-08    0.033584    0.000000    0.000000    0.000000

    Iterations converged.


    CCSD corr. energy   =   -0.320817196866347
    PPL corr. energy    =    0.071677823931735
    OS PPL corr. energy =    0.058642898946756
    SS PPL corr. energy =    0.013034924984978
    Largest TIA Amplitudes:
              5  33        -0.0229975997
              4   6         0.0204337662
              4   2        -0.0183272287
              5  42         0.0159283923
              5  32        -0.0153656067
              4   5         0.0145639526
              3   5         0.0112777410
              2   5        -0.0099077024
              3   8        -0.0098319614
              5  38        -0.0091104183

    Largest Tia Amplitudes:
              3   1        -0.0467105702
              4  34        -0.0455134311
              3   3         0.0377454016
              4  33        -0.0284471348
              3   4         0.0209341496
              3   7        -0.0147922940
              4  43         0.0137299721
              4  39        -0.0128589411
              3  15         0.0097759026
              3  23         0.0096890101

    Largest TIJAB Amplitudes:
      5   3  33  15         0.0135073869
      5   2  33  15         0.0130770187
      5   3  33  12         0.0118967286
      5   3  32  12         0.0102099403
      5   4  33  16         0.0091931997
      5   3  32  15         0.0091565362
      5   2  32  15         0.0084900332
      5   4  32  12         0.0080485464
      5   3  42  22        -0.0077725277
      3   2  15   6         0.0074562175

    Largest Tijab Amplitudes:
      4   3  34   1        -0.0274209017
      4   3  34   3         0.0206299006
      4   3  33   1        -0.0205595518
      4   2  34  16         0.0177663104
      4   3  34   7        -0.0164653762
      4   3  34  13         0.0149348995
      4   3  35   1        -0.0147809275
      4   3  34   4         0.0135299440
      4   3  33   3         0.0131963513
      3   2  16   1        -0.0131799171

    Largest TIjAb Amplitudes:
      5   4  33  34        -0.0724737531
      5   4  32  34        -0.0603074616
      5   4  33  33        -0.0474231659
      5   3  33   1        -0.0448003154
      5   4  32  33        -0.0441857484
      5   3  32   1        -0.0407604435
      5   3  33   3         0.0338900580
      5   4  32  35        -0.0320712531
      5   4  33  35        -0.0312688858
      1   1  33  34        -0.0306914179

    SCF energy       (wfn)                    = -113.266377383548146
    Reference energy (file100)                = -113.266377383548658

    Opposite-spin MP2 correlation energy      =   -0.228244837084565
    Same-spin MP2 correlation energy          =   -0.082138705191327
    MP2 correlation energy                    =   -0.310383542276046
      * MP2 total energy                      = -113.576760925824701

    Opposite-spin CCSD correlation energy     =   -0.249758256299240
    Same-spin CCSD correlation energy         =   -0.071058950051463
    CCSD correlation energy                   =   -0.320817196866347
      * CCSD total energy                     = -113.587194580415002


*** tstop() called on cqc05 at Thu Aug 20 19:54:16 2020
Module time:
	user time   =       1.08 seconds =       0.02 minutes
	system time =       0.58 seconds =       0.01 minutes
	total time  =          3 seconds =       0.05 minutes
Total time:
	user time   =       2.86 seconds =       0.05 minutes
	system time =       0.83 seconds =       0.01 minutes
	total time  =          5 seconds =       0.08 minutes

*** Psi4 exiting successfully. Buy a developer a beer!
