
    -----------------------------------------------------------------------
          Psi4: An Open-Source Ab Initio Electronic Structure Package
                               Psi4 1.2a1.dev939 

                         Git: Rev {HEAD} fa1ec19 dirty


    R. M. Parrish, L. A. Burns, D. G. A. Smith, A. C. Simmonett,
    A. E. DePrince III, E. G. Hohenstein, U. Bozkaya, A. Yu. Sokolov,
    R. Di Remigio, R. M. Richard, J. F. Gonthier, A. M. James,
    H. R. McAlexander, A. Kumar, M. Saitow, X. Wang, B. P. Pritchard,
    P. Verma, H. F. Schaefer III, K. Patkowski, R. A. King, E. F. Valeev,
    F. A. Evangelista, J. M. Turney, T. D. Crawford, and C. D. Sherrill,
    J. Chem. Theory Comput. 13(7) pp 3185--3197 (2017).
    (doi: 10.1021/acs.jctc.7b00174)

    -----------------------------------------------------------------------


    Psi4 started on: Friday, 30 October 2020 10:09AM

    Process ID: 130833
    PSIDATADIR: /home/fs71337/airmler/src/psi4_uhf/build/stage/usr/local/psi4/share/psi4
    Memory:     500.0 MiB
    Threads:    48
    
  ==> Input File <==

--------------------------------------------------------------------------
# Any line starting with the # character is a comment line
memory 250000 mb
molecule molecule{
0 2
O          0.0000000000       -0.0289459853        0.5529111539
C          0.0000000000        0.1015352015       -0.6237171836
H          0.0000000000       -0.7504622383       -1.3441074102
}

set {
  reference uhf
  basis aug-cc-pv(5+d)z
  scf_type OUT_OF_CORE
  freeze_core true
}

energy('ccsd')
--------------------------------------------------------------------------

  Memory set to 232.831 GiB by Python driver.

*** tstart() called on n412-019.vsc4.prov
*** at Fri Oct 30 10:09:38 2020

   => Loading Basis Set <=

    Name: AUG-CC-PV(5+D)Z
    Role: ORBITAL
    Keyword: BASIS
    atoms 1 entry O          line   377 file /home/fs71337/airmler/src/psi4_uhf/build/stage/usr/local/psi4/share/psi4/basis/aug-cc-pv_5pd_z.gbs 
    atoms 2 entry C          line   223 file /home/fs71337/airmler/src/psi4_uhf/build/stage/usr/local/psi4/share/psi4/basis/aug-cc-pv_5pd_z.gbs 
    atoms 3 entry H          line    56 file /home/fs71337/airmler/src/psi4_uhf/build/stage/usr/local/psi4/share/psi4/basis/aug-cc-pv_5pd_z.gbs 


         ---------------------------------------------------------
                                   SCF
            by Justin Turney, Rob Parrish, Andy Simmonett
                             and Daniel Smith
                              UHF Reference
                       48 Threads, 238418 MiB Core
         ---------------------------------------------------------

  ==> Geometry <==

    Molecular point group: cs
    Full point group: Cs

    Geometry (in Angstrom), charge = 0, multiplicity = 2:

       Center              X                  Y                   Z               Mass       
    ------------   -----------------  -----------------  -----------------  -----------------
           O          0.028914927033    -0.552754775506     0.000000000000    15.994914619560
           C         -0.101566259767     0.623873561994     0.000000000000    12.000000000000
           H          0.750431180033     1.344263788594     0.000000000000     1.007825032070

  Running in cs symmetry.

  Rotational constants: A =     23.92120  B =      1.48149  C =      1.39509 [cm^-1]
  Rotational constants: A = 717139.62420  B =  44413.86884  C =  41823.64798 [MHz]
  Nuclear repulsion =   26.387569858012455

  Charge       = 0
  Multiplicity = 2
  Electrons    = 15
  Nalpha       = 8
  Nbeta        = 7

  ==> Algorithm <==

  SCF Algorithm Type is OUT_OF_CORE.
  DIIS enabled.
  MOM disabled.
  Fractional occupation disabled.
  Guess Type is GWH.
  Energy threshold   = 1.00e-08
  Density threshold  = 1.00e-08
  Integral threshold = 0.00e+00

  ==> Primary Basis <==

  Basis Set: AUG-CC-PV(5+D)Z
    Blend: AUG-CC-PV(5+D)Z
    Number of shells: 74
    Number of basis function: 334
    Number of Cartesian functions: 469
    Spherical Harmonics?: true
    Max angular momentum: 5

  ==> Pre-Iterations <==

   -------------------------------------------------------
    Irrep   Nso     Nmo     Nalpha   Nbeta   Ndocc  Nsocc
   -------------------------------------------------------
     A'       204     204       0       0       0       0
     A"       130     130       0       0       0       0
   -------------------------------------------------------
    Total     334     334       8       7       7       1
   -------------------------------------------------------

  ==> Integral Setup <==

  ==> DiskJK: Disk-Based J/K Matrices <==

    J tasked:                  Yes
    K tasked:                  Yes
    wK tasked:                  No
    Memory (MB):            178813
    Schwarz Cutoff:          1E-12

  Minimum eigenvalue in the overlap matrix is 8.8977076800E-06.
  Using Symmetric Orthogonalization.

  SCF Guess: Generalized Wolfsberg-Helmholtz.

  ==> Iterations <==

                        Total Energy        Delta E     RMS |[F,P]|

   @UHF iter   1:  -100.91716182090127   -1.00917e+02   1.95121e-01 
   @UHF iter   2:  -101.13857000223143   -2.21408e-01   5.12616e-02 DIIS
   @UHF iter   3:  -105.30200369172061   -4.16343e+00   7.10776e-02 DIIS
   @UHF iter   4:  -110.43267779141638   -5.13067e+00   4.70882e-02 DIIS
   @UHF iter   5:  -112.48686092810976   -2.05418e+00   2.21030e-02 DIIS
   @UHF iter   6:  -113.24327429933930   -7.56413e-01   4.76015e-03 DIIS
   @UHF iter   7:  -113.29906239885014   -5.57881e-02   1.27437e-03 DIIS
   @UHF iter   8:  -113.30182193226199   -2.75953e-03   3.80769e-04 DIIS
   @UHF iter   9:  -113.30253787609919   -7.15944e-04   2.11462e-04 DIIS
   @UHF iter  10:  -113.30270120912985   -1.63333e-04   6.58413e-05 DIIS
   @UHF iter  11:  -113.30273448558933   -3.32765e-05   3.16733e-05 DIIS
   @UHF iter  12:  -113.30274853714704   -1.40516e-05   1.39494e-05 DIIS
   @UHF iter  13:  -113.30275258379481   -4.04665e-06   4.71216e-06 DIIS
   @UHF iter  14:  -113.30275302844365   -4.44649e-07   3.28469e-06 DIIS
   @UHF iter  15:  -113.30275314423707   -1.15793e-07   2.65809e-06 DIIS
   @UHF iter  16:  -113.30275327254077   -1.28304e-07   1.75786e-06 DIIS
   @UHF iter  17:  -113.30275341873713   -1.46196e-07   1.12686e-06 DIIS
   @UHF iter  18:  -113.30275346851658   -4.97795e-08   3.37923e-07 DIIS
   @UHF iter  19:  -113.30275347094690   -2.43031e-09   1.26955e-07 DIIS
   @UHF iter  20:  -113.30275347115006   -2.03158e-10   3.78821e-08 DIIS
   @UHF iter  21:  -113.30275347115992   -9.86233e-12   9.33094e-09 DIIS

  ==> Post-Iterations <==

   @Spin Contamination Metric:   1.661230545E-02
   @S^2 Expected:                7.500000000E-01
   @S^2 Observed:                7.666123055E-01
   @S   Expected:                5.000000000E-01
   @S   Observed:                5.000000000E-01

    Orbital Energies (a.u.)
    -----------------------

    Alpha Occupied:                                                       

       1Ap   -20.620059     2Ap   -11.358099     3Ap    -1.456809  
       4Ap    -0.862785     5Ap    -0.713210     6Ap    -0.651046  
       1App   -0.574360     7Ap    -0.397266  

    Alpha Virtual:                                                        

       8Ap     0.021175     2App    0.048940     9Ap     0.055700  
      10Ap     0.057231    11Ap     0.100960     3App    0.104469  
      12Ap     0.120024    13Ap     0.129094     4App    0.141651  
      14Ap     0.167927     5App    0.182543    15Ap     0.184632  
      16Ap     0.217132    17Ap     0.228602     6App    0.238834  
      18Ap     0.252732    19Ap     0.266987     7App    0.269190  
      20Ap     0.296199     8App    0.305956    21Ap     0.321525  
      22Ap     0.349650    23Ap     0.410597     9App    0.462222  
      24Ap     0.478587    25Ap     0.496078    10App    0.509492  
      11App    0.519493    26Ap     0.527976    27Ap     0.542832  
      28Ap     0.562925    29Ap     0.585326    12App    0.586869  
      30Ap     0.599834    13App    0.600432    14App    0.613898  
      31Ap     0.618875    32Ap     0.638945    33Ap     0.656687  
      15App    0.659946    16App    0.677086    34Ap     0.687036  
      35Ap     0.704803    36Ap     0.712245    37Ap     0.779015  
      17App    0.781132    38Ap     0.798952    18App    0.854118  
      39Ap     0.856402    40Ap     1.017238    19App    1.059664  
      41Ap     1.069491    42Ap     1.086640    20App    1.133361  
      21App    1.158512    43Ap     1.173377    44Ap     1.187969  
      22App    1.190393    45Ap     1.211061    46Ap     1.221536  
      23App    1.231316    47Ap     1.243981    48Ap     1.267324  
      49Ap     1.304978    24App    1.330552    50Ap     1.352293  
      25App    1.387026    51Ap     1.387608    52Ap     1.403287  
      26App    1.406402    53Ap     1.435280    27App    1.466724  
      54Ap     1.491079    28App    1.534615    55Ap     1.534800  
      56Ap     1.566153    29App    1.611776    57Ap     1.648822  
      30App    1.677464    58Ap     1.714122    59Ap     1.735192  
      31App    1.742472    60Ap     1.765696    32App    1.770033  
      33App    1.808412    61Ap     1.839234    62Ap     1.878912  
      34App    1.890466    63Ap     1.971456    64Ap     2.009305  
      35App    2.041620    65Ap     2.117502    66Ap     2.156416  
      67Ap     2.196820    36App    2.239658    68Ap     2.239932  
      37App    2.283943    69Ap     2.293583    70Ap     2.368324  
      38App    2.446911    71Ap     2.450780    39App    2.610379  
      72Ap     2.642958    73Ap     2.696784    40App    2.710392  
      74Ap     2.735742    41App    2.762064    75Ap     2.798632  
      42App    2.832967    76Ap     2.855466    77Ap     2.933447  
      43App    2.962922    78Ap     3.004211    79Ap     3.022454  
      44App    3.042249    45App    3.086573    80Ap     3.091953  
      81Ap     3.144767    46App    3.175476    82Ap     3.183379  
      83Ap     3.205629    47App    3.225941    84Ap     3.274704  
      48App    3.288133    85Ap     3.298993    49App    3.319774  
      50App    3.372414    86Ap     3.377643    87Ap     3.442362  
      88Ap     3.488111    51App    3.506953    89Ap     3.554295  
      52App    3.613387    90Ap     3.640669    91Ap     3.656289  
      53App    3.674779    92Ap     3.710509    54App    3.772881  
      93Ap     3.804486    94Ap     3.831829    55App    3.879917  
      95Ap     3.894442    56App    3.918719    96Ap     3.955284  
      57App    4.016532    97Ap     4.029808    58App    4.063901  
      98Ap     4.066393    99Ap     4.135063   100Ap     4.145474  
      59App    4.169417    60App    4.258737   101Ap     4.296685  
      61App    4.389967   102Ap     4.426260   103Ap     4.456314  
      62App    4.478042   104Ap     4.611949    63App    4.626786  
      64App    4.701801   105Ap     4.714338   106Ap     4.716722  
     107Ap     4.767229    65App    4.843529   108Ap     4.890661  
     109Ap     4.910962   110Ap     5.110520    66App    5.114470  
     111Ap     5.144861    67App    5.148520   112Ap     5.398600  
      68App    5.413431   113Ap     5.424249   114Ap     5.548188  
      69App    5.601907   115Ap     5.779190    70App    5.822072  
     116Ap     5.898165   117Ap     5.967854    71App    6.031109  
      72App    6.098890   118Ap     6.124675   119Ap     6.267209  
      73App    6.274241   120Ap     6.329412    74App    6.512627  
     121Ap     6.520447   122Ap     6.531098   123Ap     6.640465  
      75App    6.658218    76App    6.858264   124Ap     6.892247  
     125Ap     7.033789    77App    7.158724   126Ap     7.175263  
      78App    7.196374   127Ap     7.229390   128Ap     7.239739  
      79App    7.271109   129Ap     7.277188    80App    7.331046  
     130Ap     7.351698   131Ap     7.427339    81App    7.432167  
     132Ap     7.532481    82App    7.583535    83App    7.615454  
     133Ap     7.642425   134Ap     7.796062    84App    7.813891  
     135Ap     7.843343    85App    7.987626   136Ap     8.073158  
      86App    8.117135   137Ap     8.172447   138Ap     8.214788  
     139Ap     8.442916    87App    8.463326   140Ap     8.498239  
     141Ap     8.723140    88App    8.787342   142Ap     9.032986  
      89App    9.064935   143Ap     9.111859   144Ap     9.215616  
      90App    9.366172    91App    9.409502    92App    9.561210  
     145Ap     9.577651   146Ap     9.596571    93App    9.625822  
     147Ap     9.689073   148Ap     9.820626    94App    9.847450  
     149Ap     9.942884    95App   10.157906   150Ap    10.169899  
     151Ap    10.356897   152Ap    10.419026    96App   10.438969  
      97App   10.522488    98App   10.576424   153Ap    10.605041  
     154Ap    10.635236    99App   10.820069   155Ap    10.839665  
     156Ap    11.085833   100App   11.507939   157Ap    11.508319  
     158Ap    11.584298   159Ap    11.663274   101App   11.683082  
     160Ap    11.809172   102App   12.207007   161Ap    12.307367  
     103App   12.475736   162Ap    12.557827   163Ap    12.768808  
     104App   12.823498   164Ap    13.041863   105App   13.189722  
     165Ap    13.197430   166Ap    13.395050   106App   13.419924  
     167Ap    13.793598   107App   13.793619   168Ap    14.032619  
     108App   14.151630   169Ap    14.242543   109App   14.395989  
     170Ap    14.398704   171Ap    14.436742   110App   14.457293  
     111App   14.547089   172Ap    14.844067   173Ap    14.960387  
     112App   15.010554   174Ap    15.220369   175Ap    15.459302  
     113App   15.495150   176Ap    15.703915   177Ap    15.968119  
     178Ap    16.249190   114App   16.273239   179Ap    16.297252  
     115App   16.567893   180Ap    16.594314   116App   16.705689  
     181Ap    16.955951   117App   17.003781   182Ap    17.053758  
     118App   17.111607   183Ap    17.145868   184Ap    17.469108  
     119App   17.518541   185Ap    17.579484   120App   17.813111  
     121App   17.974200   186Ap    18.197203   187Ap    18.395029  
     188Ap    18.581808   189Ap    19.135304   122App   19.139326  
     190Ap    19.240482   123App   19.397165   191Ap    19.416295  
     124App   19.464088   192Ap    19.509433   125App   19.741969  
     193Ap    19.767971   126App   19.828401   194Ap    20.010621  
     195Ap    20.101278   127App   20.106001   196Ap    20.333609  
     197Ap    20.965710   128App   21.617854   198Ap    21.966866  
     199Ap    22.758202   129App   22.895877   200Ap    23.084468  
     130App   23.890445   201Ap    24.018364   202Ap    24.559237  
     203Ap    40.637156   204Ap    65.676017  

    Beta Occupied:                                                        

       1Ap   -20.608523     2Ap   -11.338639     3Ap    -1.428579  
       4Ap    -0.801233     5Ap    -0.667176     1App   -0.576658  
       6Ap    -0.524973  

    Beta Virtual:                                                         

       7Ap     0.021700     8Ap     0.045398     2App    0.050312  
       9Ap     0.057213    10Ap     0.088999    11Ap     0.107737  
       3App    0.119625    12Ap     0.120693    13Ap     0.131986  
       4App    0.143234    14Ap     0.181422    15Ap     0.186547  
       5App    0.187245    16Ap     0.222664    17Ap     0.232533  
       6App    0.241645    18Ap     0.258512     7App    0.269522  
      19Ap     0.284435    20Ap     0.300201     8App    0.313931  
      21Ap     0.325943    22Ap     0.353220    23Ap     0.442055  
       9App    0.465922    24Ap     0.483127    25Ap     0.504973  
      10App    0.512281    11App    0.524307    26Ap     0.531846  
      27Ap     0.553340    28Ap     0.565049    12App    0.589990  
      29Ap     0.590299    30Ap     0.602348    13App    0.603139  
      14App    0.615250    31Ap     0.636815    32Ap     0.649142  
      15App    0.661423    33Ap     0.663130    16App    0.681910  
      34Ap     0.691112    35Ap     0.714503    36Ap     0.731008  
      37Ap     0.785633    17App    0.787060    38Ap     0.806214  
      18App    0.860221    39Ap     0.880768    40Ap     1.028701  
      19App    1.065772    41Ap     1.077251    42Ap     1.103598  
      20App    1.136535    21App    1.164262    43Ap     1.182045  
      22App    1.192649    44Ap     1.194954    45Ap     1.213763  
      46Ap     1.230858    23App    1.233369    47Ap     1.257115  
      48Ap     1.275012    49Ap     1.311217    24App    1.331823  
      50Ap     1.361532    25App    1.389569    51Ap     1.392536  
      52Ap     1.408772    26App    1.408934    53Ap     1.444777  
      27App    1.469678    54Ap     1.495462    28App    1.539207  
      55Ap     1.541044    56Ap     1.590873    29App    1.640269  
      57Ap     1.662020    30App    1.685549    58Ap     1.719134  
      31App    1.746455    59Ap     1.749882    60Ap     1.773475  
      32App    1.777377    33App    1.812103    61Ap     1.850808  
      62Ap     1.886855    34App    1.894696    63Ap     1.981752  
      64Ap     2.029624    35App    2.051900    65Ap     2.131964  
      66Ap     2.166764    67Ap     2.211028    36App    2.243268  
      68Ap     2.244000    37App    2.287166    69Ap     2.301281  
      70Ap     2.388606    38App    2.455882    71Ap     2.459622  
      39App    2.615763    72Ap     2.653868    73Ap     2.705326  
      40App    2.714734    74Ap     2.742086    41App    2.765640  
      75Ap     2.808803    42App    2.838091    76Ap     2.865037  
      77Ap     2.936956    43App    2.965275    78Ap     3.008262  
      79Ap     3.033025    44App    3.044499    45App    3.090541  
      80Ap     3.098992    81Ap     3.147356    46App    3.177947  
      82Ap     3.190639    83Ap     3.214054    47App    3.230617  
      84Ap     3.283320    48App    3.293274    85Ap     3.306200  
      49App    3.327346    50App    3.378279    86Ap     3.383677  
      87Ap     3.448064    88Ap     3.493474    51App    3.511141  
      89Ap     3.565865    52App    3.630251    90Ap     3.648102  
      91Ap     3.676889    53App    3.677939    92Ap     3.721968  
      54App    3.783057    93Ap     3.814756    94Ap     3.844434  
      55App    3.886393    95Ap     3.908082    56App    3.925953  
      96Ap     3.968249    57App    4.028572    97Ap     4.039807  
      58App    4.079837    98Ap     4.084384    99Ap     4.141991  
     100Ap     4.159522    59App    4.177857    60App    4.263790  
     101Ap     4.304896    61App    4.395854   102Ap     4.434971  
     103Ap     4.469024    62App    4.487481   104Ap     4.622262  
      63App    4.633489    64App    4.709398   105Ap     4.724159  
     106Ap     4.728400   107Ap     4.782474    65App    4.847898  
     108Ap     4.898476   109Ap     4.921077    66App    5.121599  
     110Ap     5.122632   111Ap     5.155099    67App    5.156518  
     112Ap     5.406819    68App    5.418882   113Ap     5.441247  
     114Ap     5.559273    69App    5.608705   115Ap     5.794995  
      70App    5.835834   116Ap     5.910456   117Ap     5.975919  
      71App    6.037084    72App    6.107463   118Ap     6.132602  
     119Ap     6.271860    73App    6.276114   120Ap     6.335506  
      74App    6.517107   121Ap     6.532949   122Ap     6.539423  
     123Ap     6.656745    75App    6.661152    76App    6.865801  
     124Ap     6.896602   125Ap     7.039359    77App    7.162289  
     126Ap     7.179666    78App    7.200638   127Ap     7.235806  
     128Ap     7.246325    79App    7.277070   129Ap     7.283302  
      80App    7.333979   130Ap     7.357417   131Ap     7.432416  
      81App    7.434746   132Ap     7.539093    82App    7.590696  
      83App    7.620191   133Ap     7.649650   134Ap     7.801799  
      84App    7.818973   135Ap     7.849187    85App    7.996062  
     136Ap     8.083013    86App    8.123880   137Ap     8.179615  
     138Ap     8.227557   139Ap     8.454996    87App    8.470838  
     140Ap     8.512174   141Ap     8.731299    88App    8.789922  
     142Ap     9.044342    89App    9.077968   143Ap     9.124052  
     144Ap     9.226515    90App    9.372199    91App    9.417857  
      92App    9.570395   145Ap     9.589082   146Ap     9.609029  
      93App    9.637709   147Ap     9.699009   148Ap     9.832061  
      94App    9.861936   149Ap     9.954900    95App   10.166863  
     150Ap    10.182512   151Ap    10.368136   152Ap    10.435056  
      96App   10.448072    97App   10.532260    98App   10.583848  
     153Ap    10.615719   154Ap    10.647048    99App   10.834333  
     155Ap    10.853345   156Ap    11.093738   100App   11.517194  
     157Ap    11.520609   158Ap    11.591628   159Ap    11.675541  
     101App   11.689972   160Ap    11.822528   102App   12.220468  
     161Ap    12.317196   103App   12.482502   162Ap    12.572306  
     163Ap    12.779002   104App   12.835462   164Ap    13.055721  
     105App   13.194890   165Ap    13.202789   166Ap    13.400760  
     106App   13.425388   107App   13.798853   167Ap    13.799142  
     168Ap    14.040889   108App   14.156932   169Ap    14.251872  
     109App   14.402286   170Ap    14.405432   171Ap    14.444075  
     110App   14.463466   111App   14.552882   172Ap    14.850139  
     173Ap    14.966045   112App   15.017176   174Ap    15.228975  
     175Ap    15.466445   113App   15.500444   176Ap    15.712049  
     177Ap    15.973835   178Ap    16.255975   114App   16.278590  
     179Ap    16.305256   115App   16.571933   180Ap    16.598900  
     116App   16.706298   181Ap    16.965640   117App   17.007095  
     182Ap    17.068318   118App   17.115584   183Ap    17.146941  
     184Ap    17.474641   119App   17.519877   185Ap    17.586022  
     120App   17.818431   121App   17.982084   186Ap    18.204612  
     187Ap    18.402777   188Ap    18.586594   189Ap    19.144475  
     122App   19.148605   190Ap    19.246330   123App   19.410318  
     191Ap    19.429084   124App   19.471307   192Ap    19.517336  
     125App   19.748370   193Ap    19.774826   126App   19.829477  
     194Ap    20.014325   195Ap    20.110034   127App   20.114746  
     196Ap    20.344587   197Ap    20.973450   128App   21.619433  
     198Ap    21.978109   199Ap    22.763217   129App   22.907875  
     200Ap    23.096761   130App   23.891351   201Ap    24.031500  
     202Ap    24.564535   203Ap    40.646853   204Ap    65.680491  

    Final Occupation by Irrep:
             Ap   App 
    DOCC [     6,    1 ]
    SOCC [     1,    0 ]

  Energy converged.

  @UHF Final Energy:  -113.30275347115992

   => Energetics <=

    Nuclear Repulsion Energy =             26.3875698580124549
    One-Electron Energy =                -206.8012294753212927
    Two-Electron Energy =                  67.1109061461489347
    Total Energy =                       -113.3027534711599031


  UHF NO Occupations:
  HONO-2 :    1App 1.9978646
  HONO-1 :    6 Ap 1.9957698
  HONO-0 :    7 Ap 1.0000000
  LUNO+0 :    8 Ap 0.0042302
  LUNO+1 :    2App 0.0021354
  LUNO+2 :    9 Ap 0.0016938
  LUNO+3 :   10 Ap 0.0002246



Properties will be evaluated at   0.000000,   0.000000,   0.000000 Bohr

Properties computed using the SCF density matrix

  Nuclear Dipole Moment: (a.u.)
     X:     0.7036      Y:     1.2576      Z:     0.0000

  Electronic Dipole Moment: (a.u.)
     X:    -0.4147      Y:    -0.4460      Z:     0.0000

  Dipole Moment: (a.u.)
     X:     0.2890      Y:     0.8115      Z:     0.0000     Total:     0.8614

  Dipole Moment: (Debye)
     X:     0.7344      Y:     2.0627      Z:     0.0000     Total:     2.1896


*** tstop() called on n412-019.vsc4.prov at Fri Oct 30 10:30:32 2020
Module time:
	user time   =    1456.10 seconds =      24.27 minutes
	system time =     134.71 seconds =       2.25 minutes
	total time  =       1254 seconds =      20.90 minutes
Total time:
	user time   =    1456.10 seconds =      24.27 minutes
	system time =     134.71 seconds =       2.25 minutes
	total time  =       1254 seconds =      20.90 minutes

*** tstart() called on n412-019.vsc4.prov
*** at Fri Oct 30 10:30:32 2020


	Wfn Parameters:
	--------------------
	Wavefunction         = CCSD
	Number of irreps     = 2
	Number of MOs        = 334
	Number of active MOs = 332
	AO-Basis             = NONE
	Semicanonical        = false
	Reference            = UHF
	Print Level          = 1

	IRREP	# MOs	# FZDC	# DOCC	# SOCC	# VIRT	# FZVR
	-----	-----	------	------	------	------	------
	 Ap	   204	    2	    4	    1	    197	    0
	 App	   130	    0	    1	    0	    129	    0
	Transforming integrals...
	IWL integrals will be deleted.
	(OO|OO)...
	Presorting SO-basis two-electron integrals.
	Sorting File: SO Ints (nn|nn) nbuckets = 1
	Transforming the one-electron integrals and constructing Fock matrices
	Starting AA/AB first half-transformation.
	Sorting AA/AB half-transformed integrals.
	Starting BB first half-transformation.
	Sorting BB half-transformed integrals.
	First half integral transformation complete.
	Starting AA second half-transformation.
	Starting AB second half-transformation.
	Starting BB second half-transformation.
	Two-electron integral transformation complete.
	(OO|OV)...
	Starting AA second half-transformation.
	Starting AB second half-transformation.
	Starting BB second half-transformation.
	Two-electron integral transformation complete.
	(OO|VV)...
	Starting AA second half-transformation.
	Starting AB second half-transformation.
	Starting BB second half-transformation.
	Two-electron integral transformation complete.
	(OV|OO)...
	Starting AA/AB first half-transformation.
	Sorting AA/AB half-transformed integrals.
	Starting BB first half-transformation.
	Sorting BB half-transformed integrals.
	First half integral transformation complete.
	Starting AA second half-transformation.
	Starting AB second half-transformation.
	Starting BB second half-transformation.
	Two-electron integral transformation complete.
	(OV|OV)...
	Starting AA second half-transformation.
	Starting AB second half-transformation.
	Starting BB second half-transformation.
	Two-electron integral transformation complete.
	(OV|VV)...
	Starting AA second half-transformation.
	Starting AB second half-transformation.
	Starting BB second half-transformation.
	Two-electron integral transformation complete.
	(VV|OO)...
	Starting AA/AB first half-transformation.
	Sorting AA/AB half-transformed integrals.
	Starting BB first half-transformation.
	Sorting BB half-transformed integrals.
	First half integral transformation complete.
	Starting AA second half-transformation.
	Starting AB second half-transformation.
	Starting BB second half-transformation.
	Two-electron integral transformation complete.
	(VV|OV)...
	Starting AA second half-transformation.
	Starting AB second half-transformation.
	Starting BB second half-transformation.
	Two-electron integral transformation complete.
	(VV|VV)...
	Starting AA second half-transformation.
	Starting AB second half-transformation.
	Starting BB second half-transformation.
	Two-electron integral transformation complete.
	Frozen core energy     =   -103.66552786363347

	Size of irrep 0 of <AB|CD> integrals:    759.664 (MW) /   6077.311 (MB)
	Size of irrep 1 of <AB|CD> integrals:    645.821 (MW) /   5166.565 (MB)
	Total:                                  1405.484 (MW) /  11243.875 (MB)

	Size of irrep 0 of <ab|cd> integrals:    770.562 (MW) /   6164.497 (MB)
	Size of irrep 1 of <ab|cd> integrals:    652.394 (MW) /   5219.150 (MB)
	Total:                                  1422.956 (MW) /  11383.647 (MB)

	Size of irrep 0 of <Ab|Cd> integrals:   3096.589 (MW) /  24772.709 (MB)
	Size of irrep 1 of <Ab|Cd> integrals:   2596.412 (MW) /  20771.296 (MB)
	Total:                                  5693.001 (MW) /  45544.005 (MB)

	Size of irrep 0 of <IA|BC> integrals:     61.771 (MW) /    494.170 (MB)
	Size of irrep 1 of <IA|BC> integrals:     42.795 (MW) /    342.364 (MB)
	Total:                                   104.567 (MW) /    836.534 (MB)

	Size of irrep 0 of <ia|bc> integrals:     51.433 (MW) /    411.466 (MB)
	Size of irrep 1 of <ia|bc> integrals:     36.474 (MW) /    291.792 (MB)
	Total:                                    87.907 (MW) /    703.258 (MB)

	Size of irrep 0 of <Ia|Bc> integrals:     62.269 (MW) /    498.152 (MB)
	Size of irrep 1 of <Ia|Bc> integrals:     42.955 (MW) /    343.641 (MB)
	Total:                                   105.224 (MW) /    841.792 (MB)

	Size of irrep 0 of <iA|bC> integrals:     51.028 (MW) /    408.226 (MB)
	Size of irrep 1 of <iA|bC> integrals:     36.331 (MW) /    290.647 (MB)
	Total:                                    87.359 (MW) /    698.874 (MB)

	Size of irrep 0 of tIjAb amplitudes:       1.169 (MW) /      9.349 (MB)
	Size of irrep 1 of tIjAb amplitudes:       0.459 (MW) /      3.669 (MB)
	Total:                                     1.627 (MW) /     13.017 (MB)

	Nuclear Rep. energy          =     26.38756985801245
	SCF energy                   =   -113.30275347115992
	One-electron energy          =    -63.39549450937395
	Two-electron (AA) energy     =      6.64208248226495
	Two-electron (BB) energy     =      4.66963460377900
	Two-electron (AB) energy     =     16.05898195779026
	Two-electron energy          =     27.37069904383421
	Reference energy             =   -113.30275347116076

*** tstop() called on n412-019.vsc4.prov at Fri Oct 30 10:47:58 2020
Module time:
	user time   =    6980.59 seconds =     116.34 minutes
	system time =     428.49 seconds =       7.14 minutes
	total time  =       1046 seconds =      17.43 minutes
Total time:
	user time   =    8436.78 seconds =     140.61 minutes
	system time =     563.20 seconds =       9.39 minutes
	total time  =       2300 seconds =      38.33 minutes

*** tstart() called on n412-019.vsc4.prov
*** at Fri Oct 30 10:47:58 2020

            **************************
            *                        *
            *        CCENERGY        *
            *                        *
            **************************

    Nuclear Rep. energy (wfn)     =   26.387569858012455
    SCF energy          (wfn)     = -113.302753471159917
    Reference energy    (file100) = -113.302753471160756

    Input parameters:
    -----------------
    Wave function   =     CCSD
    Reference wfn   =     UHF
    Brueckner       =     No
    Memory (Mbytes) =     250000.0
    Maxiter         =     50
    R_Convergence   =     1.0e-07
    E_Convergence   =     1.0e-06
    Restart         =     Yes
    DIIS            =     Yes
    AO Basis        =     NONE
    ABCD            =     NEW
    Cache Level     =     2
    Cache Type      =     LRU
    Print Level     =     1
    Num. of threads =     48
    # Amps to Print =     10
    Print MP2 Amps? =     No
    Analyze T2 Amps =     No
    Print Pair Ener =     No
    Local CC        =     No
    SCS-MP2         =     False
    SCSN-MP2        =     False
    SCS-CCSD        =     False

MP2 correlation energy -0.4080117164831498
                Solving CC Amplitude Equations
                ------------------------------
  Iter             Energy              RMS        T1Diag      D1Diag    New D1Diag    D2Diag
  ----     ---------------------    ---------   ----------  ----------  ----------   --------
     0        -0.408011716483234    0.000e+00    0.000000    0.000000    0.000000    0.000000
     1        -0.391174992586549    9.582e-02    0.023237    0.000000    0.000000    0.000000
     2        -0.404284758821053    3.285e-02    0.022177    0.000000    0.000000    0.000000
     3        -0.407881768452863    1.878e-02    0.028215    0.000000    0.000000    0.000000
     4        -0.407482803816922    6.028e-03    0.030147    0.000000    0.000000    0.000000
     5        -0.407495519109586    3.180e-03    0.031379    0.000000    0.000000    0.000000
     6        -0.407525288419254    1.228e-03    0.031706    0.000000    0.000000    0.000000
     7        -0.407522514970776    5.362e-04    0.031771    0.000000    0.000000    0.000000
     8        -0.407527541728327    1.963e-04    0.031793    0.000000    0.000000    0.000000
     9        -0.407529309872966    6.878e-05    0.031795    0.000000    0.000000    0.000000
    10        -0.407526647797544    2.661e-05    0.031795    0.000000    0.000000    0.000000
    11        -0.407527267047978    1.132e-05    0.031794    0.000000    0.000000    0.000000
    12        -0.407527087008341    5.361e-06    0.031795    0.000000    0.000000    0.000000
    13        -0.407527137715387    2.424e-06    0.031795    0.000000    0.000000    0.000000
    14        -0.407527228708023    1.040e-06    0.031795    0.000000    0.000000    0.000000
    15        -0.407527200858261    4.443e-07    0.031795    0.000000    0.000000    0.000000
    16        -0.407527196172255    2.099e-07    0.031795    0.000000    0.000000    0.000000
    17        -0.407527194577240    9.516e-08    0.031795    0.000000    0.000000    0.000000
    17        -0.407527194577240    9.516e-08    0.031795    0.000000    0.000000    0.000000

    Iterations converged.


    CCSD corr. energy   =   -0.407527194577240
    PPL corr. energy    =    0.100313333879308
    OS PPL corr. energy =    0.083745449185133
    SS PPL corr. energy =    0.016567884694148
    Largest TIA Amplitudes:
              5 198        -0.0182250257
              4   6        -0.0137604303
              5 209         0.0121814784
              4  15         0.0100482396
              5 203        -0.0095127865
              2  15        -0.0089967483
              5 216         0.0087640390
              1  15         0.0079803949
              4   1        -0.0077740242
              5 202         0.0077436223

    Largest Tia Amplitudes:
              3   3         0.0420904446
              4 199        -0.0382967949
              3   1         0.0265021065
              3   4        -0.0243318587
              4 204        -0.0216539703
              3  12         0.0185926687
              3   7         0.0177186074
              4 200        -0.0165164629
              4 202        -0.0158917454
              4 198        -0.0125818059

    Largest TIJAB Amplitudes:
      5   3 198  28         0.0118885365
      5   3 198  32        -0.0113932570
      5   2 198  32        -0.0088721814
      5   4 198  27        -0.0078355476
      5   3 198  15         0.0075504091
      5   4 198  31        -0.0074247919
      5   4 198  19        -0.0071957780
      5   2 198  28         0.0069419505
      5   3 203  32        -0.0067221359
      5   4 198  15         0.0066489320

    Largest Tijab Amplitudes:
      4   3 199   3         0.0211528673
      4   3 199   1         0.0153605912
      4   3 200   3         0.0140073923
      4   3 199   4        -0.0125363466
      3   2  29   3         0.0123952391
      4   3 204   3         0.0122098268
      4   3 199   7         0.0122008008
      4   3 199  16        -0.0119266486
      4   3 200   1         0.0110170680
      4   3 199  12         0.0107805995

    Largest TIjAb Amplitudes:
      5   4 198 199        -0.0636311678
      5   4 198 200        -0.0418173818
      5   3 198   3         0.0410805671
      5   4 198 204        -0.0368729193
      5   4 198 202        -0.0311918072
      5   3 198   1         0.0297920952
      5   4 197 199        -0.0287922601
      5   4 198 198        -0.0270533457
      5   4 199 199        -0.0269249753
      5   4 203 199        -0.0268702935

    SCF energy       (wfn)                    = -113.302753471159917
    Reference energy (file100)                = -113.302753471160756

    Opposite-spin MP2 correlation energy      =   -0.309195339443518
    Same-spin MP2 correlation energy          =   -0.098816377038795
    MP2 correlation energy                    =   -0.408011716483150
      * MP2 total energy                      = -113.710765187643901

    Opposite-spin CCSD correlation energy     =   -0.321345125776139
    Same-spin CCSD correlation energy         =   -0.086182082342861
    CCSD correlation energy                   =   -0.407527194577240
      * CCSD total energy                     = -113.710280665737997


*** tstop() called on n412-019.vsc4.prov at Fri Oct 30 11:18:56 2020
Module time:
	user time   =   10418.62 seconds =     173.64 minutes
	system time =     941.96 seconds =      15.70 minutes
	total time  =       1858 seconds =      30.97 minutes
Total time:
	user time   =   18855.40 seconds =     314.26 minutes
	system time =    1505.16 seconds =      25.09 minutes
	total time  =       4158 seconds =      69.30 minutes

*** Psi4 exiting successfully. Buy a developer a beer!
