
    -----------------------------------------------------------------------
          Psi4: An Open-Source Ab Initio Electronic Structure Package
                               Psi4 1.2a1.dev938 

                         Git: Rev {HEAD} fc51d9a dirty


    R. M. Parrish, L. A. Burns, D. G. A. Smith, A. C. Simmonett,
    A. E. DePrince III, E. G. Hohenstein, U. Bozkaya, A. Yu. Sokolov,
    R. Di Remigio, R. M. Richard, J. F. Gonthier, A. M. James,
    H. R. McAlexander, A. Kumar, M. Saitow, X. Wang, B. P. Pritchard,
    P. Verma, H. F. Schaefer III, K. Patkowski, R. A. King, E. F. Valeev,
    F. A. Evangelista, J. M. Turney, T. D. Crawford, and C. D. Sherrill,
    J. Chem. Theory Comput. 13(7) pp 3185--3197 (2017).
    (doi: 10.1021/acs.jctc.7b00174)

    -----------------------------------------------------------------------


    Psi4 started on: Thursday, 20 August 2020 08:01PM

    Process ID: 423458
    PSIDATADIR: /home/irmler/Programs/psi4/beforeGrueneis3/stage/usr/local/psi4/share/psi4
    Memory:     500.0 MiB
    Threads:    4
    
  ==> Input File <==

--------------------------------------------------------------------------
# Any line starting with the # character is a comment line
memory 250000 mb
molecule molecule{
0 2
O          0.0000000000       -0.0289459853        0.5529111539
C          0.0000000000        0.1015352015       -0.6237171836
H          0.0000000000       -0.7504622383       -1.3441074102
}

set {
  reference uhf
  basis aug-cc-pv(t+d)z
  scf_type OUT_OF_CORE
  freeze_core true
}

energy('ccsd')
--------------------------------------------------------------------------

  Memory set to 232.831 GiB by Python driver.

*** tstart() called on cqc05
*** at Thu Aug 20 20:01:04 2020

   => Loading Basis Set <=

    Name: AUG-CC-PV(T+D)Z
    Role: ORBITAL
    Keyword: BASIS
    atoms 1 entry O          line   347 file /home/irmler/Programs/psi4/beforeGrueneis3/stage/usr/local/psi4/share/psi4/basis/aug-cc-pv_tpd_z.gbs 
    atoms 2 entry C          line   255 file /home/irmler/Programs/psi4/beforeGrueneis3/stage/usr/local/psi4/share/psi4/basis/aug-cc-pv_tpd_z.gbs 
    atoms 3 entry H          line    56 file /home/irmler/Programs/psi4/beforeGrueneis3/stage/usr/local/psi4/share/psi4/basis/aug-cc-pv_tpd_z.gbs 


         ---------------------------------------------------------
                                   SCF
            by Justin Turney, Rob Parrish, Andy Simmonett
                             and Daniel Smith
                              UHF Reference
                        4 Threads, 238418 MiB Core
         ---------------------------------------------------------

  ==> Geometry <==

    Molecular point group: cs
    Full point group: Cs

    Geometry (in Angstrom), charge = 0, multiplicity = 2:

       Center              X                  Y                   Z               Mass       
    ------------   -----------------  -----------------  -----------------  -----------------
           O          0.028914927033    -0.552754775506     0.000000000000    15.994914619560
           C         -0.101566259767     0.623873561994     0.000000000000    12.000000000000
           H          0.750431180033     1.344263788594     0.000000000000     1.007825032070

  Running in cs symmetry.

  Rotational constants: A =     23.92120  B =      1.48149  C =      1.39509 [cm^-1]
  Rotational constants: A = 717139.62420  B =  44413.86884  C =  41823.64798 [MHz]
  Nuclear repulsion =   26.387569858012455

  Charge       = 0
  Multiplicity = 2
  Electrons    = 15
  Nalpha       = 8
  Nbeta        = 7

  ==> Algorithm <==

  SCF Algorithm Type is OUT_OF_CORE.
  DIIS enabled.
  MOM disabled.
  Fractional occupation disabled.
  Guess Type is GWH.
  Energy threshold   = 1.00e-08
  Density threshold  = 1.00e-08
  Integral threshold = 0.00e+00

  ==> Primary Basis <==

  Basis Set: AUG-CC-PV(T+D)Z
    Blend: AUG-CC-PV(T+D)Z
    Number of shells: 37
    Number of basis function: 115
    Number of Cartesian functions: 135
    Spherical Harmonics?: true
    Max angular momentum: 3

  ==> Pre-Iterations <==

   -------------------------------------------------------
    Irrep   Nso     Nmo     Nalpha   Nbeta   Ndocc  Nsocc
   -------------------------------------------------------
     A'        76      76       0       0       0       0
     A"        39      39       0       0       0       0
   -------------------------------------------------------
    Total     115     115       8       7       7       1
   -------------------------------------------------------

  ==> Integral Setup <==

  ==> DiskJK: Disk-Based J/K Matrices <==

    J tasked:                  Yes
    K tasked:                  Yes
    wK tasked:                  No
    Memory (MB):            178813
    Schwarz Cutoff:          1E-12

  Minimum eigenvalue in the overlap matrix is 1.5508413122E-04.
  Using Symmetric Orthogonalization.

  SCF Guess: Generalized Wolfsberg-Helmholtz.

  ==> Iterations <==

                        Total Energy        Delta E     RMS |[F,P]|

   @UHF iter   1:  -106.32111215134655   -1.06321e+02   1.32945e-01 
   @UHF iter   2:  -102.30570816996287    4.01540e+00   6.95897e-02 DIIS
   @UHF iter   3:  -108.94940608890477   -6.64370e+00   7.87179e-02 DIIS
   @UHF iter   4:  -111.70787432013239   -2.75847e+00   4.57697e-02 DIIS
   @UHF iter   5:  -113.01650635376433   -1.30863e+00   1.72143e-02 DIIS
   @UHF iter   6:  -113.28391407520743   -2.67408e-01   1.88195e-03 DIIS
   @UHF iter   7:  -113.29154395675475   -7.62988e-03   1.07644e-03 DIIS
   @UHF iter   8:  -113.29314395273856   -1.60000e-03   3.59286e-04 DIIS
   @UHF iter   9:  -113.29358063694738   -4.36684e-04   1.52826e-04 DIIS
   @UHF iter  10:  -113.29364914610341   -6.85092e-05   5.97529e-05 DIIS
   @UHF iter  11:  -113.29367371265263   -2.45665e-05   3.28810e-05 DIIS
   @UHF iter  12:  -113.29368409733081   -1.03847e-05   1.72154e-05 DIIS
   @UHF iter  13:  -113.29368664162669   -2.54430e-06   9.02671e-06 DIIS
   @UHF iter  14:  -113.29368726694457   -6.25318e-07   6.14201e-06 DIIS
   @UHF iter  15:  -113.29368759494686   -3.28002e-07   4.58136e-06 DIIS
   @UHF iter  16:  -113.29368794196378   -3.47017e-07   3.05251e-06 DIIS
   @UHF iter  17:  -113.29368815726117   -2.15297e-07   1.38211e-06 DIIS
   @UHF iter  18:  -113.29368818885186   -3.15907e-08   4.45627e-07 DIIS
   @UHF iter  19:  -113.29368819036900   -1.51714e-09   1.52910e-07 DIIS
   @UHF iter  20:  -113.29368819048173   -1.12735e-10   5.05693e-08 DIIS
   @UHF iter  21:  -113.29368819049085   -9.12337e-12   2.83225e-08 DIIS
   @UHF iter  22:  -113.29368819049294   -2.08900e-12   1.06790e-08 DIIS
   @UHF iter  23:  -113.29368819049320   -2.55795e-13   2.77972e-09 DIIS

  ==> Post-Iterations <==

   @Spin Contamination Metric:   1.644112385E-02
   @S^2 Expected:                7.500000000E-01
   @S^2 Observed:                7.664411239E-01
   @S   Expected:                5.000000000E-01
   @S   Observed:                5.000000000E-01

    Orbital Energies (a.u.)
    -----------------------

    Alpha Occupied:                                                       

       1Ap   -20.623687     2Ap   -11.359616     3Ap    -1.458145  
       4Ap    -0.863067     5Ap    -0.713250     6Ap    -0.650972  
       1App   -0.574528     7Ap    -0.396926  

    Alpha Virtual:                                                        

       8Ap     0.027635     2App    0.062184     9Ap     0.076087  
      10Ap     0.081047     3App    0.127176    11Ap     0.132912  
      12Ap     0.176925    13Ap     0.192185     4App    0.205910  
      14Ap     0.236049    15Ap     0.260021     5App    0.265773  
      16Ap     0.313608    17Ap     0.331597     6App    0.346068  
      18Ap     0.382587    19Ap     0.413249     7App    0.421908  
      20Ap     0.441103    21Ap     0.520899     8App    0.530335  
      22Ap     0.589157    23Ap     0.644805    24Ap     0.723172  
       9App    0.761007    25Ap     0.774887    26Ap     0.827871  
      10App    0.838717    27Ap     0.865602    11App    0.871305  
      28Ap     0.922549    29Ap     0.959069    12App    0.966721  
      30Ap     1.005797    31Ap     1.024442    13App    1.042820  
      14App    1.078356    32Ap     1.093682    15App    1.191100  
      33Ap     1.205866    34Ap     1.250771    35Ap     1.289609  
      16App    1.311687    36Ap     1.341003    37Ap     1.404909  
      17App    1.410961    18App    1.491066    38Ap     1.509800  
      39Ap     1.567516    40Ap     1.664412    19App    1.844244  
      41Ap     1.929678    42Ap     2.006210    43Ap     2.196557  
      20App    2.215656    21App    2.278620    44Ap     2.278801  
      45Ap     2.419820    22App    2.424268    46Ap     2.468017  
      47Ap     2.535392    23App    2.643437    24App    2.677657  
      48Ap     2.690329    49Ap     2.752888    50Ap     2.831573  
      51Ap     3.006623    25App    3.029128    26App    3.241307  
      52Ap     3.241592    53Ap     3.362798    27App    3.428236  
      54Ap     3.473367    28App    3.503612    55Ap     3.527047  
      56Ap     3.643208    29App    3.729334    57Ap     3.878180  
      30App    3.974237    58Ap     4.028730    59Ap     4.101711  
      60Ap     4.148926    31App    4.223097    61Ap     4.562880  
      32App    4.592661    62Ap     4.790676    63Ap     4.975746  
      33App    5.073922    34App    5.148222    64Ap     5.324358  
      65Ap     5.441382    66Ap     5.612995    67Ap     6.231373  
      68Ap     6.531896    35App    6.532081    36App    6.821975  
      69Ap     6.849226    37App    7.070664    38App    7.104191  
      70Ap     7.123626    71Ap     7.246680    72Ap     7.308059  
      39App    7.488892    73Ap     7.605336    74Ap     7.642514  
      75Ap    14.567714    76Ap    14.759341  

    Beta Occupied:                                                        

       1Ap   -20.612084     2Ap   -11.340206     3Ap    -1.429972  
       4Ap    -0.801596     5Ap    -0.667251     1App   -0.576676  
       6Ap    -0.525119  

    Beta Virtual:                                                         

       7Ap     0.028426     8Ap     0.055586     2App    0.065945  
       9Ap     0.076479    10Ap     0.115641    11Ap     0.140815  
       3App    0.146235    12Ap     0.177982    13Ap     0.198299  
       4App    0.206239    14Ap     0.255022    15Ap     0.266681  
       5App    0.275182    16Ap     0.319160    17Ap     0.341221  
       6App    0.349097    18Ap     0.387793     7App    0.421933  
      19Ap     0.423509    20Ap     0.468444    21Ap     0.535504  
       8App    0.541126    22Ap     0.604753    23Ap     0.680636  
      24Ap     0.738475     9App    0.762390    25Ap     0.779008  
      10App    0.842267    26Ap     0.853078    27Ap     0.876367  
      11App    0.886838    28Ap     0.938302    29Ap     0.964094  
      12App    0.969647    30Ap     1.015210    31Ap     1.043290  
      13App    1.068652    14App    1.083050    32Ap     1.121851  
      15App    1.197817    33Ap     1.227299    34Ap     1.261958  
      35Ap     1.302175    16App    1.321063    36Ap     1.356061  
      37Ap     1.415119    17App    1.416208    18App    1.498520  
      38Ap     1.528466    39Ap     1.577956    40Ap     1.688201  
      19App    1.852698    41Ap     1.943553    42Ap     2.024327  
      43Ap     2.199329    20App    2.218138    21App    2.292193  
      44Ap     2.293742    22App    2.426068    45Ap     2.435744  
      46Ap     2.473719    47Ap     2.547327    23App    2.652952  
      24App    2.680482    48Ap     2.725623    49Ap     2.767173  
      50Ap     2.850749    51Ap     3.024068    25App    3.036225  
      52Ap     3.263982    26App    3.265120    53Ap     3.395558  
      27App    3.451926    54Ap     3.492611    28App    3.530352  
      55Ap     3.553135    56Ap     3.671299    29App    3.750981  
      57Ap     3.897647    30App    3.980810    58Ap     4.057858  
      59Ap     4.114853    60Ap     4.169125    31App    4.233743  
      61Ap     4.578735    32App    4.607233    62Ap     4.811492  
      63Ap     4.994307    33App    5.084354    34App    5.152571  
      64Ap     5.337290    65Ap     5.455680    66Ap     5.633268  
      67Ap     6.243382    68Ap     6.543252    35App    6.543383  
      36App    6.830800    69Ap     6.858629    37App    7.072815  
      38App    7.127659    70Ap     7.144098    71Ap     7.257866  
      72Ap     7.324625    39App    7.489585    73Ap     7.630080  
      74Ap     7.651426    75Ap    14.581041    76Ap    14.769499  

    Final Occupation by Irrep:
             Ap   App 
    DOCC [     6,    1 ]
    SOCC [     1,    0 ]

  Energy converged.

  @UHF Final Energy:  -113.29368819049320

   => Energetics <=

    Nuclear Repulsion Energy =             26.3875698580124549
    One-Electron Energy =                -206.7694227001741467
    Two-Electron Energy =                  67.0881646516684924
    Total Energy =                       -113.2936881904931994


  UHF NO Occupations:
  HONO-2 :    1App 1.9979027
  HONO-1 :    6 Ap 1.9958053
  HONO-0 :    7 Ap 1.0000000
  LUNO+0 :    8 Ap 0.0041947
  LUNO+1 :    2App 0.0020973
  LUNO+2 :    9 Ap 0.0016858
  LUNO+3 :   10 Ap 0.0002217



Properties will be evaluated at   0.000000,   0.000000,   0.000000 Bohr

Properties computed using the SCF density matrix

  Nuclear Dipole Moment: (a.u.)
     X:     0.7036      Y:     1.2576      Z:     0.0000

  Electronic Dipole Moment: (a.u.)
     X:    -0.4136      Y:    -0.4450      Z:     0.0000

  Dipole Moment: (a.u.)
     X:     0.2901      Y:     0.8125      Z:     0.0000     Total:     0.8628

  Dipole Moment: (Debye)
     X:     0.7373      Y:     2.0653      Z:     0.0000     Total:     2.1929


*** tstop() called on cqc05 at Thu Aug 20 20:01:15 2020
Module time:
	user time   =      11.07 seconds =       0.18 minutes
	system time =       0.62 seconds =       0.01 minutes
	total time  =         11 seconds =       0.18 minutes
Total time:
	user time   =      11.07 seconds =       0.18 minutes
	system time =       0.62 seconds =       0.01 minutes
	total time  =         11 seconds =       0.18 minutes

*** tstart() called on cqc05
*** at Thu Aug 20 20:01:15 2020


	Wfn Parameters:
	--------------------
	Wavefunction         = CCSD
	Number of irreps     = 2
	Number of MOs        = 115
	Number of active MOs = 113
	AO-Basis             = NONE
	Semicanonical        = false
	Reference            = UHF
	Print Level          = 1

	IRREP	# MOs	# FZDC	# DOCC	# SOCC	# VIRT	# FZVR
	-----	-----	------	------	------	------	------
	 Ap	   76	    2	    4	    1	    69	    0
	 App	   39	    0	    1	    0	    38	    0
	Transforming integrals...
	IWL integrals will be deleted.
	(OO|OO)...
	Presorting SO-basis two-electron integrals.
	Sorting File: SO Ints (nn|nn) nbuckets = 1
	Transforming the one-electron integrals and constructing Fock matrices
	Starting AA/AB first half-transformation.
	Sorting AA/AB half-transformed integrals.
	Starting BB first half-transformation.
	Sorting BB half-transformed integrals.
	First half integral transformation complete.
	Starting AA second half-transformation.
	Starting AB second half-transformation.
	Starting BB second half-transformation.
	Two-electron integral transformation complete.
	(OO|OV)...
	Starting AA second half-transformation.
	Starting AB second half-transformation.
	Starting BB second half-transformation.
	Two-electron integral transformation complete.
	(OO|VV)...
	Starting AA second half-transformation.
	Starting AB second half-transformation.
	Starting BB second half-transformation.
	Two-electron integral transformation complete.
	(OV|OO)...
	Starting AA/AB first half-transformation.
	Sorting AA/AB half-transformed integrals.
	Starting BB first half-transformation.
	Sorting BB half-transformed integrals.
	First half integral transformation complete.
	Starting AA second half-transformation.
	Starting AB second half-transformation.
	Starting BB second half-transformation.
	Two-electron integral transformation complete.
	(OV|OV)...
	Starting AA second half-transformation.
	Starting AB second half-transformation.
	Starting BB second half-transformation.
	Two-electron integral transformation complete.
	(OV|VV)...
	Starting AA second half-transformation.
	Starting AB second half-transformation.
	Starting BB second half-transformation.
	Two-electron integral transformation complete.
	(VV|OO)...
	Starting AA/AB first half-transformation.
	Sorting AA/AB half-transformed integrals.
	Starting BB first half-transformation.
	Sorting BB half-transformed integrals.
	First half integral transformation complete.
	Starting AA second half-transformation.
	Starting AB second half-transformation.
	Starting BB second half-transformation.
	Two-electron integral transformation complete.
	(VV|OV)...
	Starting AA second half-transformation.
	Starting AB second half-transformation.
	Starting BB second half-transformation.
	Two-electron integral transformation complete.
	(VV|VV)...
	Starting AA second half-transformation.
	Starting AB second half-transformation.
	Starting BB second half-transformation.
	Two-electron integral transformation complete.
	Frozen core energy     =   -103.66339001636939

	Size of irrep 0 of <AB|CD> integrals:      9.296 (MW) /     74.371 (MB)
	Size of irrep 1 of <AB|CD> integrals:      6.875 (MW) /     54.999 (MB)
	Total:                                    16.171 (MW) /    129.370 (MB)

	Size of irrep 0 of <ab|cd> integrals:      9.722 (MW) /     77.775 (MB)
	Size of irrep 1 of <ab|cd> integrals:      7.076 (MW) /     56.605 (MB)
	Total:                                    16.798 (MW) /    134.380 (MB)

	Size of irrep 0 of <Ab|Cd> integrals:     39.363 (MW) /    314.905 (MB)
	Size of irrep 1 of <Ab|Cd> integrals:     27.900 (MW) /    223.196 (MB)
	Total:                                    67.263 (MW) /    538.101 (MB)

	Size of irrep 0 of <IA|BC> integrals:      2.377 (MW) /     19.012 (MB)
	Size of irrep 1 of <IA|BC> integrals:      1.358 (MW) /     10.866 (MB)
	Total:                                     3.735 (MW) /     29.878 (MB)

	Size of irrep 0 of <ia|bc> integrals:      2.017 (MW) /     16.139 (MB)
	Size of irrep 1 of <ia|bc> integrals:      1.181 (MW) /      9.448 (MB)
	Total:                                     3.198 (MW) /     25.587 (MB)

	Size of irrep 0 of <Ia|Bc> integrals:      2.434 (MW) /     19.474 (MB)
	Size of irrep 1 of <Ia|Bc> integrals:      1.373 (MW) /     10.987 (MB)
	Total:                                     3.808 (MW) /     30.461 (MB)

	Size of irrep 0 of <iA|bC> integrals:      1.970 (MW) /     15.760 (MB)
	Size of irrep 1 of <iA|bC> integrals:      1.167 (MW) /      9.339 (MB)
	Total:                                     3.137 (MW) /     25.099 (MB)

	Size of irrep 0 of tIjAb amplitudes:       0.132 (MW) /      1.054 (MB)
	Size of irrep 1 of tIjAb amplitudes:       0.048 (MW) /      0.380 (MB)
	Total:                                     0.179 (MW) /      1.434 (MB)

	Nuclear Rep. energy          =     26.38756985801245
	SCF energy                   =   -113.29368819049320
	One-electron energy          =    -63.37823527854320
	Two-electron (AA) energy     =      6.63949241182605
	Two-electron (BB) energy     =      4.66794389352554
	Two-electron (AB) energy     =     16.05293094105512
	Two-electron energy          =     27.36036724640671
	Reference energy             =   -113.29368819049343

*** tstop() called on cqc05 at Thu Aug 20 20:01:26 2020
Module time:
	user time   =       7.16 seconds =       0.12 minutes
	system time =       4.20 seconds =       0.07 minutes
	total time  =         11 seconds =       0.18 minutes
Total time:
	user time   =      18.23 seconds =       0.30 minutes
	system time =       4.82 seconds =       0.08 minutes
	total time  =         22 seconds =       0.37 minutes

*** tstart() called on cqc05
*** at Thu Aug 20 20:01:26 2020

            **************************
            *                        *
            *        CCENERGY        *
            *                        *
            **************************

    Nuclear Rep. energy (wfn)     =   26.387569858012455
    SCF energy          (wfn)     = -113.293688190493199
    Reference energy    (file100) = -113.293688190493427

    Input parameters:
    -----------------
    Wave function   =     CCSD
    Reference wfn   =     UHF
    Brueckner       =     No
    Memory (Mbytes) =     250000.0
    Maxiter         =     50
    R_Convergence   =     1.0e-07
    E_Convergence   =     1.0e-06
    Restart         =     Yes
    DIIS            =     Yes
    AO Basis        =     NONE
    ABCD            =     NEW
    Cache Level     =     2
    Cache Type      =     LRU
    Print Level     =     1
    Num. of threads =     4
    # Amps to Print =     10
    Print MP2 Amps? =     No
    Analyze T2 Amps =     No
    Print Pair Ener =     No
    Local CC        =     No
    SCS-MP2         =     False
    SCSN-MP2        =     False
    SCS-CCSD        =     False

MP2 correlation energy -0.3750027849125615
                Solving CC Amplitude Equations
                ------------------------------
  Iter             Energy              RMS        T1Diag      D1Diag    New D1Diag    D2Diag
  ----     ---------------------    ---------   ----------  ----------  ----------   --------
     0        -0.375002784912563    0.000e+00    0.000000    0.000000    0.000000    0.000000
     1        -0.364943141391408    9.631e-02    0.023583    0.000000    0.000000    0.000000
     2        -0.377526218426604    3.230e-02    0.022778    0.000000    0.000000    0.000000
     3        -0.381187858215382    1.910e-02    0.029113    0.000000    0.000000    0.000000
     4        -0.380803318023108    5.995e-03    0.031021    0.000000    0.000000    0.000000
     5        -0.380825425653643    3.145e-03    0.032222    0.000000    0.000000    0.000000
     6        -0.380851846788427    1.252e-03    0.032551    0.000000    0.000000    0.000000
     7        -0.380850098119138    5.506e-04    0.032616    0.000000    0.000000    0.000000
     8        -0.380856463884225    2.014e-04    0.032639    0.000000    0.000000    0.000000
     9        -0.380857049790500    6.502e-05    0.032641    0.000000    0.000000    0.000000
    10        -0.380855063585353    2.589e-05    0.032641    0.000000    0.000000    0.000000
    11        -0.380855678200367    1.164e-05    0.032640    0.000000    0.000000    0.000000
    12        -0.380855456972009    5.259e-06    0.032641    0.000000    0.000000    0.000000
    13        -0.380855557467883    2.386e-06    0.032641    0.000000    0.000000    0.000000
    14        -0.380855631935096    9.705e-07    0.032641    0.000000    0.000000    0.000000
    15        -0.380855604914989    4.089e-07    0.032641    0.000000    0.000000    0.000000
    16        -0.380855602109139    1.929e-07    0.032641    0.000000    0.000000    0.000000
    17        -0.380855600192273    8.669e-08    0.032641    0.000000    0.000000    0.000000
    17        -0.380855600192273    8.669e-08    0.032641    0.000000    0.000000    0.000000

    Iterations converged.


    CCSD corr. energy   =   -0.380855600192273
    PPL corr. energy    =    0.089242741323578
    OS PPL corr. energy =    0.073604476071502
    SS PPL corr. energy =    0.015638265252078
    Largest TIA Amplitudes:
              5  70        -0.0211892962
              4   6         0.0163509464
              4   2         0.0134870777
              5  81         0.0127121460
              5  75        -0.0104290543
              5  69        -0.0095884592
              4   5         0.0091335815
              3   5         0.0082011366
              2  15        -0.0076416000
              2  11        -0.0075716245

    Largest Tia Amplitudes:
              4  71        -0.0448295109
              3   3        -0.0423209704
              3   1         0.0397859083
              4  70        -0.0214590780
              3   4        -0.0213576772
              4  76        -0.0169097223
              3   7        -0.0154255873
              3  15         0.0125599822
              4  74        -0.0124749374
              3  10         0.0119464318

    Largest TIJAB Amplitudes:
      5   3  70  16         0.0121512376
      5   2  70  16         0.0109227851
      5   4  70  15         0.0105607801
      5   3  70  22        -0.0088567622
      5   4  69  15         0.0085950513
      5   4  70  18         0.0081748796
      5   3  70  13        -0.0080450558
      5   3  69  13        -0.0080403710
      5   3  70  14        -0.0074823132
      5   4  70  32         0.0074313807

    Largest Tijab Amplitudes:
      4   3  71   1         0.0242242489
      4   3  71   3        -0.0229245383
      4   3  71  13         0.0158205442
      4   3  70   1         0.0150506397
      4   3  71   7        -0.0144653127
      4   2  71  17         0.0140934910
      4   3  70   3        -0.0127068230
      4   3  72   1         0.0125653051
      4   3  71   4        -0.0125527709
      3   2  17   3        -0.0121974973

    Largest TIjAb Amplitudes:
      5   4  70  71        -0.0728768882
      5   4  69  71        -0.0499732861
      5   3  70   1         0.0407061161
      5   4  70  70        -0.0403526057
      5   3  70   3        -0.0386501758
      5   4  70  72        -0.0321105205
      5   4  69  70        -0.0304468793
      1   1  70  71        -0.0302252014
      5   3  69   1         0.0299011684
      5   4  71  71        -0.0282971126

    SCF energy       (wfn)                    = -113.293688190493199
    Reference energy (file100)                = -113.293688190493427

    Opposite-spin MP2 correlation energy      =   -0.280087542336089
    Same-spin MP2 correlation energy          =   -0.094915242576454
    MP2 correlation energy                    =   -0.375002784912562
      * MP2 total energy                      = -113.668690975405994

    Opposite-spin CCSD correlation energy     =   -0.298048988703023
    Same-spin CCSD correlation energy         =   -0.082806608918755
    CCSD correlation energy                   =   -0.380855600192273
      * CCSD total energy                     = -113.674543790685703


*** tstop() called on cqc05 at Thu Aug 20 20:01:46 2020
Module time:
	user time   =       9.91 seconds =       0.17 minutes
	system time =       6.87 seconds =       0.11 minutes
	total time  =         20 seconds =       0.33 minutes
Total time:
	user time   =      28.14 seconds =       0.47 minutes
	system time =      11.69 seconds =       0.19 minutes
	total time  =         42 seconds =       0.70 minutes

*** Psi4 exiting successfully. Buy a developer a beer!
