
    -----------------------------------------------------------------------
          Psi4: An Open-Source Ab Initio Electronic Structure Package
                               Psi4 1.2a1.dev938 

                         Git: Rev {HEAD} fc51d9a dirty


    R. M. Parrish, L. A. Burns, D. G. A. Smith, A. C. Simmonett,
    A. E. DePrince III, E. G. Hohenstein, U. Bozkaya, A. Yu. Sokolov,
    R. Di Remigio, R. M. Richard, J. F. Gonthier, A. M. James,
    H. R. McAlexander, A. Kumar, M. Saitow, X. Wang, B. P. Pritchard,
    P. Verma, H. F. Schaefer III, K. Patkowski, R. A. King, E. F. Valeev,
    F. A. Evangelista, J. M. Turney, T. D. Crawford, and C. D. Sherrill,
    J. Chem. Theory Comput. 13(7) pp 3185--3197 (2017).
    (doi: 10.1021/acs.jctc.7b00174)

    -----------------------------------------------------------------------


    Psi4 started on: Thursday, 20 August 2020 08:03PM

    Process ID: 423599
    PSIDATADIR: /home/irmler/Programs/psi4/beforeGrueneis3/stage/usr/local/psi4/share/psi4
    Memory:     500.0 MiB
    Threads:    4
    
  ==> Input File <==

--------------------------------------------------------------------------
# Any line starting with the # character is a comment line
memory 250000 mb
molecule molecule{
0 2
O          0.0000000000        0.0000000000       -0.0574567159
H          0.0000000000        0.0000000000        0.9120314505
}

set {
  reference uhf
  basis aug-cc-pv(t+d)z
  scf_type OUT_OF_CORE
  freeze_core true
}

energy('ccsd')
--------------------------------------------------------------------------

  Memory set to 232.831 GiB by Python driver.

*** tstart() called on cqc05
*** at Thu Aug 20 20:03:58 2020

   => Loading Basis Set <=

    Name: AUG-CC-PV(T+D)Z
    Role: ORBITAL
    Keyword: BASIS
    atoms 1 entry O          line   347 file /home/irmler/Programs/psi4/beforeGrueneis3/stage/usr/local/psi4/share/psi4/basis/aug-cc-pv_tpd_z.gbs 
    atoms 2 entry H          line    56 file /home/irmler/Programs/psi4/beforeGrueneis3/stage/usr/local/psi4/share/psi4/basis/aug-cc-pv_tpd_z.gbs 


         ---------------------------------------------------------
                                   SCF
            by Justin Turney, Rob Parrish, Andy Simmonett
                             and Daniel Smith
                              UHF Reference
                        4 Threads, 238418 MiB Core
         ---------------------------------------------------------

  ==> Geometry <==

    Molecular point group: c2v
    Full point group: C_inf_v

    Geometry (in Angstrom), charge = 0, multiplicity = 2:

       Center              X                  Y                   Z               Mass       
    ------------   -----------------  -----------------  -----------------  -----------------
           O          0.000000000000     0.000000000000    -0.057465706258    15.994914619560
           H          0.000000000000     0.000000000000     0.912022460142     1.007825032070

  Running in c2v symmetry.

  Rotational constants: A = ************  B =     18.91748  C =     18.91748 [cm^-1]
  Rotational constants: A = ************  B = 567131.81210  C = 567131.81210 [MHz]
  Nuclear repulsion =    4.366652235106642

  Charge       = 0
  Multiplicity = 2
  Electrons    = 9
  Nalpha       = 5
  Nbeta        = 4

  ==> Algorithm <==

  SCF Algorithm Type is OUT_OF_CORE.
  DIIS enabled.
  MOM disabled.
  Fractional occupation disabled.
  Guess Type is GWH.
  Energy threshold   = 1.00e-08
  Density threshold  = 1.00e-08
  Integral threshold = 0.00e+00

  ==> Primary Basis <==

  Basis Set: AUG-CC-PV(T+D)Z
    Blend: AUG-CC-PV(T+D)Z
    Number of shells: 23
    Number of basis function: 69
    Number of Cartesian functions: 80
    Spherical Harmonics?: true
    Max angular momentum: 3

  ==> Pre-Iterations <==

   -------------------------------------------------------
    Irrep   Nso     Nmo     Nalpha   Nbeta   Ndocc  Nsocc
   -------------------------------------------------------
     A1        30      30       0       0       0       0
     A2         7       7       0       0       0       0
     B1        16      16       0       0       0       0
     B2        16      16       0       0       0       0
   -------------------------------------------------------
    Total      69      69       5       4       4       1
   -------------------------------------------------------

  ==> Integral Setup <==

  ==> DiskJK: Disk-Based J/K Matrices <==

    J tasked:                  Yes
    K tasked:                  Yes
    wK tasked:                  No
    Memory (MB):            178813
    Schwarz Cutoff:          1E-12

  Minimum eigenvalue in the overlap matrix is 5.0410356374E-04.
  Using Symmetric Orthogonalization.

  SCF Guess: Generalized Wolfsberg-Helmholtz.

  ==> Iterations <==

                        Total Energy        Delta E     RMS |[F,P]|

    Occupation by irrep:
             A1    A2    B1    B2 
    DOCC [     4,    0,    0,    0 ]
    SOCC [     0,    0,    1,    0 ]

   @UHF iter   1:   -69.93342110117564   -6.99334e+01   2.03465e-01 
    Occupation by irrep:
             A1    A2    B1    B2 
    DOCC [     3,    0,    0,    1 ]
    SOCC [     0,    0,    1,    0 ]

   @UHF iter   2:   -69.20561389677225    7.27807e-01   1.04692e-01 DIIS
   @UHF iter   3:   -74.18412117229167   -4.97851e+00   7.35150e-02 DIIS
   @UHF iter   4:   -75.20090355422199   -1.01678e+00   2.79587e-02 DIIS
   @UHF iter   5:   -75.41832986684847   -2.17426e-01   2.35439e-03 DIIS
   @UHF iter   6:   -75.42150116744851   -3.17130e-03   4.80309e-04 DIIS
   @UHF iter   7:   -75.42162371732857   -1.22550e-04   1.42793e-04 DIIS
   @UHF iter   8:   -75.42164655064387   -2.28333e-05   5.28817e-05 DIIS
   @UHF iter   9:   -75.42165053826469   -3.98762e-06   2.11822e-05 DIIS
   @UHF iter  10:   -75.42165107156988   -5.33305e-07   4.66120e-06 DIIS
   @UHF iter  11:   -75.42165109288221   -2.13123e-08   1.32807e-06 DIIS
   @UHF iter  12:   -75.42165109431149   -1.42927e-09   3.87179e-07 DIIS
   @UHF iter  13:   -75.42165109445416   -1.42677e-10   6.62236e-08 DIIS
   @UHF iter  14:   -75.42165109445715   -2.98428e-12   1.14555e-08 DIIS
   @UHF iter  15:   -75.42165109445718   -2.84217e-14   1.50763e-09 DIIS

  ==> Post-Iterations <==

   @Spin Contamination Metric:   7.080395196E-03
   @S^2 Expected:                7.500000000E-01
   @S^2 Observed:                7.570803952E-01
   @S   Expected:                5.000000000E-01
   @S   Observed:                5.000000000E-01

    Orbital Energies (a.u.)
    -----------------------

    Alpha Occupied:                                                       

       1A1   -20.641075     2A1    -1.390220     3A1    -0.683057  
       1B1    -0.658638     1B2    -0.561752  

    Alpha Virtual:                                                        

       4A1     0.029847     5A1     0.136351     2B1     0.152765  
       2B2     0.162091     6A1     0.183967     7A1     0.262574  
       3B1     0.268670     3B2     0.275196     8A1     0.426396  
       9A1     0.629806     1A2     0.638694    10A1     0.649641  
       4B1     0.714406     4B2     0.729101     5B1     0.853690  
      11A1     0.875513     5B2     0.880994    12A1     0.926289  
       2A2     0.937948    13A1     0.939003     6B1     0.981276  
      14A1     0.999701     6B2     1.007894     7B1     1.496326  
       7B2     1.515493    15A1     1.696458    16A1     2.029069  
       8B1     2.043224     8B2     2.043244     3A2     2.097657  
      17A1     2.098240     9B1     2.251964     9B2     2.289026  
      18A1     2.320378     4A2     2.321337    19A1     2.444393  
      20A1     2.486992    10B1     2.727470    10B2     2.765967  
      21A1     3.578914    11B1     4.021292     5A2     4.030325  
      22A1     4.030571    11B2     4.078467    12B1     4.298886  
      12B2     4.311560    23A1     4.638142    24A1     5.111787  
      13B1     5.255858    13B2     5.294608    25A1     6.133025  
      14B1     6.431611    14B2     6.431635     6A2     6.593333  
      26A1     6.595030    27A1     6.965562     7A2     6.965643  
      15B1     7.130593    16B1     7.164734    15B2     7.181584  
      16B2     7.227776    28A1     7.369462    29A1     7.689698  
      30A1    12.907981  

    Beta Occupied:                                                        

       1A1   -20.601397     2A1    -1.231915     3A1    -0.639149  
       1B2    -0.513693  

    Beta Virtual:                                                         

       4A1     0.030996     1B1     0.063324     5A1     0.138912  
       2B2     0.164294     6A1     0.188181     2B1     0.210214  
       7A1     0.265812     3B2     0.275111     3B1     0.289574  
       8A1     0.436685     9A1     0.645281     1A2     0.655348  
      10A1     0.656562     4B2     0.727292     4B1     0.730999  
      11A1     0.879900     5B2     0.887733     5B1     0.912897  
      12A1     0.937408     2A2     0.939997    13A1     0.941079  
      14A1     1.010388     6B2     1.015809     6B1     1.059727  
       7B2     1.515109     7B1     1.520477    15A1     1.715118  
      16A1     2.051325     8B2     2.062299     8B1     2.062302  
       3A2     2.170668    17A1     2.172308     9B2     2.293412  
       9B1     2.298211    18A1     2.337499     4A2     2.337951  
      19A1     2.461485    20A1     2.500649    10B1     2.770587  
      10B2     2.772619    21A1     3.584412     5A2     4.033001  
      22A1     4.033031    11B2     4.096619    11B1     4.133879  
      12B1     4.304172    12B2     4.308283    23A1     4.648234  
      24A1     5.134494    13B1     5.297461    13B2     5.301932  
      25A1     6.157463    14B2     6.485955    14B1     6.485955  
       6A2     6.633966    26A1     6.634079     7A2     7.057817  
      27A1     7.058037    15B1     7.173552    15B2     7.190259  
      16B2     7.248030    16B1     7.253131    28A1     7.386999  
      29A1     7.718728    30A1    12.941048  

    Final Occupation by Irrep:
             A1    A2    B1    B2 
    DOCC [     3,    0,    0,    1 ]
    SOCC [     0,    0,    1,    0 ]

  Energy converged.

  @UHF Final Energy:   -75.42165109445718

   => Energetics <=

    Nuclear Repulsion Energy =              4.3666522351066419
    One-Electron Energy =                -112.6557122845948413
    Two-Electron Energy =                  32.8674089550310242
    Total Energy =                        -75.4216510944571752


  UHF NO Occupations:
  HONO-2 :    2 A1 1.9992052
  HONO-1 :    3 A1 1.9978724
  HONO-0 :    1 B1 1.0000000
  LUNO+0 :    4 A1 0.0021276
  LUNO+1 :    5 A1 0.0007948
  LUNO+2 :    2 B2 0.0006195
  LUNO+3 :    6 A1 0.0000011



Properties will be evaluated at   0.000000,   0.000000,   0.000000 Bohr

Properties computed using the SCF density matrix

  Nuclear Dipole Moment: (a.u.)
     X:     0.0000      Y:     0.0000      Z:     0.8547

  Electronic Dipole Moment: (a.u.)
     X:     0.0000      Y:     0.0000      Z:    -0.1619

  Dipole Moment: (a.u.)
     X:     0.0000      Y:     0.0000      Z:     0.6928     Total:     0.6928

  Dipole Moment: (Debye)
     X:     0.0000      Y:     0.0000      Z:     1.7609     Total:     1.7609


*** tstop() called on cqc05 at Thu Aug 20 20:03:59 2020
Module time:
	user time   =       1.24 seconds =       0.02 minutes
	system time =       0.04 seconds =       0.00 minutes
	total time  =          1 seconds =       0.02 minutes
Total time:
	user time   =       1.24 seconds =       0.02 minutes
	system time =       0.04 seconds =       0.00 minutes
	total time  =          1 seconds =       0.02 minutes

*** tstart() called on cqc05
*** at Thu Aug 20 20:03:59 2020


	Wfn Parameters:
	--------------------
	Wavefunction         = CCSD
	Number of irreps     = 4
	Number of MOs        = 69
	Number of active MOs = 68
	AO-Basis             = NONE
	Semicanonical        = false
	Reference            = UHF
	Print Level          = 1

	IRREP	# MOs	# FZDC	# DOCC	# SOCC	# VIRT	# FZVR
	-----	-----	------	------	------	------	------
	 A1	   30	    1	    2	    0	    27	    0
	 A2	   7	    0	    0	    0	    7	    0
	 B1	   16	    0	    0	    1	    15	    0
	 B2	   16	    0	    1	    0	    15	    0
	Transforming integrals...
	IWL integrals will be deleted.
	(OO|OO)...
	Presorting SO-basis two-electron integrals.
	Sorting File: SO Ints (nn|nn) nbuckets = 1
	Transforming the one-electron integrals and constructing Fock matrices
	Starting AA/AB first half-transformation.
	Sorting AA/AB half-transformed integrals.
	Starting BB first half-transformation.
	Sorting BB half-transformed integrals.
	First half integral transformation complete.
	Starting AA second half-transformation.
	Starting AB second half-transformation.
	Starting BB second half-transformation.
	Two-electron integral transformation complete.
	(OO|OV)...
	Starting AA second half-transformation.
	Starting AB second half-transformation.
	Starting BB second half-transformation.
	Two-electron integral transformation complete.
	(OO|VV)...
	Starting AA second half-transformation.
	Starting AB second half-transformation.
	Starting BB second half-transformation.
	Two-electron integral transformation complete.
	(OV|OO)...
	Starting AA/AB first half-transformation.
	Sorting AA/AB half-transformed integrals.
	Starting BB first half-transformation.
	Sorting BB half-transformed integrals.
	First half integral transformation complete.
	Starting AA second half-transformation.
	Starting AB second half-transformation.
	Starting BB second half-transformation.
	Two-electron integral transformation complete.
	(OV|OV)...
	Starting AA second half-transformation.
	Starting AB second half-transformation.
	Starting BB second half-transformation.
	Two-electron integral transformation complete.
	(OV|VV)...
	Starting AA second half-transformation.
	Starting AB second half-transformation.
	Starting BB second half-transformation.
	Two-electron integral transformation complete.
	(VV|OO)...
	Starting AA/AB first half-transformation.
	Sorting AA/AB half-transformed integrals.
	Starting BB first half-transformation.
	Sorting BB half-transformed integrals.
	First half integral transformation complete.
	Starting AA second half-transformation.
	Starting AB second half-transformation.
	Starting BB second half-transformation.
	Two-electron integral transformation complete.
	(VV|OV)...
	Starting AA second half-transformation.
	Starting AB second half-transformation.
	Starting BB second half-transformation.
	Two-electron integral transformation complete.
	(VV|VV)...
	Starting AA second half-transformation.
	Starting AB second half-transformation.
	Starting BB second half-transformation.
	Two-electron integral transformation complete.
	Frozen core energy     =    -60.19722257010130

	Size of irrep 0 of <AB|CD> integrals:      0.339 (MW) /      2.710 (MB)
	Size of irrep 1 of <AB|CD> integrals:      0.171 (MW) /      1.371 (MB)
	Size of irrep 2 of <AB|CD> integrals:      0.260 (MW) /      2.081 (MB)
	Size of irrep 3 of <AB|CD> integrals:      0.260 (MW) /      2.081 (MB)
	Total:                                     1.030 (MW) /      8.243 (MB)

	Size of irrep 0 of <ab|cd> integrals:      0.356 (MW) /      2.851 (MB)
	Size of irrep 1 of <ab|cd> integrals:      0.184 (MW) /      1.472 (MB)
	Size of irrep 2 of <ab|cd> integrals:      0.288 (MW) /      2.307 (MB)
	Size of irrep 3 of <ab|cd> integrals:      0.267 (MW) /      2.138 (MB)
	Total:                                     1.096 (MW) /      8.769 (MB)

	Size of irrep 0 of <Ab|Cd> integrals:      1.545 (MW) /     12.360 (MB)
	Size of irrep 1 of <Ab|Cd> integrals:      0.711 (MW) /      5.685 (MB)
	Size of irrep 2 of <Ab|Cd> integrals:      1.096 (MW) /      8.770 (MB)
	Size of irrep 3 of <Ab|Cd> integrals:      1.055 (MW) /      8.438 (MB)
	Total:                                     4.407 (MW) /     35.253 (MB)

	Size of irrep 0 of <IA|BC> integrals:      0.103 (MW) /      0.825 (MB)
	Size of irrep 1 of <IA|BC> integrals:      0.036 (MW) /      0.291 (MB)
	Size of irrep 2 of <IA|BC> integrals:      0.065 (MW) /      0.522 (MB)
	Size of irrep 3 of <IA|BC> integrals:      0.065 (MW) /      0.522 (MB)
	Total:                                     0.270 (MW) /      2.161 (MB)

	Size of irrep 0 of <ia|bc> integrals:      0.087 (MW) /      0.695 (MB)
	Size of irrep 1 of <ia|bc> integrals:      0.026 (MW) /      0.206 (MB)
	Size of irrep 2 of <ia|bc> integrals:      0.042 (MW) /      0.335 (MB)
	Size of irrep 3 of <ia|bc> integrals:      0.059 (MW) /      0.472 (MB)
	Total:                                     0.213 (MW) /      1.707 (MB)

	Size of irrep 0 of <Ia|Bc> integrals:      0.106 (MW) /      0.845 (MB)
	Size of irrep 1 of <Ia|Bc> integrals:      0.038 (MW) /      0.303 (MB)
	Size of irrep 2 of <Ia|Bc> integrals:      0.069 (MW) /      0.553 (MB)
	Size of irrep 3 of <Ia|Bc> integrals:      0.066 (MW) /      0.526 (MB)
	Total:                                     0.278 (MW) /      2.227 (MB)

	Size of irrep 0 of <iA|bC> integrals:      0.086 (MW) /      0.686 (MB)
	Size of irrep 1 of <iA|bC> integrals:      0.024 (MW) /      0.196 (MB)
	Size of irrep 2 of <iA|bC> integrals:      0.039 (MW) /      0.310 (MB)
	Size of irrep 3 of <iA|bC> integrals:      0.059 (MW) /      0.468 (MB)
	Total:                                     0.207 (MW) /      1.660 (MB)

	Size of irrep 0 of tIjAb amplitudes:       0.006 (MW) /      0.050 (MB)
	Size of irrep 1 of tIjAb amplitudes:       0.001 (MW) /      0.007 (MB)
	Size of irrep 2 of tIjAb amplitudes:       0.002 (MW) /      0.017 (MB)
	Size of irrep 3 of tIjAb amplitudes:       0.004 (MW) /      0.033 (MB)
	Total:                                     0.013 (MW) /      0.106 (MB)

	Nuclear Rep. energy          =      4.36665223510664
	SCF energy                   =    -75.42165109445718
	One-electron energy          =    -33.50373890834310
	Two-electron (AA) energy     =      3.69602806247847
	Two-electron (BB) energy     =      1.71917274677054
	Two-electron (AB) energy     =      8.49745733963141
	Two-electron energy          =     13.91265814888042
	Reference energy             =    -75.42165109445733

*** tstop() called on cqc05 at Thu Aug 20 20:04:00 2020
Module time:
	user time   =       0.48 seconds =       0.01 minutes
	system time =       0.26 seconds =       0.00 minutes
	total time  =          1 seconds =       0.02 minutes
Total time:
	user time   =       1.72 seconds =       0.03 minutes
	system time =       0.30 seconds =       0.01 minutes
	total time  =          2 seconds =       0.03 minutes

*** tstart() called on cqc05
*** at Thu Aug 20 20:04:00 2020

            **************************
            *                        *
            *        CCENERGY        *
            *                        *
            **************************

    Nuclear Rep. energy (wfn)     =    4.366652235106642
    SCF energy          (wfn)     =  -75.421651094457175
    Reference energy    (file100) =  -75.421651094457332

    Input parameters:
    -----------------
    Wave function   =     CCSD
    Reference wfn   =     UHF
    Brueckner       =     No
    Memory (Mbytes) =     250000.0
    Maxiter         =     50
    R_Convergence   =     1.0e-07
    E_Convergence   =     1.0e-06
    Restart         =     Yes
    DIIS            =     Yes
    AO Basis        =     NONE
    ABCD            =     NEW
    Cache Level     =     2
    Cache Type      =     LRU
    Print Level     =     1
    Num. of threads =     4
    # Amps to Print =     10
    Print MP2 Amps? =     No
    Analyze T2 Amps =     No
    Print Pair Ener =     No
    Local CC        =     No
    SCS-MP2         =     False
    SCSN-MP2        =     False
    SCS-CCSD        =     False

MP2 correlation energy -0.2046862561989118
                Solving CC Amplitude Equations
                ------------------------------
  Iter             Energy              RMS        T1Diag      D1Diag    New D1Diag    D2Diag
  ----     ---------------------    ---------   ----------  ----------  ----------   --------
     0        -0.204686256198912    0.000e+00    0.000000    0.000000    0.000000    0.000000
     1        -0.213007104298473    3.838e-02    0.010483    0.000000    0.000000    0.000000
     2        -0.217083272117705    1.227e-02    0.011880    0.000000    0.000000    0.000000
     3        -0.218087733260019    6.152e-03    0.013831    0.000000    0.000000    0.000000
     4        -0.218008545860896    2.094e-03    0.014220    0.000000    0.000000    0.000000
     5        -0.218027067190735    9.224e-04    0.014303    0.000000    0.000000    0.000000
     6        -0.218044471537661    3.437e-04    0.014288    0.000000    0.000000    0.000000
     7        -0.218044555759494    1.081e-04    0.014270    0.000000    0.000000    0.000000
     8        -0.218045297872085    3.580e-05    0.014267    0.000000    0.000000    0.000000
     9        -0.218045154212273    1.222e-05    0.014267    0.000000    0.000000    0.000000
    10        -0.218045064850345    4.971e-06    0.014267    0.000000    0.000000    0.000000
    11        -0.218045144797902    1.935e-06    0.014268    0.000000    0.000000    0.000000
    12        -0.218045161774956    7.472e-07    0.014268    0.000000    0.000000    0.000000
    13        -0.218045178443220    2.942e-07    0.014268    0.000000    0.000000    0.000000
    14        -0.218045184567368    1.150e-07    0.014268    0.000000    0.000000    0.000000
    15        -0.218045183905951    4.709e-08    0.014268    0.000000    0.000000    0.000000
    15        -0.218045183905951    4.709e-08    0.014268    0.000000    0.000000    0.000000

    Iterations converged.


    CCSD corr. energy   =   -0.218045183905951
    PPL corr. energy    =    0.044165421570802
    OS PPL corr. energy =    0.037017758040020
    SS PPL corr. energy =    0.007147663530782
    Largest TIA Amplitudes:
              3  49        -0.0142398706
              2  34        -0.0140307569
              3  50        -0.0092561279
              2  35        -0.0088617562
              2  37        -0.0058612227
              1   3        -0.0057418389
              1   1         0.0055660479
              3  52        -0.0049490217
              0   2        -0.0046881508
              2  36        -0.0037516938

    Largest Tia Amplitudes:
              2  50        -0.0115895954
              2  51        -0.0085602555
              0  13        -0.0054316031
              0   6        -0.0053171301
              2  59         0.0046728962
              0   4         0.0046192523
              1  19         0.0040226632
              1   3        -0.0039797436
              0  10         0.0039435045
              2  52        -0.0038966523

    Largest TIJAB Amplitudes:
      3   2  29  13         0.0161112165
      3   2  52  37        -0.0139300634
      3   1  51   6         0.0120632110
      3   2  53  37        -0.0117056674
      2   1  37   8        -0.0115630916
      2   1  36   5         0.0109053318
      3   1  52   8        -0.0107266256
      3   2  27  13         0.0103692839
      3   2  49  37        -0.0100994364
      2   1  37   4        -0.0096167639

    Largest Tijab Amplitudes:
      2   1  52   5         0.0133968573
      2   1  55   5         0.0100991383
      2   1  53   8        -0.0097687873
      2   1  54   4        -0.0094077829
      2   0  34  27        -0.0093428585
      2   0  34  29         0.0090608335
      2   1  50   4        -0.0081722191
      2   1  54   8        -0.0078300030
      1   0  37  34         0.0078183844
      2   1  53   4        -0.0078087892

    Largest TIjAb Amplitudes:
      1   1   4   4        -0.0277297207
      3   2  52  53        -0.0241978961
      3   2  53  54        -0.0235571964
      3   2  52  54        -0.0225512317
      2   0   5  34         0.0210385475
      3   0  29  34         0.0201195137
      1   1   8   8        -0.0200688164
      2   0  13  34        -0.0197340407
      3   2  53  53        -0.0197327554
      1   1   4   5         0.0196947989

    SCF energy       (wfn)                    =  -75.421651094457175
    Reference energy (file100)                =  -75.421651094457332

    Opposite-spin MP2 correlation energy      =   -0.156822211917724
    Same-spin MP2 correlation energy          =   -0.047864044281188
    MP2 correlation energy                    =   -0.204686256198912
      * MP2 total energy                      =  -75.626337350656243

    Opposite-spin CCSD correlation energy     =   -0.172822010141933
    Same-spin CCSD correlation energy         =   -0.045223173589444
    CCSD correlation energy                   =   -0.218045183905951
      * CCSD total energy                     =  -75.639696278363289


*** tstop() called on cqc05 at Thu Aug 20 20:04:02 2020
Module time:
	user time   =       0.69 seconds =       0.01 minutes
	system time =       0.39 seconds =       0.01 minutes
	total time  =          2 seconds =       0.03 minutes
Total time:
	user time   =       2.41 seconds =       0.04 minutes
	system time =       0.69 seconds =       0.01 minutes
	total time  =          4 seconds =       0.07 minutes

*** Psi4 exiting successfully. Buy a developer a beer!
