
    -----------------------------------------------------------------------
          Psi4: An Open-Source Ab Initio Electronic Structure Package
                               Psi4 1.2a1.dev938 

                         Git: Rev {HEAD} fc51d9a dirty


    R. M. Parrish, L. A. Burns, D. G. A. Smith, A. C. Simmonett,
    A. E. DePrince III, E. G. Hohenstein, U. Bozkaya, A. Yu. Sokolov,
    R. Di Remigio, R. M. Richard, J. F. Gonthier, A. M. James,
    H. R. McAlexander, A. Kumar, M. Saitow, X. Wang, B. P. Pritchard,
    P. Verma, H. F. Schaefer III, K. Patkowski, R. A. King, E. F. Valeev,
    F. A. Evangelista, J. M. Turney, T. D. Crawford, and C. D. Sherrill,
    J. Chem. Theory Comput. 13(7) pp 3185--3197 (2017).
    (doi: 10.1021/acs.jctc.7b00174)

    -----------------------------------------------------------------------


    Psi4 started on: Thursday, 20 August 2020 10:40PM

    Process ID: 425344
    PSIDATADIR: /home/irmler/Programs/psi4/beforeGrueneis3/stage/usr/local/psi4/share/psi4
    Memory:     500.0 MiB
    Threads:    4
    
  ==> Input File <==

--------------------------------------------------------------------------
# Any line starting with the # character is a comment line
memory 250000 mb
molecule molecule{
0 3
Si          0.0000000000        0.0000000000        0.0000000000
}

set {
  reference uhf
  basis aug-cc-pv(q+d)z
  scf_type OUT_OF_CORE
  freeze_core true
}

energy('ccsd')
--------------------------------------------------------------------------

  Memory set to 232.831 GiB by Python driver.

*** tstart() called on cqc05
*** at Thu Aug 20 22:40:49 2020

   => Loading Basis Set <=

    Name: AUG-CC-PV(Q+D)Z
    Role: ORBITAL
    Keyword: BASIS
    atoms 1 entry SI         line   952 file /home/irmler/Programs/psi4/beforeGrueneis3/stage/usr/local/psi4/share/psi4/basis/aug-cc-pv_qpd_z.gbs 


         ---------------------------------------------------------
                                   SCF
            by Justin Turney, Rob Parrish, Andy Simmonett
                             and Daniel Smith
                              UHF Reference
                        4 Threads, 238418 MiB Core
         ---------------------------------------------------------

  ==> Geometry <==

    Molecular point group: d2h
    Geometry (in Angstrom), charge = 0, multiplicity = 3:

       Center              X                  Y                   Z               Mass       
    ------------   -----------------  -----------------  -----------------  -----------------
          SI          0.000000000000     0.000000000000     0.000000000000    27.976926532460

  Running in d2h symmetry.

  Rotational constants: A = ************  B = ************  C = ************ [cm^-1]
  Rotational constants: A = ************  B = ************  C = ************ [MHz]
  Nuclear repulsion =    0.000000000000000

  Charge       = 0
  Multiplicity = 3
  Electrons    = 14
  Nalpha       = 8
  Nbeta        = 6

  ==> Algorithm <==

  SCF Algorithm Type is OUT_OF_CORE.
  DIIS enabled.
  MOM disabled.
  Fractional occupation disabled.
  Guess Type is GWH.
  Energy threshold   = 1.00e-08
  Density threshold  = 1.00e-08
  Integral threshold = 0.00e+00

  ==> Primary Basis <==

  Basis Set: AUG-CC-PV(Q+D)Z
    Blend: AUG-CC-PV(Q+D)Z
    Number of shells: 23
    Number of basis function: 89
    Number of Cartesian functions: 115
    Spherical Harmonics?: true
    Max angular momentum: 4

  ==> Pre-Iterations <==

   -------------------------------------------------------
    Irrep   Nso     Nmo     Nalpha   Nbeta   Ndocc  Nsocc
   -------------------------------------------------------
     Ag        23      23       0       0       0       0
     B1g        9       9       0       0       0       0
     B2g        9       9       0       0       0       0
     B3g        9       9       0       0       0       0
     Au         3       3       0       0       0       0
     B1u       12      12       0       0       0       0
     B2u       12      12       0       0       0       0
     B3u       12      12       0       0       0       0
   -------------------------------------------------------
    Total      89      89       8       6       6       2
   -------------------------------------------------------

  ==> Integral Setup <==

  ==> DiskJK: Disk-Based J/K Matrices <==

    J tasked:                  Yes
    K tasked:                  Yes
    wK tasked:                  No
    Memory (MB):            178813
    Schwarz Cutoff:          1E-12

  Minimum eigenvalue in the overlap matrix is 4.7670913807E-04.
  Using Symmetric Orthogonalization.

  SCF Guess: Generalized Wolfsberg-Helmholtz.

  ==> Iterations <==

                        Total Energy        Delta E     RMS |[F,P]|

    Occupation by irrep:
             Ag   B1g   B2g   B3g    Au   B1u   B2u   B3u 
    DOCC [     3,    0,    0,    0,    0,    1,    1,    1 ]
    SOCC [     0,    0,    0,    0,    0,    1,    1,    0 ]

   @UHF iter   1:  -274.91810682016569   -2.74918e+02   2.25672e-01 
   @UHF iter   2:  -286.33990135440717   -1.14218e+01   7.91515e-02 DIIS
   @UHF iter   3:  -288.79743034671247   -2.45753e+00   1.10051e-02 DIIS
   @UHF iter   4:  -288.85518091527348   -5.77506e-02   1.93796e-03 DIIS
   @UHF iter   5:  -288.85819907568344   -3.01816e-03   5.34583e-04 DIIS
   @UHF iter   6:  -288.85843053612547   -2.31460e-04   1.60357e-04 DIIS
   @UHF iter   7:  -288.85846365317360   -3.31170e-05   2.58762e-05 DIIS
   @UHF iter   8:  -288.85846439916440   -7.45991e-07   5.01133e-06 DIIS
   @UHF iter   9:  -288.85846443260414   -3.34397e-08   1.16373e-06 DIIS
   @UHF iter  10:  -288.85846443417546   -1.57132e-09   1.41824e-07 DIIS
   @UHF iter  11:  -288.85846443419689   -2.14300e-11   1.06366e-08 DIIS
   @UHF iter  12:  -288.85846443419712   -2.27374e-13   1.21276e-09 DIIS

  ==> Post-Iterations <==

   @Spin Contamination Metric:   1.564132676E-02
   @S^2 Expected:                2.000000000E+00
   @S^2 Observed:                2.015641327E+00
   @S   Expected:                1.000000000E+00
   @S   Observed:                1.000000000E+00

    Orbital Energies (a.u.)
    -----------------------

    Alpha Occupied:                                                       

       1Ag   -68.815765     2Ag    -6.160843     1B1u   -4.268141  
       1B2u   -4.268141     1B3u   -4.258478     3Ag    -0.619884  
       2B1u   -0.301359     2B2u   -0.301359  

    Alpha Virtual:                                                        

       2B3u   -0.010131     4Ag     0.051732     3B1u    0.054083  
       3B2u    0.054083     3B3u    0.062438     5Ag     0.117179  
       1B3g    0.117179     1B1g    0.117337     1B2g    0.117337  
       6Ag     0.117666     4B1u    0.273529     4B2u    0.273529  
       4B3u    0.291057     7Ag     0.313186     8Ag     0.314797  
       2B3g    0.314797     2B2g    0.327562     2B1g    0.327562  
       5B3u    0.333276     9Ag     0.333417     5B2u    0.333795  
       5B1u    0.333795     6B3u    0.336415     1Au     0.336415  
       6B2u    0.341371     6B1u    0.341371    10Ag     0.830483  
       3B3g    0.830483     3B2g    0.831439     3B1g    0.831439  
      11Ag     0.832156     7B3u    0.946038     7B1u    0.947463  
       7B2u    0.947463     8B3u    0.951598     2Au     0.951598  
       8B2u    0.957714     8B1u    0.957714    12Ag     1.020177  
       4B1g    1.021398     4B2g    1.021398    13Ag     1.025079  
       4B3g    1.025079     5B1g    1.031266     5B2g    1.031266  
      14Ag     1.040046     5B3g    1.040046     9B1u    1.056945  
       9B2u    1.056945     9B3u    1.064328    15Ag     1.252977  
      16Ag     1.949010     6B1g    1.953505     6B2g    1.953505  
       6B3g    1.967472    17Ag     1.967472    10B3u    2.374813  
      10B1u    2.377010    10B2u    2.377010     3Au     2.383625  
      11B3u    2.383625    11B2u    2.394707    11B1u    2.394707  
      18Ag     2.650588     7B1g    2.652316     7B2g    2.652316  
       7B3g    2.657520    19Ag     2.657520     8B1g    2.666265  
       8B2g    2.666265    20Ag     2.678647     8B3g    2.678647  
      12B3u    5.151648    12B1u    5.167576    12B2u    5.167576  
      21Ag     6.077451     9B1g    6.081193     9B2g    6.081193  
       9B3g    6.092496    22Ag     6.092496    23Ag     9.016162  

    Beta Occupied:                                                        

       1Ag   -68.806871     2Ag    -6.149805     1B3u   -4.253799  
       1B2u   -4.240521     1B1u   -4.240521     3Ag    -0.462902  

    Beta Virtual:                                                         

       2B3u    0.005115     2B2u    0.031562     2B1u    0.031562  
       4Ag     0.058769     3B3u    0.067534     3B2u    0.091154  
       3B1u    0.091154     5Ag     0.123116     1B2g    0.124909  
       1B1g    0.124909     1B3g    0.131925     6Ag     0.131925  
       4B3u    0.298841     4B2u    0.327285     4B1u    0.327285  
       7Ag     0.335416     5B3u    0.338686     5B1u    0.340630  
       5B2u    0.340630     1Au     0.344794     6B3u    0.344794  
       6B2u    0.353624     6B1u    0.353624     8Ag     0.361745  
       2B1g    0.366386     2B2g    0.366386     2B3g    0.389834  
       9Ag     0.389834    10Ag     0.857104     3B1g    0.865571  
       3B2g    0.865571     3B3g    0.895929    11Ag     0.895929  
       7B3u    0.966459     7B2u    0.970973     7B1u    0.970973  
       2Au     0.983846     8B3u    0.983846     8B2u    1.005812  
       8B1u    1.005812    12Ag     1.030919     4B2g    1.032889  
       4B1g    1.032889     4B3g    1.038857    13Ag     1.038857  
       5B2g    1.048994     5B1g    1.048994    14Ag     1.063677  
       5B3g    1.063677     9B3u    1.073564     9B2u    1.110922  
       9B1u    1.110922    15Ag     1.280502    16Ag     1.960539  
       6B1g    1.968232     6B2g    1.968232     6B3g    1.995195  
      17Ag     1.995195    10B3u    2.393157    10B2u    2.398143  
      10B1u    2.398143     3Au     2.413306    11B3u    2.413306  
      11B1u    2.439481    11B2u    2.439481    18Ag     2.666843  
       7B1g    2.669868     7B2g    2.669868     7B3g    2.679013  
      19Ag     2.679013     8B1g    2.694492     8B2g    2.694492  
      20Ag     2.716713     8B3g    2.716713    12B3u    5.157699  
      12B2u    5.194444    12B1u    5.194444    21Ag     6.082625  
       9B1g    6.088312     9B2g    6.088312     9B3g    6.105539  
      22Ag     6.105539    23Ag     9.030105  

    Final Occupation by Irrep:
             Ag   B1g   B2g   B3g    Au   B1u   B2u   B3u 
    DOCC [     3,    0,    0,    0,    0,    1,    1,    1 ]
    SOCC [     0,    0,    0,    0,    0,    1,    1,    0 ]

  Energy converged.

  @UHF Final Energy:  -288.85846443419712

   => Energetics <=

    Nuclear Repulsion Energy =              0.0000000000000000
    One-Electron Energy =                -400.5685386079867385
    Two-Electron Energy =                 111.7100741737896215
    PCM Polarization Energy =               0.0000000000000000
    Total Energy =                       -288.8584644341971170

    Alert: EFP and PCM quantities not currently incorporated into SCF psivars.
  UHF NO Occupations:
  HONO-2 :    3 Ag 1.9921538
  HONO-1 :    2B2u 1.0000000
  HONO-0 :    2B1u 1.0000000
  LUNO+0 :    4 Ag 0.0078462
  LUNO+1 :    3B1u 0.0000023
  LUNO+2 :    3B2u 0.0000023
  LUNO+3 :    2B3u 0.0000004



Properties will be evaluated at   0.000000,   0.000000,   0.000000 Bohr

Properties computed using the SCF density matrix

  Nuclear Dipole Moment: (a.u.)
     X:     0.0000      Y:     0.0000      Z:     0.0000

  Electronic Dipole Moment: (a.u.)
     X:     0.0000      Y:     0.0000      Z:     0.0000

  Dipole Moment: (a.u.)
     X:     0.0000      Y:     0.0000      Z:     0.0000     Total:     0.0000

  Dipole Moment: (Debye)
     X:     0.0000      Y:     0.0000      Z:     0.0000     Total:     0.0000


*** tstop() called on cqc05 at Thu Aug 20 22:40:50 2020
Module time:
	user time   =       1.86 seconds =       0.03 minutes
	system time =       0.06 seconds =       0.00 minutes
	total time  =          1 seconds =       0.02 minutes
Total time:
	user time   =       1.86 seconds =       0.03 minutes
	system time =       0.06 seconds =       0.00 minutes
	total time  =          1 seconds =       0.02 minutes

*** tstart() called on cqc05
*** at Thu Aug 20 22:40:50 2020


	Wfn Parameters:
	--------------------
	Wavefunction         = CCSD
	Number of irreps     = 8
	Number of MOs        = 89
	Number of active MOs = 84
	AO-Basis             = NONE
	Semicanonical        = false
	Reference            = UHF
	Print Level          = 1

	IRREP	# MOs	# FZDC	# DOCC	# SOCC	# VIRT	# FZVR
	-----	-----	------	------	------	------	------
	 Ag	   23	    2	    1	    0	    20	    0
	 B1g	   9	    0	    0	    0	    9	    0
	 B2g	   9	    0	    0	    0	    9	    0
	 B3g	   9	    0	    0	    0	    9	    0
	 Au	   3	    0	    0	    0	    3	    0
	 B1u	   12	    1	    0	    1	    10	    0
	 B2u	   12	    1	    0	    1	    10	    0
	 B3u	   12	    1	    0	    0	    11	    0
	Transforming integrals...
	IWL integrals will be deleted.
	(OO|OO)...
	Presorting SO-basis two-electron integrals.
	Sorting File: SO Ints (nn|nn) nbuckets = 1
	Transforming the one-electron integrals and constructing Fock matrices
	Starting AA/AB first half-transformation.
	Sorting AA/AB half-transformed integrals.
	Starting BB first half-transformation.
	Sorting BB half-transformed integrals.
	First half integral transformation complete.
	Starting AA second half-transformation.
	Starting AB second half-transformation.
	Starting BB second half-transformation.
	Two-electron integral transformation complete.
	(OO|OV)...
	Starting AA second half-transformation.
	Starting AB second half-transformation.
	Starting BB second half-transformation.
	Two-electron integral transformation complete.
	(OO|VV)...
	Starting AA second half-transformation.
	Starting AB second half-transformation.
	Starting BB second half-transformation.
	Two-electron integral transformation complete.
	(OV|OO)...
	Starting AA/AB first half-transformation.
	Sorting AA/AB half-transformed integrals.
	Starting BB first half-transformation.
	Sorting BB half-transformed integrals.
	First half integral transformation complete.
	Starting AA second half-transformation.
	Starting AB second half-transformation.
	Starting BB second half-transformation.
	Two-electron integral transformation complete.
	(OV|OV)...
	Starting AA second half-transformation.
	Starting AB second half-transformation.
	Starting BB second half-transformation.
	Two-electron integral transformation complete.
	(OV|VV)...
	Starting AA second half-transformation.
	Starting AB second half-transformation.
	Starting BB second half-transformation.
	Two-electron integral transformation complete.
	(VV|OO)...
	Starting AA/AB first half-transformation.
	Sorting AA/AB half-transformed integrals.
	Starting BB first half-transformation.
	Sorting BB half-transformed integrals.
	First half integral transformation complete.
	Starting AA second half-transformation.
	Starting AB second half-transformation.
	Starting BB second half-transformation.
	Two-electron integral transformation complete.
	(VV|OV)...
	Starting AA second half-transformation.
	Starting AB second half-transformation.
	Starting BB second half-transformation.
	Two-electron integral transformation complete.
	(VV|VV)...
	Starting AA second half-transformation.
	Starting AB second half-transformation.
	Starting BB second half-transformation.
	Two-electron integral transformation complete.
	Frozen core energy     =   -285.17654992462064

	Size of irrep 0 of <AB|CD> integrals:      0.199 (MW) /      1.591 (MB)
	Size of irrep 1 of <AB|CD> integrals:      0.161 (MW) /      1.286 (MB)
	Size of irrep 2 of <AB|CD> integrals:      0.161 (MW) /      1.286 (MB)
	Size of irrep 3 of <AB|CD> integrals:      0.155 (MW) /      1.242 (MB)
	Size of irrep 4 of <AB|CD> integrals:      0.115 (MW) /      0.919 (MB)
	Size of irrep 5 of <AB|CD> integrals:      0.173 (MW) /      1.384 (MB)
	Size of irrep 6 of <AB|CD> integrals:      0.173 (MW) /      1.384 (MB)
	Size of irrep 7 of <AB|CD> integrals:      0.182 (MW) /      1.459 (MB)
	Total:                                     1.319 (MW) /     10.553 (MB)

	Size of irrep 0 of <ab|cd> integrals:      0.217 (MW) /      1.737 (MB)
	Size of irrep 1 of <ab|cd> integrals:      0.172 (MW) /      1.378 (MB)
	Size of irrep 2 of <ab|cd> integrals:      0.172 (MW) /      1.378 (MB)
	Size of irrep 3 of <ab|cd> integrals:      0.172 (MW) /      1.378 (MB)
	Size of irrep 4 of <ab|cd> integrals:      0.127 (MW) /      1.020 (MB)
	Size of irrep 5 of <ab|cd> integrals:      0.198 (MW) /      1.584 (MB)
	Size of irrep 6 of <ab|cd> integrals:      0.198 (MW) /      1.584 (MB)
	Size of irrep 7 of <ab|cd> integrals:      0.198 (MW) /      1.584 (MB)
	Total:                                     1.455 (MW) /     11.643 (MB)

	Size of irrep 0 of <Ab|Cd> integrals:      0.986 (MW) /      7.888 (MB)
	Size of irrep 1 of <Ab|Cd> integrals:      0.666 (MW) /      5.327 (MB)
	Size of irrep 2 of <Ab|Cd> integrals:      0.666 (MW) /      5.327 (MB)
	Size of irrep 3 of <Ab|Cd> integrals:      0.653 (MW) /      5.223 (MB)
	Size of irrep 4 of <Ab|Cd> integrals:      0.484 (MW) /      3.875 (MB)
	Size of irrep 5 of <Ab|Cd> integrals:      0.741 (MW) /      5.931 (MB)
	Size of irrep 6 of <Ab|Cd> integrals:      0.741 (MW) /      5.931 (MB)
	Size of irrep 7 of <Ab|Cd> integrals:      0.760 (MW) /      6.083 (MB)
	Total:                                     5.698 (MW) /     45.585 (MB)

	Size of irrep 0 of <IA|BC> integrals:      0.039 (MW) /      0.311 (MB)
	Size of irrep 1 of <IA|BC> integrals:      0.018 (MW) /      0.148 (MB)
	Size of irrep 2 of <IA|BC> integrals:      0.018 (MW) /      0.148 (MB)
	Size of irrep 3 of <IA|BC> integrals:      0.023 (MW) /      0.183 (MB)
	Size of irrep 4 of <IA|BC> integrals:      0.014 (MW) /      0.114 (MB)
	Size of irrep 5 of <IA|BC> integrals:      0.032 (MW) /      0.260 (MB)
	Size of irrep 6 of <IA|BC> integrals:      0.032 (MW) /      0.260 (MB)
	Size of irrep 7 of <IA|BC> integrals:      0.025 (MW) /      0.198 (MB)
	Total:                                     0.203 (MW) /      1.621 (MB)

	Size of irrep 0 of <ia|bc> integrals:      0.020 (MW) /      0.162 (MB)
	Size of irrep 1 of <ia|bc> integrals:      0.007 (MW) /      0.060 (MB)
	Size of irrep 2 of <ia|bc> integrals:      0.007 (MW) /      0.060 (MB)
	Size of irrep 3 of <ia|bc> integrals:      0.007 (MW) /      0.060 (MB)
	Size of irrep 4 of <ia|bc> integrals:      0.002 (MW) /      0.017 (MB)
	Size of irrep 5 of <ia|bc> integrals:      0.010 (MW) /      0.078 (MB)
	Size of irrep 6 of <ia|bc> integrals:      0.010 (MW) /      0.078 (MB)
	Size of irrep 7 of <ia|bc> integrals:      0.010 (MW) /      0.078 (MB)
	Total:                                     0.074 (MW) /      0.594 (MB)

	Size of irrep 0 of <Ia|Bc> integrals:      0.042 (MW) /      0.334 (MB)
	Size of irrep 1 of <Ia|Bc> integrals:      0.019 (MW) /      0.150 (MB)
	Size of irrep 2 of <Ia|Bc> integrals:      0.019 (MW) /      0.150 (MB)
	Size of irrep 3 of <Ia|Bc> integrals:      0.025 (MW) /      0.200 (MB)
	Size of irrep 4 of <Ia|Bc> integrals:      0.015 (MW) /      0.117 (MB)
	Size of irrep 5 of <Ia|Bc> integrals:      0.034 (MW) /      0.276 (MB)
	Size of irrep 6 of <Ia|Bc> integrals:      0.034 (MW) /      0.276 (MB)
	Size of irrep 7 of <Ia|Bc> integrals:      0.025 (MW) /      0.202 (MB)
	Total:                                     0.213 (MW) /      1.705 (MB)

	Size of irrep 0 of <iA|bC> integrals:      0.020 (MW) /      0.159 (MB)
	Size of irrep 1 of <iA|bC> integrals:      0.007 (MW) /      0.059 (MB)
	Size of irrep 2 of <iA|bC> integrals:      0.007 (MW) /      0.059 (MB)
	Size of irrep 3 of <iA|bC> integrals:      0.007 (MW) /      0.058 (MB)
	Size of irrep 4 of <iA|bC> integrals:      0.002 (MW) /      0.017 (MB)
	Size of irrep 5 of <iA|bC> integrals:      0.009 (MW) /      0.069 (MB)
	Size of irrep 6 of <iA|bC> integrals:      0.009 (MW) /      0.069 (MB)
	Size of irrep 7 of <iA|bC> integrals:      0.010 (MW) /      0.077 (MB)
	Total:                                     0.071 (MW) /      0.566 (MB)

	Size of irrep 0 of tIjAb amplitudes:       0.001 (MW) /      0.008 (MB)
	Size of irrep 1 of tIjAb amplitudes:       0.000 (MW) /      0.000 (MB)
	Size of irrep 2 of tIjAb amplitudes:       0.000 (MW) /      0.000 (MB)
	Size of irrep 3 of tIjAb amplitudes:       0.000 (MW) /      0.000 (MB)
	Size of irrep 4 of tIjAb amplitudes:       0.000 (MW) /      0.000 (MB)
	Size of irrep 5 of tIjAb amplitudes:       0.001 (MW) /      0.007 (MB)
	Size of irrep 6 of tIjAb amplitudes:       0.001 (MW) /      0.007 (MB)
	Size of irrep 7 of tIjAb amplitudes:       0.000 (MW) /      0.000 (MB)
	Total:                                     0.003 (MW) /      0.022 (MB)

	Nuclear Rep. energy          =      0.00000000000000
	SCF energy                   =   -288.85846443419712
	One-electron energy          =     -5.67832399181338
	Two-electron (AA) energy     =      0.86373163792184
	Two-electron (BB) energy     =      0.00000000000000
	Two-electron (AB) energy     =      1.13267784431543
	Two-electron energy          =      1.99640948223727
	Reference energy             =   -288.85846443419678

*** tstop() called on cqc05 at Thu Aug 20 22:40:51 2020
Module time:
	user time   =       0.60 seconds =       0.01 minutes
	system time =       0.32 seconds =       0.01 minutes
	total time  =          1 seconds =       0.02 minutes
Total time:
	user time   =       2.46 seconds =       0.04 minutes
	system time =       0.38 seconds =       0.01 minutes
	total time  =          2 seconds =       0.03 minutes

*** tstart() called on cqc05
*** at Thu Aug 20 22:40:51 2020

            **************************
            *                        *
            *        CCENERGY        *
            *                        *
            **************************

    Nuclear Rep. energy (wfn)     =    0.000000000000000
    SCF energy          (wfn)     = -288.858464434197117
    Reference energy    (file100) = -288.858464434196776

    Input parameters:
    -----------------
    Wave function   =     CCSD
    Reference wfn   =     UHF
    Brueckner       =     No
    Memory (Mbytes) =     250000.0
    Maxiter         =     50
    R_Convergence   =     1.0e-07
    E_Convergence   =     1.0e-06
    Restart         =     Yes
    DIIS            =     Yes
    AO Basis        =     NONE
    ABCD            =     NEW
    Cache Level     =     2
    Cache Type      =     LRU
    Print Level     =     1
    Num. of threads =     4
    # Amps to Print =     10
    Print MP2 Amps? =     No
    Analyze T2 Amps =     No
    Print Pair Ener =     No
    Local CC        =     No
    SCS-MP2         =     False
    SCSN-MP2        =     False
    SCS-CCSD        =     False

MP2 correlation energy -0.0601774284675370
                Solving CC Amplitude Equations
                ------------------------------
  Iter             Energy              RMS        T1Diag      D1Diag    New D1Diag    D2Diag
  ----     ---------------------    ---------   ----------  ----------  ----------   --------
     0        -0.060177428467537    0.000e+00    0.000000    0.000000    0.000000    0.000000
     1        -0.070986300933146    5.334e-02    0.009328    0.000000    0.000000    0.000000
     2        -0.076220936987267    2.194e-02    0.015918    0.000000    0.000000    0.000000
     3        -0.076591441393636    5.577e-03    0.017730    0.000000    0.000000    0.000000
     4        -0.076653354734614    1.222e-03    0.017934    0.000000    0.000000    0.000000
     5        -0.076643248757836    2.977e-04    0.017932    0.000000    0.000000    0.000000
     6        -0.076646123748159    8.457e-05    0.017935    0.000000    0.000000    0.000000
     7        -0.076646312653193    1.762e-05    0.017938    0.000000    0.000000    0.000000
     8        -0.076646098222733    3.989e-06    0.017938    0.000000    0.000000    0.000000
     9        -0.076646127280241    1.022e-06    0.017939    0.000000    0.000000    0.000000
    10        -0.076646128225473    3.185e-07    0.017939    0.000000    0.000000    0.000000
    11        -0.076646126730180    9.091e-08    0.017939    0.000000    0.000000    0.000000
    11        -0.076646126730180    9.091e-08    0.017939    0.000000    0.000000    0.000000

    Iterations converged.


    CCSD corr. energy   =   -0.076646126730180
    PPL corr. energy    =    0.029788120610168
    OS PPL corr. energy =    0.026732671641284
    SS PPL corr. energy =    0.003055448968884
    Largest TIA Amplitudes:
              0   5        -0.0239479242
              0   2         0.0132779655
              0   7        -0.0108355990
              0   0         0.0063630393
              1  51         0.0061532767
              2  61         0.0061532664
              0   3        -0.0051776607
              1  52         0.0040269741
              2  62         0.0040269736
              2  64         0.0035147499

    Largest Tia Amplitudes:
              0   3         0.0081754079
              0   0        -0.0081237769
              0   4        -0.0041553217
              0   1         0.0029287537
              0   6         0.0027855890
              0  11         0.0011793519
              0   8         0.0006245009
              0  19        -0.0005449037
              0  14        -0.0004632837
              0  12        -0.0001745962

    Largest TIJAB Amplitudes:
      2   1  39   4        -0.0487705236
      2   1  39   1        -0.0290821663
      2   1  38   4        -0.0290821663
      2   1  61  51        -0.0255299899
      2   1  30  21         0.0238634619
      2   1  40   4        -0.0216320438
      2   1  39   6        -0.0216320438
      2   0  70  21        -0.0213845863
      1   0  70  30        -0.0213845862
      2   1  38   1        -0.0202219269

    Largest TIjAb Amplitudes:
      0   0  70  72        -0.1039730090
      0   0  70  73         0.0693366233
      2   0  21  72         0.0604257879
      1   0  30  72         0.0604257876
      0   0  70  74        -0.0573996386
      0   0  71  72        -0.0523001164
      2   0   4  62         0.0510058319
      2   0  39  51        -0.0510058267
      1   0  39  62        -0.0510058266
      1   0   4  51        -0.0510058215

    SCF energy       (wfn)                    = -288.858464434197117
    Reference energy (file100)                = -288.858464434196776

    Opposite-spin MP2 correlation energy      =   -0.049923127571157
    Same-spin MP2 correlation energy          =   -0.010254300896380
    MP2 correlation energy                    =   -0.060177428467537
      * MP2 total energy                      = -288.918641862664288

    Opposite-spin CCSD correlation energy     =   -0.064843272610328
    Same-spin CCSD correlation energy         =   -0.011802854115384
    CCSD correlation energy                   =   -0.076646126730180
      * CCSD total energy                     = -288.935110560926944


*** tstop() called on cqc05 at Thu Aug 20 22:40:53 2020
Module time:
	user time   =       0.36 seconds =       0.01 minutes
	system time =       0.36 seconds =       0.01 minutes
	total time  =          2 seconds =       0.03 minutes
Total time:
	user time   =       2.82 seconds =       0.05 minutes
	system time =       0.74 seconds =       0.01 minutes
	total time  =          4 seconds =       0.07 minutes

*** Psi4 exiting successfully. Buy a developer a beer!
