
    -----------------------------------------------------------------------
          Psi4: An Open-Source Ab Initio Electronic Structure Package
                               Psi4 1.2a1.dev938 

                         Git: Rev {HEAD} fc51d9a dirty


    R. M. Parrish, L. A. Burns, D. G. A. Smith, A. C. Simmonett,
    A. E. DePrince III, E. G. Hohenstein, U. Bozkaya, A. Yu. Sokolov,
    R. Di Remigio, R. M. Richard, J. F. Gonthier, A. M. James,
    H. R. McAlexander, A. Kumar, M. Saitow, X. Wang, B. P. Pritchard,
    P. Verma, H. F. Schaefer III, K. Patkowski, R. A. King, E. F. Valeev,
    F. A. Evangelista, J. M. Turney, T. D. Crawford, and C. D. Sherrill,
    J. Chem. Theory Comput. 13(7) pp 3185--3197 (2017).
    (doi: 10.1021/acs.jctc.7b00174)

    -----------------------------------------------------------------------


    Psi4 started on: Wednesday, 26 August 2020 09:15AM

    Process ID: 498646
    PSIDATADIR: /home/irmler/Programs/psi4/beforeGrueneis4/stage/usr/local/psi4/share/psi4
    Memory:     500.0 MiB
    Threads:    4
    
  ==> Input File <==

--------------------------------------------------------------------------
# Any line starting with the # character is a comment line
memory 250000 mb
molecule molecule{
0 3
Si          0.0000000000        0.0000000000        0.0000000000
}

set {
  reference uhf
  basis aug-cc-pv(6+d)z
  scf_type OUT_OF_CORE
  freeze_core true
}

energy('ccsd')
--------------------------------------------------------------------------

  Memory set to 232.831 GiB by Python driver.

*** tstart() called on cqc05
*** at Wed Aug 26 09:15:33 2020

   => Loading Basis Set <=

    Name: AUG-CC-PV(6+D)Z
    Role: ORBITAL
    Keyword: BASIS
    atoms 1 entry SI         line   886 file /home/irmler/Programs/psi4/beforeGrueneis4/stage/usr/local/psi4/share/psi4/basis/aug-cc-pv_6pd_z.gbs 


         ---------------------------------------------------------
                                   SCF
            by Justin Turney, Rob Parrish, Andy Simmonett
                             and Daniel Smith
                              UHF Reference
                        4 Threads, 238418 MiB Core
         ---------------------------------------------------------

  ==> Geometry <==

    Molecular point group: d2h
    Geometry (in Angstrom), charge = 0, multiplicity = 3:

       Center              X                  Y                   Z               Mass       
    ------------   -----------------  -----------------  -----------------  -----------------
          SI          0.000000000000     0.000000000000     0.000000000000    27.976926532460

  Running in d2h symmetry.

  Rotational constants: A = ************  B = ************  C = ************ [cm^-1]
  Rotational constants: A = ************  B = ************  C = ************ [MHz]
  Nuclear repulsion =    0.000000000000000

  Charge       = 0
  Multiplicity = 3
  Electrons    = 14
  Nalpha       = 8
  Nbeta        = 6

  ==> Algorithm <==

  SCF Algorithm Type is OUT_OF_CORE.
  DIIS enabled.
  MOM disabled.
  Fractional occupation disabled.
  Guess Type is GWH.
  Energy threshold   = 1.00e-08
  Density threshold  = 1.00e-08
  Integral threshold = 0.00e+00

  ==> Primary Basis <==

  Basis Set: AUG-CC-PV(6+D)Z
    Blend: AUG-CC-PV(6+D)Z
    Number of shells: 38
    Number of basis function: 198
    Number of Cartesian functions: 304
    Spherical Harmonics?: true
    Max angular momentum: 6

  ==> Pre-Iterations <==

   -------------------------------------------------------
    Irrep   Nso     Nmo     Nalpha   Nbeta   Ndocc  Nsocc
   -------------------------------------------------------
     Ag        43      43       0       0       0       0
     B1g       21      21       0       0       0       0
     B2g       21      21       0       0       0       0
     B3g       21      21       0       0       0       0
     Au        11      11       0       0       0       0
     B1u       27      27       0       0       0       0
     B2u       27      27       0       0       0       0
     B3u       27      27       0       0       0       0
   -------------------------------------------------------
    Total     198     198       8       6       6       2
   -------------------------------------------------------

  ==> Integral Setup <==

  ==> DiskJK: Disk-Based J/K Matrices <==

    J tasked:                  Yes
    K tasked:                  Yes
    wK tasked:                  No
    Memory (MB):            178813
    Schwarz Cutoff:          1E-12

  Minimum eigenvalue in the overlap matrix is 2.3991154682E-05.
  Using Symmetric Orthogonalization.

  SCF Guess: Generalized Wolfsberg-Helmholtz.

  ==> Iterations <==

                        Total Energy        Delta E     RMS |[F,P]|

    Occupation by irrep:
             Ag   B1g   B2g   B3g    Au   B1u   B2u   B3u 
    DOCC [     3,    0,    0,    0,    0,    1,    1,    1 ]
    SOCC [     0,    0,    0,    0,    0,    1,    1,    0 ]

   @UHF iter   1:  -277.65246913598713   -2.77652e+02   1.25607e-01 
   @UHF iter   2:  -286.26616056573170   -8.61369e+00   4.46888e-02 DIIS
   @UHF iter   3:  -288.81320082784481   -2.54704e+00   7.16913e-03 DIIS
   @UHF iter   4:  -288.85416829455437   -4.09675e-02   1.14071e-03 DIIS
   @UHF iter   5:  -288.85863674639074   -4.46845e-03   3.24090e-04 DIIS
   @UHF iter   6:  -288.85886599595989   -2.29250e-04   9.60038e-05 DIIS
   @UHF iter   7:  -288.85891101998800   -4.50240e-05   2.30280e-05 DIIS
   @UHF iter   8:  -288.85891343117891   -2.41119e-06   3.68339e-06 DIIS
   @UHF iter   9:  -288.85891348806467   -5.68858e-08   9.64765e-07 DIIS
   @UHF iter  10:  -288.85891349246930   -4.40463e-09   1.82053e-07 DIIS
   @UHF iter  11:  -288.85891349262312   -1.53818e-10   1.53155e-08 DIIS
   @UHF iter  12:  -288.85891349262425   -1.13687e-12   2.28659e-09 DIIS

  ==> Post-Iterations <==

   @Spin Contamination Metric:   1.569732651E-02
   @S^2 Expected:                2.000000000E+00
   @S^2 Observed:                2.015697327E+00
   @S   Expected:                1.000000000E+00
   @S   Observed:                1.000000000E+00

    Orbital Energies (a.u.)
    -----------------------

    Alpha Occupied:                                                       

       1Ag   -68.816244     2Ag    -6.160602     1B1u   -4.268970  
       1B2u   -4.268970     1B3u   -4.257978     3Ag    -0.619853  
       2B1u   -0.301425     2B2u   -0.301425  

    Alpha Virtual:                                                        

       2B3u   -0.010143     3B1u    0.041974     3B2u    0.041974  
       4Ag     0.044475     3B3u    0.047727     1B1g    0.105550  
       1B2g    0.105550     5Ag     0.105595     1B3g    0.106128  
       6Ag     0.106128     4B1u    0.184976     4B2u    0.184976  
       4B3u    0.198753     7Ag     0.250879     5B3u    0.264449  
       5B1u    0.265140     5B2u    0.265140     1Au     0.267484  
       6B3u    0.267484     6B2u    0.271683     6B1u    0.271683  
       2B3g    0.280397     8Ag     0.280397     2B2g    0.291837  
       2B1g    0.291837     9Ag     0.296753    10Ag     0.555558  
       3B2g    0.556341     3B1g    0.556341     3B3g    0.558718  
      11Ag     0.558718     4B2g    0.562723     4B1g    0.562723  
      12Ag     0.568313     4B3g    0.568313     7B1u    0.597376  
       7B2u    0.597376     7B3u    0.606920     5B3g    0.695907  
      13Ag     0.695907     5B2g    0.699620     5B1g    0.699620  
      14Ag     0.701407     8B3u    0.709022     8B1u    0.710039  
       8B2u    0.710039     2Au     0.713324     9B3u    0.713324  
       9B2u    0.719066     9B1u    0.719066    15Ag     0.900430  
      10B3u    1.311028    10B1u    1.311899    10B2u    1.311899  
      11B3u    1.314524     3Au     1.314524    11B2u    1.318939  
      11B1u    1.318939     4Au     1.325200    12B3u    1.325200  
      12B1u    1.333388    12B2u    1.333388    16Ag     1.385067  
       6B2g    1.386470     6B1g    1.386470    17Ag     1.390664  
       6B3g    1.390664     7B1g    1.397596     7B2g    1.397596  
      18Ag     1.407173     7B3g    1.407173    13B3u    1.561370  
      13B1u    1.563319    13B2u    1.563319     5Au     1.569037  
      14B3u    1.569037    14B2u    1.578084    14B1u    1.578084  
      19Ag     1.584047     8B2g    1.587913     8B1g    1.587913  
       8B3g    1.599897    20Ag     1.599897    15B3u    1.691437  
      15B1u    1.697031    15B2u    1.697031    21Ag     2.773803  
       9B1g    2.774729     9B2g    2.774729    22Ag     2.777511  
       9B3g    2.777511    10B2g    2.782168    10B1g    2.782168  
      10B3g    2.788734    23Ag     2.788734    11B2g    2.797254  
      11B1g    2.797254    24Ag     2.806287    11B3g    2.807793  
      25Ag     2.807793    26Ag     2.893953    12B1g    2.895825  
      12B2g    2.895825    27Ag     2.901445    12B3g    2.901445  
      13B1g    2.910814    13B2g    2.910814    28Ag     2.923936  
      13B3g    2.923936    16B3u    2.990564    16B2u    2.991885  
      16B1u    2.991885    17B3u    2.995862     6Au     2.995862  
      17B1u    3.002536    17B2u    3.002536    18B3u    3.011975  
       7Au     3.011975    18B2u    3.024273    18B1u    3.024273  
      19B3u    3.301635    19B2u    3.304435    19B1u    3.304435  
       8Au     3.312911    20B3u    3.312911    20B2u    3.327270  
      20B1u    3.327270    29Ag     3.387750    14B1g    3.393077  
      14B2g    3.393077    30Ag     3.410779    14B3g    3.410779  
      21B3u    4.788451    21B1u    4.800354    21B2u    4.800354  
      31Ag     5.754472    15B1g    5.756488    15B2g    5.756488  
      32Ag     5.762557    15B3g    5.762557    16B1g    5.772732  
      16B2g    5.772732    33Ag     5.787104    16B3g    5.787104  
      34Ag     6.011960    17B1g    6.013091    17B2g    6.013091  
      35Ag     6.016497    17B3g    6.016497    18B1g    6.022208  
      18B2g    6.022208    18B3g    6.030276    36Ag     6.030276  
      19B2g    6.040777    19B1g    6.040777    19B3g    6.053811  
      37Ag     6.053811    22B3u    6.325957    22B2u    6.327433  
      22B1u    6.327433    23B3u    6.331874     9Au     6.331874  
      23B1u    6.339325    23B2u    6.339325    24B3u    6.349858  
      10Au     6.349858    24B1u    6.363573    24B2u    6.363573  
      25B3u    6.924670    25B2u    6.927573    25B1u    6.927573  
      26B3u    6.936372    11Au     6.936372    26B2u    6.951342  
      26B1u    6.951342    38Ag     6.963385    20B1g    6.968406  
      20B2g    6.968406    39Ag     6.983567    20B3g    6.983567  
      40Ag     8.763598    41Ag    18.875665    21B1g   18.877369  
      21B2g   18.877369    42Ag    18.882651    21B3g   18.882651  
      27B3u   19.470320    27B2u   19.473533    27B1u   19.473533  
      43Ag   177.941982  

    Beta Occupied:                                                        

       1Ag   -68.805945     2Ag    -6.149643     1B3u   -4.252991  
       1B2u   -4.239805     1B1u   -4.239805     3Ag    -0.462732  

    Beta Virtual:                                                         

       2B3u    0.004731     2B2u    0.027986     2B1u    0.027986  
       4Ag     0.050188     3B3u    0.052034     3B2u    0.074038  
       3B1u    0.074038     5Ag     0.109569     1B2g    0.111096  
       1B1g    0.111096     6Ag     0.116914     1B3g    0.116914  
       4B3u    0.204460     4B2u    0.226881     4B1u    0.226881  
       5B3u    0.267419     5B1u    0.268558     5B2u    0.268559  
       7Ag     0.269353     6B3u    0.272011     1Au     0.272011  
       6B2u    0.278257     6B1u    0.278257     8Ag     0.320830  
       2B1g    0.325732     2B2g    0.325733     9Ag     0.346198  
       2B3g    0.346198    10Ag     0.559337     3B2g    0.560318  
       3B1g    0.560318    11Ag     0.563282     3B3g    0.563282  
       4B2g    0.568307     4B1g    0.568307    12Ag     0.575683  
       4B3g    0.575683     7B3u    0.614633     7B2u    0.645845  
       7B1u    0.645845     8B3u    0.723074     8B2u    0.726111  
       8B1u    0.726111    13Ag     0.726599     5B1g    0.734540  
       5B2g    0.734540     9B3u    0.735241     2Au     0.735241  
       9B2u    0.751787     9B1u    0.751787    14Ag     0.763167  
       5B3g    0.763167    15Ag     0.926628    10B3u    1.317021  
      10B1u    1.318138    10B2u    1.318138    11B3u    1.321509  
       3Au     1.321509    11B2u    1.327201    11B1u    1.327201  
       4Au     1.335335    12B3u    1.335335    12B1u    1.346099  
      12B2u    1.346099    16Ag     1.396019     6B1g    1.398274  
       6B2g    1.398274    17Ag     1.405029     6B3g    1.405029  
       7B2g    1.416284     7B1g    1.416284    18Ag     1.432244  
       7B3g    1.432244    13B3u    1.579975    13B2u    1.584918  
      13B1u    1.584918    19Ag     1.597377    14B3u    1.599308  
       5Au     1.599308     8B1g    1.605111     8B2g    1.605111  
      14B2u    1.623689    14B1u    1.623689    20Ag     1.632266  
       8B3g    1.632266    15B3u    1.699632    15B2u    1.737766  
      15B1u    1.737766    21Ag     2.781049     9B1g    2.782238  
       9B2g    2.782238    22Ag     2.785808     9B3g    2.785808  
      10B2g    2.791774    10B1g    2.791774    10B3g    2.800170  
      23Ag     2.800170    11B2g    2.811054    11B1g    2.811054  
      11B3g    2.824517    24Ag     2.824517    25Ag     2.825882  
      26Ag     2.907273    12B1g    2.910280    12B2g    2.910280  
      27Ag     2.919332    12B3g    2.919332    13B2g    2.934450  
      13B1g    2.934450    28Ag     2.955719    13B3g    2.955719  
      16B3u    3.001285    16B2u    3.003112    16B1u    3.003112  
      17B3u    3.008623     6Au     3.008623    17B1u    3.017901  
      17B2u    3.017901    18B3u    3.031097     7Au     3.031097  
      18B2u    3.048445    18B1u    3.048445    19B3u    3.314239  
      19B2u    3.319029    19B1u    3.319029    20B3u    3.333566  
       8Au     3.333566    20B2u    3.358481    20B1u    3.358481  
      29Ag     3.396495    14B1g    3.403716    14B2g    3.403716  
      30Ag     3.429970    14B3g    3.429970    21B3u    4.793516  
      21B2u    4.825437    21B1u    4.825437    31Ag     5.762860  
      15B1g    5.765676    15B2g    5.765676    32Ag     5.774148  
      15B3g    5.774148    16B2g    5.788344    16B1g    5.788344  
      33Ag     5.808377    16B3g    5.808377    34Ag     6.020766  
      17B1g    6.022200    17B2g    6.022200    35Ag     6.026515  
      17B3g    6.026515    18B2g    6.033757    18B1g    6.033757  
      18B3g    6.044006    36Ag     6.044006    19B2g    6.057377  
      19B1g    6.057377    19B3g    6.074040    37Ag     6.074040  
      22B3u    6.335032    22B2u    6.337000    22B1u    6.337000  
      23B3u    6.342926     9Au     6.342926    23B1u    6.352874  
      23B2u    6.352874    24B3u    6.366953    10Au     6.366953  
      24B1u    6.385322    24B2u    6.385322    25B3u    6.929159  
      25B2u    6.932813    25B1u    6.932813    26B3u    6.943894  
      11Au     6.943894    26B1u    6.962816    26B2u    6.962816  
      38Ag     6.969191    20B1g    6.976339    20B2g    6.976339  
      39Ag     6.997933    20B3g    6.997933    40Ag     8.774800  
      41Ag    18.882394    21B1g   18.886310    21B2g   18.886310  
      42Ag    18.898283    21B3g   18.898283    27B3u   19.474104  
      27B2u   19.490945    27B1u   19.490945    43Ag   177.945753  

    Final Occupation by Irrep:
             Ag   B1g   B2g   B3g    Au   B1u   B2u   B3u 
    DOCC [     3,    0,    0,    0,    0,    1,    1,    1 ]
    SOCC [     0,    0,    0,    0,    0,    1,    1,    0 ]

  Energy converged.

  @UHF Final Energy:  -288.85891349262425

   => Energetics <=

    Nuclear Repulsion Energy =              0.0000000000000000
    One-Electron Energy =                -400.5714385035830674
    Two-Electron Energy =                 111.7125250109588137
    PCM Polarization Energy =               0.0000000000000000
    Total Energy =                       -288.8589134926242536

    Alert: EFP and PCM quantities not currently incorporated into SCF psivars.
  UHF NO Occupations:
  HONO-2 :    3 Ag 1.9921314
  HONO-1 :    2B2u 1.0000000
  HONO-0 :    2B1u 1.0000000
  LUNO+0 :    4 Ag 0.0078686
  LUNO+1 :    3B1u 0.0000050
  LUNO+2 :    3B2u 0.0000050
  LUNO+3 :    2B3u 0.0000005



Properties will be evaluated at   0.000000,   0.000000,   0.000000 Bohr

Properties computed using the SCF density matrix

  Nuclear Dipole Moment: (a.u.)
     X:     0.0000      Y:     0.0000      Z:     0.0000

  Electronic Dipole Moment: (a.u.)
     X:     0.0000      Y:     0.0000      Z:     0.0000

  Dipole Moment: (a.u.)
     X:     0.0000      Y:     0.0000      Z:     0.0000     Total:     0.0000

  Dipole Moment: (Debye)
     X:     0.0000      Y:     0.0000      Z:     0.0000     Total:     0.0000


*** tstop() called on cqc05 at Wed Aug 26 09:16:20 2020
Module time:
	user time   =      46.48 seconds =       0.77 minutes
	system time =       0.93 seconds =       0.02 minutes
	total time  =         47 seconds =       0.78 minutes
Total time:
	user time   =      46.48 seconds =       0.77 minutes
	system time =       0.93 seconds =       0.02 minutes
	total time  =         47 seconds =       0.78 minutes

*** tstart() called on cqc05
*** at Wed Aug 26 09:16:20 2020


	Wfn Parameters:
	--------------------
	Wavefunction         = CCSD
	Number of irreps     = 8
	Number of MOs        = 198
	Number of active MOs = 193
	AO-Basis             = NONE
	Semicanonical        = false
	Reference            = UHF
	Print Level          = 1

	IRREP	# MOs	# FZDC	# DOCC	# SOCC	# VIRT	# FZVR
	-----	-----	------	------	------	------	------
	 Ag	   43	    2	    1	    0	    40	    0
	 B1g	   21	    0	    0	    0	    21	    0
	 B2g	   21	    0	    0	    0	    21	    0
	 B3g	   21	    0	    0	    0	    21	    0
	 Au	   11	    0	    0	    0	    11	    0
	 B1u	   27	    1	    0	    1	    25	    0
	 B2u	   27	    1	    0	    1	    25	    0
	 B3u	   27	    1	    0	    0	    26	    0
	Transforming integrals...
	IWL integrals will be deleted.
	(OO|OO)...
	Presorting SO-basis two-electron integrals.
	Sorting File: SO Ints (nn|nn) nbuckets = 1
	Transforming the one-electron integrals and constructing Fock matrices
	Starting AA/AB first half-transformation.
	Sorting AA/AB half-transformed integrals.
	Starting BB first half-transformation.
	Sorting BB half-transformed integrals.
	First half integral transformation complete.
	Starting AA second half-transformation.
	Starting AB second half-transformation.
	Starting BB second half-transformation.
	Two-electron integral transformation complete.
	(OO|OV)...
	Starting AA second half-transformation.
	Starting AB second half-transformation.
	Starting BB second half-transformation.
	Two-electron integral transformation complete.
	(OO|VV)...
	Starting AA second half-transformation.
	Starting AB second half-transformation.
	Starting BB second half-transformation.
	Two-electron integral transformation complete.
	(OV|OO)...
	Starting AA/AB first half-transformation.
	Sorting AA/AB half-transformed integrals.
	Starting BB first half-transformation.
	Sorting BB half-transformed integrals.
	First half integral transformation complete.
	Starting AA second half-transformation.
	Starting AB second half-transformation.
	Starting BB second half-transformation.
	Two-electron integral transformation complete.
	(OV|OV)...
	Starting AA second half-transformation.
	Starting AB second half-transformation.
	Starting BB second half-transformation.
	Two-electron integral transformation complete.
	(OV|VV)...
	Starting AA second half-transformation.
	Starting AB second half-transformation.
	Starting BB second half-transformation.
	Two-electron integral transformation complete.
	(VV|OO)...
	Starting AA/AB first half-transformation.
	Sorting AA/AB half-transformed integrals.
	Starting BB first half-transformation.
	Sorting BB half-transformed integrals.
	First half integral transformation complete.
	Starting AA second half-transformation.
	Starting AB second half-transformation.
	Starting BB second half-transformation.
	Two-electron integral transformation complete.
	(VV|OV)...
	Starting AA second half-transformation.
	Starting AB second half-transformation.
	Starting BB second half-transformation.
	Two-electron integral transformation complete.
	(VV|VV)...
	Starting AA second half-transformation.
	Starting AB second half-transformation.
	Starting BB second half-transformation.
	Two-electron integral transformation complete.
	Frozen core energy     =   -285.17678416066747

	Size of irrep 0 of <AB|CD> integrals:      5.712 (MW) /     45.697 (MB)
	Size of irrep 1 of <AB|CD> integrals:      4.866 (MW) /     38.931 (MB)
	Size of irrep 2 of <AB|CD> integrals:      4.866 (MW) /     38.931 (MB)
	Size of irrep 3 of <AB|CD> integrals:      4.805 (MW) /     38.439 (MB)
	Size of irrep 4 of <AB|CD> integrals:      4.145 (MW) /     33.162 (MB)
	Size of irrep 5 of <AB|CD> integrals:      5.299 (MW) /     42.394 (MB)
	Size of irrep 6 of <AB|CD> integrals:      5.299 (MW) /     42.394 (MB)
	Size of irrep 7 of <AB|CD> integrals:      5.387 (MW) /     43.096 (MB)
	Total:                                    40.381 (MW) /    323.045 (MB)

	Size of irrep 0 of <ab|cd> integrals:      5.954 (MW) /     47.629 (MB)
	Size of irrep 1 of <ab|cd> integrals:      5.031 (MW) /     40.248 (MB)
	Size of irrep 2 of <ab|cd> integrals:      5.031 (MW) /     40.248 (MB)
	Size of irrep 3 of <ab|cd> integrals:      5.031 (MW) /     40.248 (MB)
	Size of irrep 4 of <ab|cd> integrals:      4.318 (MW) /     34.545 (MB)
	Size of irrep 5 of <ab|cd> integrals:      5.584 (MW) /     44.670 (MB)
	Size of irrep 6 of <ab|cd> integrals:      5.584 (MW) /     44.670 (MB)
	Size of irrep 7 of <ab|cd> integrals:      5.584 (MW) /     44.670 (MB)
	Total:                                    42.116 (MW) /    336.929 (MB)

	Size of irrep 0 of <Ab|Cd> integrals:     25.200 (MW) /    201.603 (MB)
	Size of irrep 1 of <Ab|Cd> integrals:     19.794 (MW) /    158.349 (MB)
	Size of irrep 2 of <Ab|Cd> integrals:     19.794 (MW) /    158.349 (MB)
	Size of irrep 3 of <Ab|Cd> integrals:     19.660 (MW) /    157.283 (MB)
	Size of irrep 4 of <Ab|Cd> integrals:     16.925 (MW) /    135.400 (MB)
	Size of irrep 5 of <Ab|Cd> integrals:     21.762 (MW) /    174.098 (MB)
	Size of irrep 6 of <Ab|Cd> integrals:     21.762 (MW) /    174.098 (MB)
	Size of irrep 7 of <Ab|Cd> integrals:     21.940 (MW) /    175.519 (MB)
	Total:                                   166.837 (MW) /   1334.698 (MB)

	Size of irrep 0 of <IA|BC> integrals:      0.447 (MW) /      3.578 (MB)
	Size of irrep 1 of <IA|BC> integrals:      0.256 (MW) /      2.047 (MB)
	Size of irrep 2 of <IA|BC> integrals:      0.256 (MW) /      2.047 (MB)
	Size of irrep 3 of <IA|BC> integrals:      0.311 (MW) /      2.490 (MB)
	Size of irrep 4 of <IA|BC> integrals:      0.216 (MW) /      1.727 (MB)
	Size of irrep 5 of <IA|BC> integrals:      0.396 (MW) /      3.168 (MB)
	Size of irrep 6 of <IA|BC> integrals:      0.396 (MW) /      3.168 (MB)
	Size of irrep 7 of <IA|BC> integrals:      0.316 (MW) /      2.525 (MB)
	Total:                                     2.594 (MW) /     20.750 (MB)

	Size of irrep 0 of <ia|bc> integrals:      0.203 (MW) /      1.623 (MB)
	Size of irrep 1 of <ia|bc> integrals:      0.094 (MW) /      0.754 (MB)
	Size of irrep 2 of <ia|bc> integrals:      0.094 (MW) /      0.754 (MB)
	Size of irrep 3 of <ia|bc> integrals:      0.094 (MW) /      0.754 (MB)
	Size of irrep 4 of <ia|bc> integrals:      0.046 (MW) /      0.366 (MB)
	Size of irrep 5 of <ia|bc> integrals:      0.123 (MW) /      0.983 (MB)
	Size of irrep 6 of <ia|bc> integrals:      0.123 (MW) /      0.983 (MB)
	Size of irrep 7 of <ia|bc> integrals:      0.123 (MW) /      0.983 (MB)
	Total:                                     0.900 (MW) /      7.199 (MB)

	Size of irrep 0 of <Ia|Bc> integrals:      0.462 (MW) /      3.695 (MB)
	Size of irrep 1 of <Ia|Bc> integrals:      0.258 (MW) /      2.064 (MB)
	Size of irrep 2 of <Ia|Bc> integrals:      0.258 (MW) /      2.064 (MB)
	Size of irrep 3 of <Ia|Bc> integrals:      0.324 (MW) /      2.589 (MB)
	Size of irrep 4 of <Ia|Bc> integrals:      0.218 (MW) /      1.744 (MB)
	Size of irrep 5 of <Ia|Bc> integrals:      0.406 (MW) /      3.247 (MB)
	Size of irrep 6 of <Ia|Bc> integrals:      0.406 (MW) /      3.247 (MB)
	Size of irrep 7 of <Ia|Bc> integrals:      0.319 (MW) /      2.548 (MB)
	Total:                                     2.650 (MW) /     21.199 (MB)

	Size of irrep 0 of <iA|bC> integrals:      0.201 (MW) /      1.606 (MB)
	Size of irrep 1 of <iA|bC> integrals:      0.093 (MW) /      0.747 (MB)
	Size of irrep 2 of <iA|bC> integrals:      0.093 (MW) /      0.747 (MB)
	Size of irrep 3 of <iA|bC> integrals:      0.093 (MW) /      0.745 (MB)
	Size of irrep 4 of <iA|bC> integrals:      0.045 (MW) /      0.362 (MB)
	Size of irrep 5 of <iA|bC> integrals:      0.117 (MW) /      0.933 (MB)
	Size of irrep 6 of <iA|bC> integrals:      0.117 (MW) /      0.933 (MB)
	Size of irrep 7 of <iA|bC> integrals:      0.122 (MW) /      0.974 (MB)
	Total:                                     0.881 (MW) /      7.048 (MB)

	Size of irrep 0 of tIjAb amplitudes:       0.005 (MW) /      0.040 (MB)
	Size of irrep 1 of tIjAb amplitudes:       0.000 (MW) /      0.000 (MB)
	Size of irrep 2 of tIjAb amplitudes:       0.000 (MW) /      0.000 (MB)
	Size of irrep 3 of tIjAb amplitudes:       0.000 (MW) /      0.000 (MB)
	Size of irrep 4 of tIjAb amplitudes:       0.000 (MW) /      0.000 (MB)
	Size of irrep 5 of tIjAb amplitudes:       0.005 (MW) /      0.037 (MB)
	Size of irrep 6 of tIjAb amplitudes:       0.005 (MW) /      0.037 (MB)
	Size of irrep 7 of tIjAb amplitudes:       0.000 (MW) /      0.000 (MB)
	Total:                                     0.014 (MW) /      0.115 (MB)

	Nuclear Rep. energy          =      0.00000000000000
	SCF energy                   =   -288.85891349262425
	One-electron energy          =     -5.67882439058682
	Two-electron (AA) energy     =      0.86391428602877
	Two-electron (BB) energy     =      0.00000000000000
	Two-electron (AB) energy     =      1.13278077260128
	Two-electron energy          =      1.99669505863005
	Reference energy             =   -288.85891349262425

*** tstop() called on cqc05 at Wed Aug 26 09:16:41 2020
Module time:
	user time   =      13.45 seconds =       0.22 minutes
	system time =       7.10 seconds =       0.12 minutes
	total time  =         21 seconds =       0.35 minutes
Total time:
	user time   =      59.93 seconds =       1.00 minutes
	system time =       8.03 seconds =       0.13 minutes
	total time  =         68 seconds =       1.13 minutes

*** tstart() called on cqc05
*** at Wed Aug 26 09:16:41 2020

            **************************
            *                        *
            *        CCENERGY        *
            *                        *
            **************************

    Nuclear Rep. energy (wfn)     =    0.000000000000000
    SCF energy          (wfn)     = -288.858913492624254
    Reference energy    (file100) = -288.858913492624254

    Input parameters:
    -----------------
    Wave function   =     CCSD
    Reference wfn   =     UHF
    Brueckner       =     No
    Memory (Mbytes) =     250000.0
    Maxiter         =     50
    R_Convergence   =     1.0e-07
    E_Convergence   =     1.0e-06
    Restart         =     Yes
    DIIS            =     Yes
    AO Basis        =     NONE
    ABCD            =     NEW
    Cache Level     =     2
    Cache Type      =     LRU
    Print Level     =     1
    Num. of threads =     4
    # Amps to Print =     10
    Print MP2 Amps? =     No
    Analyze T2 Amps =     No
    Print Pair Ener =     No
    Local CC        =     No
    SCS-MP2         =     False
    SCSN-MP2        =     False
    SCS-CCSD        =     False

MP2 correlation energy -0.0625967035060859
                Solving CC Amplitude Equations
                ------------------------------
  Iter             Energy              RMS        T1Diag      D1Diag    New D1Diag    D2Diag
  ----     ---------------------    ---------   ----------  ----------  ----------   --------
     0        -0.062596703506086    0.000e+00    0.000000    0.000000    0.000000    0.000000
     1        -0.071825808493520    5.257e-02    0.009935    0.000000    0.000000    0.000000
     2        -0.077384996456769    2.204e-02    0.016289    0.000000    0.000000    0.000000
     3        -0.077496197344192    5.514e-03    0.017957    0.000000    0.000000    0.000000
     4        -0.077662191115071    1.635e-03    0.018299    0.000000    0.000000    0.000000
     5        -0.077662452844198    4.309e-04    0.018316    0.000000    0.000000    0.000000
     6        -0.077658548712246    1.049e-04    0.018313    0.000000    0.000000    0.000000
     7        -0.077660484417898    2.721e-05    0.018317    0.000000    0.000000    0.000000
     8        -0.077660480202095    6.483e-06    0.018318    0.000000    0.000000    0.000000
     9        -0.077660342465790    1.591e-06    0.018319    0.000000    0.000000    0.000000
    10        -0.077660342583051    4.924e-07    0.018319    0.000000    0.000000    0.000000
    11        -0.077660352485656    1.647e-07    0.018319    0.000000    0.000000    0.000000
    12        -0.077660354115619    3.844e-08    0.018319    0.000000    0.000000    0.000000
    12        -0.077660354115619    3.844e-08    0.018319    0.000000    0.000000    0.000000

    Iterations converged.


    CCSD corr. energy   =   -0.077660354115619
    PPL corr. energy    =    0.031180517357062
    OS PPL corr. energy =    0.028042376354472
    SS PPL corr. energy =    0.003138141002590
    Largest TIA Amplitudes:
              0   5         0.0229283987
              0  10         0.0130699616
              0   1        -0.0115835933
              0   3         0.0077215609
              0   0        -0.0059392014
              1 115         0.0058406209
              2 140         0.0058405559
              1 118        -0.0050106259
              2 143        -0.0050105936
              0  11        -0.0047202924

    Largest Tia Amplitudes:
              0   3        -0.0086169823
              0   0         0.0077872087
              0   4         0.0054281281
              0   9        -0.0038934516
              0   1        -0.0027485558
              0  21         0.0017783153
              0  15         0.0005898892
              0  12        -0.0005449533
              0  11         0.0005377491
              0  22         0.0003723881

    Largest TIJAB Amplitudes:
      2   1  83   4        -0.0479922852
      2   1  82   4        -0.0257322351
      2   1  83   2        -0.0257322349
      2   1  83   9        -0.0254912858
      2   1  86   4        -0.0254912856
      2   1  62  41         0.0229817597
      2   0 164  41        -0.0209716478
      1   0 164  62        -0.0209716466
      2   1  86   9        -0.0201840477
      2   1 140 115        -0.0192511381

    Largest TIjAb Amplitudes:
      0   0 164 166         0.1005997531
      0   0 164 167        -0.0649531127
      0   0 164 168         0.0579670824
      2   0  41 166        -0.0570197482
      1   0  62 166        -0.0570197462
      2   0   4 141        -0.0491031630
      2   0  83 115         0.0491031586
      1   0  83 141         0.0491031584
      1   0   4 115         0.0491031532
      0   0 166 166         0.0478822841

    SCF energy       (wfn)                    = -288.858913492624254
    Reference energy (file100)                = -288.858913492624254

    Opposite-spin MP2 correlation energy      =   -0.052134974547614
    Same-spin MP2 correlation energy          =   -0.010461728958467
    MP2 correlation energy                    =   -0.062596703506086
      * MP2 total energy                      = -288.921510196130328

    Opposite-spin CCSD correlation energy     =   -0.065704828367417
    Same-spin CCSD correlation energy         =   -0.011955526355599
    CCSD correlation energy                   =   -0.077660354115619
      * CCSD total energy                     = -288.936573846739861


*** tstop() called on cqc05 at Wed Aug 26 09:16:53 2020
Module time:
	user time   =       4.66 seconds =       0.08 minutes
	system time =       7.23 seconds =       0.12 minutes
	total time  =         12 seconds =       0.20 minutes
Total time:
	user time   =      64.59 seconds =       1.08 minutes
	system time =      15.26 seconds =       0.25 minutes
	total time  =         80 seconds =       1.33 minutes

*** Psi4 exiting successfully. Buy a developer a beer!
