
    -----------------------------------------------------------------------
          Psi4: An Open-Source Ab Initio Electronic Structure Package
                               Psi4 1.2a1.dev938 

                         Git: Rev {HEAD} fc51d9a dirty


    R. M. Parrish, L. A. Burns, D. G. A. Smith, A. C. Simmonett,
    A. E. DePrince III, E. G. Hohenstein, U. Bozkaya, A. Yu. Sokolov,
    R. Di Remigio, R. M. Richard, J. F. Gonthier, A. M. James,
    H. R. McAlexander, A. Kumar, M. Saitow, X. Wang, B. P. Pritchard,
    P. Verma, H. F. Schaefer III, K. Patkowski, R. A. King, E. F. Valeev,
    F. A. Evangelista, J. M. Turney, T. D. Crawford, and C. D. Sherrill,
    J. Chem. Theory Comput. 13(7) pp 3185--3197 (2017).
    (doi: 10.1021/acs.jctc.7b00174)

    -----------------------------------------------------------------------


    Psi4 started on: Friday, 21 August 2020 06:47AM

    Process ID: 428033
    PSIDATADIR: /home/irmler/Programs/psi4/beforeGrueneis3/stage/usr/local/psi4/share/psi4
    Memory:     500.0 MiB
    Threads:    4
    
  ==> Input File <==

--------------------------------------------------------------------------
# Any line starting with the # character is a comment line
memory 250000 mb
molecule molecule{
1 4
S          0.0000000000        0.0000000000        0.0000000000
}

set {
  reference uhf
  basis aug-cc-pv(5+d)z
  scf_type OUT_OF_CORE
  freeze_core true
}

energy('ccsd')
--------------------------------------------------------------------------

  Memory set to 232.831 GiB by Python driver.

*** tstart() called on cqc05
*** at Fri Aug 21 06:47:38 2020

   => Loading Basis Set <=

    Name: AUG-CC-PV(5+D)Z
    Role: ORBITAL
    Keyword: BASIS
    atoms 1 entry S          line   971 file /home/irmler/Programs/psi4/beforeGrueneis3/stage/usr/local/psi4/share/psi4/basis/aug-cc-pv_5pd_z.gbs 


         ---------------------------------------------------------
                                   SCF
            by Justin Turney, Rob Parrish, Andy Simmonett
                             and Daniel Smith
                              UHF Reference
                        4 Threads, 238418 MiB Core
         ---------------------------------------------------------

  ==> Geometry <==

    Molecular point group: d2h
    Geometry (in Angstrom), charge = 1, multiplicity = 4:

       Center              X                  Y                   Z               Mass       
    ------------   -----------------  -----------------  -----------------  -----------------
           S          0.000000000000     0.000000000000     0.000000000000    31.972070999000

  Running in d2h symmetry.

  Rotational constants: A = ************  B = ************  C = ************ [cm^-1]
  Rotational constants: A = ************  B = ************  C = ************ [MHz]
  Nuclear repulsion =    0.000000000000000

  Charge       = 1
  Multiplicity = 4
  Electrons    = 15
  Nalpha       = 9
  Nbeta        = 6

  ==> Algorithm <==

  SCF Algorithm Type is OUT_OF_CORE.
  DIIS enabled.
  MOM disabled.
  Fractional occupation disabled.
  Guess Type is GWH.
  Energy threshold   = 1.00e-08
  Density threshold  = 1.00e-08
  Integral threshold = 0.00e+00

  ==> Primary Basis <==

  Basis Set: AUG-CC-PV(5+D)Z
    Blend: AUG-CC-PV(5+D)Z
    Number of shells: 30
    Number of basis function: 136
    Number of Cartesian functions: 192
    Spherical Harmonics?: true
    Max angular momentum: 5

  ==> Pre-Iterations <==

   -------------------------------------------------------
    Irrep   Nso     Nmo     Nalpha   Nbeta   Ndocc  Nsocc
   -------------------------------------------------------
     Ag        29      29       0       0       0       0
     B1g       12      12       0       0       0       0
     B2g       12      12       0       0       0       0
     B3g       12      12       0       0       0       0
     Au         8       8       0       0       0       0
     B1u       21      21       0       0       0       0
     B2u       21      21       0       0       0       0
     B3u       21      21       0       0       0       0
   -------------------------------------------------------
    Total     136     136       9       6       6       3
   -------------------------------------------------------

  ==> Integral Setup <==

  ==> DiskJK: Disk-Based J/K Matrices <==

    J tasked:                  Yes
    K tasked:                  Yes
    wK tasked:                  No
    Memory (MB):            178813
    Schwarz Cutoff:          1E-12

  Minimum eigenvalue in the overlap matrix is 9.7491445103E-05.
  Using Symmetric Orthogonalization.

  SCF Guess: Generalized Wolfsberg-Helmholtz.

  ==> Iterations <==

                        Total Energy        Delta E     RMS |[F,P]|

    Occupation by irrep:
             Ag   B1g   B2g   B3g    Au   B1u   B2u   B3u 
    DOCC [     3,    0,    0,    0,    0,    1,    1,    1 ]
    SOCC [     0,    0,    0,    0,    0,    1,    1,    1 ]

   @UHF iter   1:  -380.93620495196257   -3.80936e+02   2.45115e-01 
   @UHF iter   2:  -393.53877255615532   -1.26026e+01   7.78611e-02 DIIS
   @UHF iter   3:  -397.10674455609063   -3.56797e+00   1.84856e-02 DIIS
   @UHF iter   4:  -397.17078601478875   -6.40415e-02   1.94421e-03 DIIS
   @UHF iter   5:  -397.17370065305550   -2.91464e-03   3.80071e-04 DIIS
   @UHF iter   6:  -397.17374832568078   -4.76726e-05   4.80276e-05 DIIS
   @UHF iter   7:  -397.17375076701563   -2.44133e-06   9.46618e-06 DIIS
   @UHF iter   8:  -397.17375086449886   -9.74832e-08   1.16760e-06 DIIS
   @UHF iter   9:  -397.17375086668716   -2.18830e-09   8.90858e-08 DIIS
   @UHF iter  10:  -397.17375086670307   -1.59162e-11   1.01411e-08 DIIS
   @UHF iter  11:  -397.17375086670302    5.68434e-14   1.03201e-09 DIIS

  ==> Post-Iterations <==

   @Spin Contamination Metric:   8.964492340E-04
   @S^2 Expected:                3.750000000E+00
   @S^2 Observed:                3.750896449E+00
   @S   Expected:                1.500000000E+00
   @S   Observed:                1.500000000E+00

    Orbital Energies (a.u.)
    -----------------------

    Alpha Occupied:                                                       

       1Ag   -92.450175     2Ag    -9.443089     1B1u   -7.133148  
       1B2u   -7.133148     1B3u   -7.133148     3Ag    -1.412426  
       2B3u   -0.862419     2B2u   -0.862419     2B1u   -0.862419  

    Alpha Virtual:                                                        

       4Ag    -0.121114     3B1u   -0.081283     3B2u   -0.081283  
       3B3u   -0.081283     5Ag    -0.039341     1B1g   -0.039341  
       1B2g   -0.039341     1B3g   -0.039341     6Ag    -0.039341  
       4B1u    0.113645     4B2u    0.113645     4B3u    0.113645  
       7Ag     0.168727     2B1g    0.168727     2B2g    0.168727  
       2B3g    0.168727     8Ag     0.168727     9Ag     0.178062  
       5B1u    0.235241     5B2u    0.235241     5B3u    0.235241  
       1Au     0.235241     6B1u    0.235241     6B2u    0.235241  
       6B3u    0.235241    10Ag     0.804560     3B3g    0.804560  
       3B2g    0.804560     3B1g    0.804560    11Ag     0.804560  
       4B3g    0.804560     4B2g    0.804560    12Ag     0.804560  
       4B1g    0.804560    13Ag     0.806094     5B1g    0.806094  
       5B2g    0.806094     5B3g    0.806094    14Ag     0.806094  
       7B1u    0.870667     7B2u    0.870667     7B3u    0.870667  
       8B3u    0.872403     8B2u    0.872403     8B1u    0.872403  
       2Au     0.872403     9B3u    0.872403     9B2u    0.872403  
       9B1u    0.872403    15Ag     1.271417    10B3u    2.200959  
      10B2u    2.200959    10B1u    2.200959     3Au     2.200959  
      11B3u    2.200959    11B2u    2.200959    11B1u    2.200959  
      16Ag     2.333060     6B1g    2.333060     6B2g    2.333060  
       6B3g    2.333060    17Ag     2.333060     7B1g    2.333060  
       7B2g    2.333060     7B3g    2.333060    18Ag     2.333060  
      12B3u    2.362834    12B2u    2.362834    12B1u    2.362834  
       4Au     2.362834    13B3u    2.362834    13B2u    2.362834  
      13B1u    2.362834     5Au     2.362834    14B3u    2.362834  
      14B2u    2.362834    14B1u    2.362834    19Ag     2.384154  
       8B1g    2.384154     8B2g    2.384154     8B3g    2.384154  
      20Ag     2.384154    15B3u    3.469929    15B1u    3.469929  
      15B2u    3.469929    16B3u    4.946748    16B2u    4.946748  
      16B1u    4.946748     6Au     4.946748    17B3u    4.946748  
      17B2u    4.946748    17B1u    4.946748    21Ag     5.245406  
      22Ag     5.505047     9B1g    5.505047     9B2g    5.505047  
       9B3g    5.505047    23Ag     5.505047    24Ag     5.726859  
      10B1g    5.726859    10B2g    5.726859    10B3g    5.726859  
      25Ag     5.726859    11B1g    5.726859    11B2g    5.726859  
      11B3g    5.726859    26Ag     5.726859    18B3u    5.850204  
      18B2u    5.850204    18B1u    5.850204     7Au     5.850204  
      19B3u    5.850204    19B2u    5.850204    19B1u    5.850204  
       8Au     5.850204    20B3u    5.850204    20B2u    5.850204  
      20B1u    5.850204    12B1g   15.810949    27Ag    15.810949  
      12B2g   15.810949    12B3g   15.810949    28Ag    15.810949  
      21B1u   23.884643    21B2u   23.884643    21B3u   23.884643  
      29Ag    55.884892  

    Beta Occupied:                                                        

       1Ag   -92.417377     2Ag    -9.411748     1B3u   -7.074404  
       1B2u   -7.074404     1B1u   -7.074404     3Ag    -1.067728  

    Beta Virtual:                                                         

       2B1u   -0.306873     2B2u   -0.306873     2B3u   -0.306873  
       4Ag    -0.108800     3B1u   -0.068967     3B2u   -0.068967  
       3B3u   -0.068967     5Ag    -0.004315     1B3g   -0.004315  
       1B2g   -0.004315     1B1g   -0.004315     6Ag    -0.004315  
       4B1u    0.151117     4B2u    0.151117     4B3u    0.151117  
       7Ag     0.208869     5B1u    0.241886     5B2u    0.241886  
       5B3u    0.241886     1Au     0.241886     6B1u    0.241886  
       6B2u    0.241886     6B3u    0.241886     8Ag     0.263367  
       2B3g    0.263367     2B2g    0.263367     2B1g    0.263367  
       9Ag     0.263367    10Ag     0.813537     3B3g    0.813537  
       3B2g    0.813537     3B1g    0.813537    11Ag     0.813537  
       4B3g    0.813537     4B2g    0.813537     4B1g    0.813537  
      12Ag     0.813537    13Ag     0.882447     5B3g    0.882447  
       5B2g    0.882447     5B1g    0.882447    14Ag     0.882447  
       7B1u    0.912077     7B2u    0.912077     7B3u    0.912077  
       2Au     0.912077     8B1u    0.912077     8B2u    0.912077  
       8B3u    0.912077     9B1u    0.943659     9B2u    0.943659  
       9B3u    0.943659    15Ag     1.329559    10B1u    2.267954  
      10B2u    2.267954    10B3u    2.267954     3Au     2.267954  
      11B1u    2.267954    11B2u    2.267954    11B3u    2.267954  
      16Ag     2.372318     6B3g    2.372318     6B2g    2.372318  
       6B1g    2.372318    17Ag     2.372318     7B3g    2.372318  
       7B2g    2.372318     7B1g    2.372318    18Ag     2.372318  
      12B1u    2.381793    12B2u    2.381793    12B3u    2.381793  
       4Au     2.381793    13B1u    2.381793    13B2u    2.381793  
      13B3u    2.381793     5Au     2.381793    14B1u    2.381793  
      14B2u    2.381793    14B3u    2.381793    19Ag     2.426776  
       8B3g    2.426776     8B2g    2.426776    20Ag     2.426776  
       8B1g    2.426776    15B1u    3.537229    15B2u    3.537229  
      15B3u    3.537229    16B2u    4.993752    16B3u    4.993752  
      16B1u    4.993752     6Au     4.993752    17B2u    4.993752  
      17B3u    4.993752    17B1u    4.993752    21Ag     5.293744  
      22Ag     5.536113     9B1g    5.536113     9B2g    5.536113  
       9B3g    5.536113    23Ag     5.536113    24Ag     5.776781  
      10B1g    5.776781    10B3g    5.776781    10B2g    5.776781  
      25Ag     5.776781    11B1g    5.776781    11B3g    5.776781  
      11B2g    5.776781    26Ag     5.776781    18B2u    5.889230  
      18B1u    5.889230     7Au     5.889230    18B3u    5.889230  
      19B1u    5.889230    19B2u    5.889230    19B3u    5.889230  
       8Au     5.889230    20B1u    5.889230    20B2u    5.889230  
      20B3u    5.889230    27Ag    15.841523    12B1g   15.841523  
      12B2g   15.841523    12B3g   15.841523    28Ag    15.841523  
      21B2u   23.929434    21B1u   23.929434    21B3u   23.929434  
      29Ag    55.908162  

    Final Occupation by Irrep:
             Ag   B1g   B2g   B3g    Au   B1u   B2u   B3u 
    DOCC [     3,    0,    0,    0,    0,    1,    1,    1 ]
    SOCC [     0,    0,    0,    0,    0,    1,    1,    1 ]

  Energy converged.

  @UHF Final Energy:  -397.17375086670302

   => Energetics <=

    Nuclear Repulsion Energy =              0.0000000000000000
    One-Electron Energy =                -542.9350457253833611
    Two-Electron Energy =                 145.7612948586803441
    Total Energy =                       -397.1737508667030170


  UHF NO Occupations:
  HONO-2 :    2B2u 1.0000000
  HONO-1 :    2B1u 1.0000000
  HONO-0 :    2B3u 1.0000000
  LUNO+0 :    4 Ag 0.0004280
  LUNO+1 :    3B1u 0.0000065
  LUNO+2 :    3B2u 0.0000065
  LUNO+3 :    3B3u 0.0000065



Properties will be evaluated at   0.000000,   0.000000,   0.000000 Bohr

Properties computed using the SCF density matrix

  Nuclear Dipole Moment: (a.u.)
     X:     0.0000      Y:     0.0000      Z:     0.0000

  Electronic Dipole Moment: (a.u.)
     X:     0.0000      Y:     0.0000      Z:     0.0000

  Dipole Moment: (a.u.)
     X:     0.0000      Y:     0.0000      Z:     0.0000     Total:     0.0000

  Dipole Moment: (Debye)
     X:     0.0000      Y:     0.0000      Z:     0.0000     Total:     0.0000


*** tstop() called on cqc05 at Fri Aug 21 06:47:46 2020
Module time:
	user time   =       8.47 seconds =       0.14 minutes
	system time =       0.23 seconds =       0.00 minutes
	total time  =          8 seconds =       0.13 minutes
Total time:
	user time   =       8.47 seconds =       0.14 minutes
	system time =       0.23 seconds =       0.00 minutes
	total time  =          8 seconds =       0.13 minutes

*** tstart() called on cqc05
*** at Fri Aug 21 06:47:46 2020


	Wfn Parameters:
	--------------------
	Wavefunction         = CCSD
	Number of irreps     = 8
	Number of MOs        = 136
	Number of active MOs = 131
	AO-Basis             = NONE
	Semicanonical        = false
	Reference            = UHF
	Print Level          = 1

	IRREP	# MOs	# FZDC	# DOCC	# SOCC	# VIRT	# FZVR
	-----	-----	------	------	------	------	------
	 Ag	   29	    2	    1	    0	    26	    0
	 B1g	   12	    0	    0	    0	    12	    0
	 B2g	   12	    0	    0	    0	    12	    0
	 B3g	   12	    0	    0	    0	    12	    0
	 Au	   8	    0	    0	    0	    8	    0
	 B1u	   21	    1	    0	    1	    19	    0
	 B2u	   21	    1	    0	    1	    19	    0
	 B3u	   21	    1	    0	    1	    19	    0
	Transforming integrals...
	IWL integrals will be deleted.
	(OO|OO)...
	Presorting SO-basis two-electron integrals.
	Sorting File: SO Ints (nn|nn) nbuckets = 1
	Transforming the one-electron integrals and constructing Fock matrices
	Starting AA/AB first half-transformation.
	Sorting AA/AB half-transformed integrals.
	Starting BB first half-transformation.
	Sorting BB half-transformed integrals.
	First half integral transformation complete.
	Starting AA second half-transformation.
	Starting AB second half-transformation.
	Starting BB second half-transformation.
	Two-electron integral transformation complete.
	(OO|OV)...
	Starting AA second half-transformation.
	Starting AB second half-transformation.
	Starting BB second half-transformation.
	Two-electron integral transformation complete.
	(OO|VV)...
	Starting AA second half-transformation.
	Starting AB second half-transformation.
	Starting BB second half-transformation.
	Two-electron integral transformation complete.
	(OV|OO)...
	Starting AA/AB first half-transformation.
	Sorting AA/AB half-transformed integrals.
	Starting BB first half-transformation.
	Sorting BB half-transformed integrals.
	First half integral transformation complete.
	Starting AA second half-transformation.
	Starting AB second half-transformation.
	Starting BB second half-transformation.
	Two-electron integral transformation complete.
	(OV|OV)...
	Starting AA second half-transformation.
	Starting AB second half-transformation.
	Starting BB second half-transformation.
	Two-electron integral transformation complete.
	(OV|VV)...
	Starting AA second half-transformation.
	Starting AB second half-transformation.
	Starting BB second half-transformation.
	Two-electron integral transformation complete.
	(VV|OO)...
	Starting AA/AB first half-transformation.
	Sorting AA/AB half-transformed integrals.
	Starting BB first half-transformation.
	Sorting BB half-transformed integrals.
	First half integral transformation complete.
	Starting AA second half-transformation.
	Starting AB second half-transformation.
	Starting BB second half-transformation.
	Two-electron integral transformation complete.
	(VV|OV)...
	Starting AA second half-transformation.
	Starting AB second half-transformation.
	Starting BB second half-transformation.
	Two-electron integral transformation complete.
	(VV|VV)...
	Starting AA second half-transformation.
	Starting AB second half-transformation.
	Starting BB second half-transformation.
	Two-electron integral transformation complete.
	Frozen core energy     =   -387.55372153351419

	Size of irrep 0 of <AB|CD> integrals:      1.132 (MW) /      9.057 (MB)
	Size of irrep 1 of <AB|CD> integrals:      0.939 (MW) /      7.512 (MB)
	Size of irrep 2 of <AB|CD> integrals:      0.939 (MW) /      7.512 (MB)
	Size of irrep 3 of <AB|CD> integrals:      0.939 (MW) /      7.512 (MB)
	Size of irrep 4 of <AB|CD> integrals:      0.796 (MW) /      6.365 (MB)
	Size of irrep 5 of <AB|CD> integrals:      1.094 (MW) /      8.753 (MB)
	Size of irrep 6 of <AB|CD> integrals:      1.094 (MW) /      8.753 (MB)
	Size of irrep 7 of <AB|CD> integrals:      1.094 (MW) /      8.753 (MB)
	Total:                                     8.027 (MW) /     64.216 (MB)

	Size of irrep 0 of <ab|cd> integrals:      1.257 (MW) /     10.053 (MB)
	Size of irrep 1 of <ab|cd> integrals:      1.032 (MW) /      8.258 (MB)
	Size of irrep 2 of <ab|cd> integrals:      1.032 (MW) /      8.258 (MB)
	Size of irrep 3 of <ab|cd> integrals:      1.032 (MW) /      8.258 (MB)
	Size of irrep 4 of <ab|cd> integrals:      0.861 (MW) /      6.889 (MB)
	Size of irrep 5 of <ab|cd> integrals:      1.201 (MW) /      9.610 (MB)
	Size of irrep 6 of <ab|cd> integrals:      1.201 (MW) /      9.610 (MB)
	Size of irrep 7 of <ab|cd> integrals:      1.201 (MW) /      9.610 (MB)
	Total:                                     8.818 (MW) /     70.546 (MB)

	Size of irrep 0 of <Ab|Cd> integrals:      5.345 (MW) /     42.763 (MB)
	Size of irrep 1 of <Ab|Cd> integrals:      3.936 (MW) /     31.490 (MB)
	Size of irrep 2 of <Ab|Cd> integrals:      3.936 (MW) /     31.490 (MB)
	Size of irrep 3 of <Ab|Cd> integrals:      3.936 (MW) /     31.490 (MB)
	Size of irrep 4 of <Ab|Cd> integrals:      3.312 (MW) /     26.499 (MB)
	Size of irrep 5 of <Ab|Cd> integrals:      4.588 (MW) /     36.705 (MB)
	Size of irrep 6 of <Ab|Cd> integrals:      4.588 (MW) /     36.705 (MB)
	Size of irrep 7 of <Ab|Cd> integrals:      4.588 (MW) /     36.705 (MB)
	Total:                                    34.231 (MW) /    273.848 (MB)

	Size of irrep 0 of <IA|BC> integrals:      0.187 (MW) /      1.497 (MB)
	Size of irrep 1 of <IA|BC> integrals:      0.112 (MW) /      0.899 (MB)
	Size of irrep 2 of <IA|BC> integrals:      0.112 (MW) /      0.899 (MB)
	Size of irrep 3 of <IA|BC> integrals:      0.112 (MW) /      0.899 (MB)
	Size of irrep 4 of <IA|BC> integrals:      0.078 (MW) /      0.628 (MB)
	Size of irrep 5 of <IA|BC> integrals:      0.144 (MW) /      1.155 (MB)
	Size of irrep 6 of <IA|BC> integrals:      0.144 (MW) /      1.155 (MB)
	Size of irrep 7 of <IA|BC> integrals:      0.144 (MW) /      1.155 (MB)
	Total:                                     1.036 (MW) /      8.287 (MB)

	Size of irrep 0 of <ia|bc> integrals:      0.062 (MW) /      0.493 (MB)
	Size of irrep 1 of <ia|bc> integrals:      0.024 (MW) /      0.195 (MB)
	Size of irrep 2 of <ia|bc> integrals:      0.024 (MW) /      0.195 (MB)
	Size of irrep 3 of <ia|bc> integrals:      0.024 (MW) /      0.195 (MB)
	Size of irrep 4 of <ia|bc> integrals:      0.015 (MW) /      0.119 (MB)
	Size of irrep 5 of <ia|bc> integrals:      0.044 (MW) /      0.351 (MB)
	Size of irrep 6 of <ia|bc> integrals:      0.044 (MW) /      0.351 (MB)
	Size of irrep 7 of <ia|bc> integrals:      0.044 (MW) /      0.351 (MB)
	Total:                                     0.281 (MW) /      2.250 (MB)

	Size of irrep 0 of <Ia|Bc> integrals:      0.199 (MW) /      1.591 (MB)
	Size of irrep 1 of <Ia|Bc> integrals:      0.119 (MW) /      0.952 (MB)
	Size of irrep 2 of <Ia|Bc> integrals:      0.119 (MW) /      0.952 (MB)
	Size of irrep 3 of <Ia|Bc> integrals:      0.119 (MW) /      0.952 (MB)
	Size of irrep 4 of <Ia|Bc> integrals:      0.080 (MW) /      0.641 (MB)
	Size of irrep 5 of <Ia|Bc> integrals:      0.150 (MW) /      1.200 (MB)
	Size of irrep 6 of <Ia|Bc> integrals:      0.150 (MW) /      1.200 (MB)
	Size of irrep 7 of <Ia|Bc> integrals:      0.150 (MW) /      1.200 (MB)
	Total:                                     1.086 (MW) /      8.687 (MB)

	Size of irrep 0 of <iA|bC> integrals:      0.060 (MW) /      0.481 (MB)
	Size of irrep 1 of <iA|bC> integrals:      0.024 (MW) /      0.190 (MB)
	Size of irrep 2 of <iA|bC> integrals:      0.024 (MW) /      0.190 (MB)
	Size of irrep 3 of <iA|bC> integrals:      0.024 (MW) /      0.190 (MB)
	Size of irrep 4 of <iA|bC> integrals:      0.015 (MW) /      0.116 (MB)
	Size of irrep 5 of <iA|bC> integrals:      0.041 (MW) /      0.326 (MB)
	Size of irrep 6 of <iA|bC> integrals:      0.041 (MW) /      0.326 (MB)
	Size of irrep 7 of <iA|bC> integrals:      0.041 (MW) /      0.326 (MB)
	Total:                                     0.268 (MW) /      2.146 (MB)

	Size of irrep 0 of tIjAb amplitudes:       0.002 (MW) /      0.018 (MB)
	Size of irrep 1 of tIjAb amplitudes:       0.000 (MW) /      0.000 (MB)
	Size of irrep 2 of tIjAb amplitudes:       0.000 (MW) /      0.000 (MB)
	Size of irrep 3 of tIjAb amplitudes:       0.000 (MW) /      0.000 (MB)
	Size of irrep 4 of tIjAb amplitudes:       0.000 (MW) /      0.000 (MB)
	Size of irrep 5 of tIjAb amplitudes:       0.002 (MW) /      0.017 (MB)
	Size of irrep 6 of tIjAb amplitudes:       0.002 (MW) /      0.017 (MB)
	Size of irrep 7 of tIjAb amplitudes:       0.002 (MW) /      0.017 (MB)
	Total:                                     0.009 (MW) /      0.070 (MB)

	Nuclear Rep. energy          =      0.00000000000000
	SCF energy                   =   -397.17375086670302
	One-electron energy          =    -14.17264749491013
	Two-electron (AA) energy     =      2.48755920811974
	Two-electron (BB) energy     =      0.00000000000000
	Two-electron (AB) energy     =      2.06505895360211
	Two-electron energy          =      4.55261816172185
	Reference energy             =   -397.17375086670245

*** tstop() called on cqc05 at Fri Aug 21 06:47:50 2020
Module time:
	user time   =       2.91 seconds =       0.05 minutes
	system time =       1.45 seconds =       0.02 minutes
	total time  =          4 seconds =       0.07 minutes
Total time:
	user time   =      11.38 seconds =       0.19 minutes
	system time =       1.68 seconds =       0.03 minutes
	total time  =         12 seconds =       0.20 minutes

*** tstart() called on cqc05
*** at Fri Aug 21 06:47:50 2020

            **************************
            *                        *
            *        CCENERGY        *
            *                        *
            **************************

    Nuclear Rep. energy (wfn)     =    0.000000000000000
    SCF energy          (wfn)     = -397.173750866703017
    Reference energy    (file100) = -397.173750866702449

    Input parameters:
    -----------------
    Wave function   =     CCSD
    Reference wfn   =     UHF
    Brueckner       =     No
    Memory (Mbytes) =     250000.0
    Maxiter         =     50
    R_Convergence   =     1.0e-07
    E_Convergence   =     1.0e-06
    Restart         =     Yes
    DIIS            =     Yes
    AO Basis        =     NONE
    ABCD            =     NEW
    Cache Level     =     2
    Cache Type      =     LRU
    Print Level     =     1
    Num. of threads =     4
    # Amps to Print =     10
    Print MP2 Amps? =     No
    Analyze T2 Amps =     No
    Print Pair Ener =     No
    Local CC        =     No
    SCS-MP2         =     False
    SCSN-MP2        =     False
    SCS-CCSD        =     False

MP2 correlation energy -0.0996871080535800
                Solving CC Amplitude Equations
                ------------------------------
  Iter             Energy              RMS        T1Diag      D1Diag    New D1Diag    D2Diag
  ----     ---------------------    ---------   ----------  ----------  ----------   --------
     0        -0.099687108053580    0.000e+00    0.000000    0.000000    0.000000    0.000000
     1        -0.111737895450736    3.796e-02    0.004395    0.000000    0.000000    0.000000
     2        -0.115747028981066    1.156e-02    0.005926    0.000000    0.000000    0.000000
     3        -0.115862317126500    1.938e-03    0.006131    0.000000    0.000000    0.000000
     4        -0.115873347100784    3.143e-04    0.006127    0.000000    0.000000    0.000000
     5        -0.115867971666074    5.652e-05    0.006124    0.000000    0.000000    0.000000
     6        -0.115868133299626    9.781e-06    0.006123    0.000000    0.000000    0.000000
     7        -0.115868175183169    2.499e-06    0.006123    0.000000    0.000000    0.000000
     8        -0.115868159305430    6.140e-07    0.006123    0.000000    0.000000    0.000000
     9        -0.115868157112682    1.235e-07    0.006123    0.000000    0.000000    0.000000
    10        -0.115868157414035    3.064e-08    0.006123    0.000000    0.000000    0.000000
    10        -0.115868157414035    3.064e-08    0.006123    0.000000    0.000000    0.000000

    Iterations converged.


    CCSD corr. energy   =   -0.115868157414035
    PPL corr. energy    =    0.036981146579891
    OS PPL corr. energy =    0.030518691655610
    SS PPL corr. energy =    0.006462454924281
    Largest TIA Amplitudes:
              0   5        -0.0029454940
              1  71        -0.0029376167
              2  90        -0.0029376119
              3 109        -0.0029376100
              1  74         0.0027267862
              2  93         0.0027267833
              3 112         0.0027267821
              0  11         0.0023043059
              0   0         0.0018881436
              1  70         0.0017460920

    Largest Tia Amplitudes:
              0   3         0.0073920920
              0   0        -0.0073364529
              0  11        -0.0015647193
              0  17        -0.0011231691
              0  25         0.0000323458

    Largest TIJAB Amplitudes:
      3   2  27   3        -0.0290881537
      2   1  51   4        -0.0278770748
      3   2  27   1        -0.0253236010
      3   2  26   3        -0.0252172360
      2   1  50   4        -0.0241673217
      2   1  51   2        -0.0239503428
      3   2  26   1        -0.0231954411
      3   1  39   4        -0.0225050850
      2   1  50   2        -0.0219375893
      3   1  39   2        -0.0199114201

    Largest TIjAb Amplitudes:
      1   0   4  70         0.0588455857
      3   0   3 110        -0.0563955604
      2   0  51  70         0.0518235504
      3   0  39  70         0.0518235502
      1   0  51  90         0.0518235501
      1   0  39 110         0.0518235497
      3   0  27  90         0.0518235495
      2   0  27 110         0.0518235493
      1   0   2  70         0.0510054874
      3   0   1 110        -0.0482395406

    SCF energy       (wfn)                    = -397.173750866703017
    Reference energy (file100)                = -397.173750866702449

    Opposite-spin MP2 correlation energy      =   -0.073800000234911
    Same-spin MP2 correlation energy          =   -0.025887107818669
    MP2 correlation energy                    =   -0.099687108053580
      * MP2 total energy                      = -397.273437974756007

    Opposite-spin CCSD correlation energy     =   -0.087835971931144
    Same-spin CCSD correlation energy         =   -0.028032185503747
    CCSD correlation energy                   =   -0.115868157414035
      * CCSD total energy                     = -397.289619024116462


*** tstop() called on cqc05 at Fri Aug 21 06:47:54 2020
Module time:
	user time   =       1.51 seconds =       0.03 minutes
	system time =       1.01 seconds =       0.02 minutes
	total time  =          4 seconds =       0.07 minutes
Total time:
	user time   =      12.89 seconds =       0.21 minutes
	system time =       2.69 seconds =       0.04 minutes
	total time  =         16 seconds =       0.27 minutes

*** Psi4 exiting successfully. Buy a developer a beer!
