
    -----------------------------------------------------------------------
          Psi4: An Open-Source Ab Initio Electronic Structure Package
                               Psi4 1.4a3.dev88 

                         Git: Rev {master} 262e345 


    D. G. A. Smith, L. A. Burns, A. C. Simmonett, R. M. Parrish,
    M. C. Schieber, R. Galvelis, P. Kraus, H. Kruse, R. Di Remigio,
    A. Alenaizan, A. M. James, S. Lehtola, J. P. Misiewicz, M. Scheurer,
    R. A. Shaw, J. B. Schriber, Y. Xie, Z. L. Glick, D. A. Sirianni,
    J. S. O'Brien, J. M. Waldrop, A. Kumar, E. G. Hohenstein,
    B. P. Pritchard, B. R. Brooks, H. F. Schaefer III, A. Yu. Sokolov,
    K. Patkowski, A. E. DePrince III, U. Bozkaya, R. A. King,
    F. A. Evangelista, J. M. Turney, T. D. Crawford, C. D. Sherrill,
    J. Chem. Phys. 152(18) 184108 (2020). https://doi.org/10.1063/5.0006002

                            Additional Code Authors
    E. T. Seidl, C. L. Janssen, E. F. Valeev, M. L. Leininger,
    J. F. Gonthier, R. M. Richard, H. R. McAlexander, M. Saitow, X. Wang,
    P. Verma, and M. H. Lechner

             Previous Authors, Complete List of Code Contributors,
                       and Citations for Specific Modules
    https://github.com/psi4/psi4/blob/master/codemeta.json
    https://github.com/psi4/psi4/graphs/contributors
    http://psicode.org/psi4manual/master/introduction.html#citing-psifour

    -----------------------------------------------------------------------


    Psi4 started on: Friday, 22 January 2021 07:44AM

    Process ID: 67721
    Host:       n412-045.vsc4.prov
    PSIDATADIR: /home/fs71337/gallo4/psi4/psi4/build/stage/share/psi4
    Memory:     500.0 MiB
    Threads:    48
    
  ==> Input File <==

--------------------------------------------------------------------------
# Any line starting with the # character is a comment line
memory 250000 mb
molecule molecule{
0 3
S          0.0000000000        0.0000000000        0.9552576298
S          0.0000000000        0.0000000000       -0.9552576298
}

set {
  reference uhf
  basis aug-cc-pV(5+d)Z
  scf_type OUT_OF_CORE
  freeze_core true
}

energy('ccsd(t)')
--------------------------------------------------------------------------

  Memory set to 232.831 GiB by Python driver.

Scratch directory: /binfl/lv71337/airmler/temp/

*** tstart() called on n412-045.vsc4.prov
*** at Fri Jan 22 07:44:04 2021

   => Loading Basis Set <=

    Name: AUG-CC-PV(5+D)Z
    Role: ORBITAL
    Keyword: BASIS
    atoms 1-2 entry S          line  1451 file /home/fs71337/gallo4/psi4/psi4/build/stage/share/psi4/basis/aug-cc-pv_5pd_z.gbs 


         ---------------------------------------------------------
                                   SCF
               by Justin Turney, Rob Parrish, Andy Simmonett
                          and Daniel G. A. Smith
                              UHF Reference
                       48 Threads, 238418 MiB Core
         ---------------------------------------------------------

  ==> Geometry <==

    Molecular point group: d2h
    Full point group: D_inf_h

    Geometry (in Angstrom), charge = 0, multiplicity = 3:

       Center              X                  Y                   Z               Mass       
    ------------   -----------------  -----------------  -----------------  -----------------
         S            0.000000000000     0.000000000000     0.955257629800    31.972071174400
         S            0.000000000000     0.000000000000    -0.955257629800    31.972071174400

  Running in d2h symmetry.

  Rotational constants: A = ************  B =      0.28890  C =      0.28890 [cm^-1]
  Rotational constants: A = ************  B =   8661.14685  C =   8661.14685 [MHz]
  Nuclear repulsion =   70.907240992088660

  Charge       = 0
  Multiplicity = 3
  Electrons    = 32
  Nalpha       = 17
  Nbeta        = 15

  ==> Algorithm <==

  SCF Algorithm Type is OUT_OF_CORE.
  DIIS enabled.
  MOM disabled.
  Fractional occupation disabled.
  Guess Type is SAD.
  Energy threshold   = 1.00e-08
  Density threshold  = 1.00e-08
  Integral threshold = 1.00e-12

  ==> Primary Basis <==

  Basis Set: AUG-CC-PV(5+D)Z
    Blend: AUG-CC-PV(5+D)Z
    Number of shells: 60
    Number of basis function: 272
    Number of Cartesian functions: 384
    Spherical Harmonics?: true
    Max angular momentum: 5

  ==> Integral Setup <==

  ==> DiskJK: Disk-Based J/K Matrices <==

    J tasked:                  Yes
    K tasked:                  Yes
    wK tasked:                  No
    Memory [MiB]:           178813
    Schwarz Cutoff:          1E-12

  Minimum eigenvalue in the overlap matrix is 2.7323876991E-05.
  Reciprocal condition number of the overlap matrix is 4.3028611820E-06.
    Using symmetric orthogonalization.

  ==> Pre-Iterations <==

  SCF Guess: Superposition of Atomic Densities via on-the-fly atomic UHF (no occupation information).


 WARNING: Atomic UHF is not converging! Try casting from a smaller basis or call Rob at CCMST.
   -------------------------
    Irrep   Nso     Nmo    
   -------------------------
     Ag        50      50 
     B1g       20      20 
     B2g       33      33 
     B3g       33      33 
     Au        20      20 
     B1u       50      50 
     B2u       33      33 
     B3u       33      33 
   -------------------------
    Total     272     272
   -------------------------

  ==> Iterations <==

                        Total Energy        Delta E     RMS |[F,P]|

   @UHF iter SAD:   190.36074275340991    1.90361e+02   0.00000e+00 
    Occupation by irrep:
             Ag   B1g   B2g   B3g    Au   B1u   B2u   B3u 
    DOCC [     5,    0,    1,    1,    0,    4,    2,    2 ]
    SOCC [     0,    0,    1,    0,    0,    1,    0,    0 ]

   @UHF iter   1:  -768.19289416505694   -9.58554e+02   1.72934e-01 DIIS
    Occupation by irrep:
             Ag   B1g   B2g   B3g    Au   B1u   B2u   B3u 
    DOCC [     5,    0,    1,    1,    0,    4,    2,    2 ]
    SOCC [     0,    0,    1,    1,    0,    0,    0,    0 ]

   @UHF iter   2:  -779.19825528448894   -1.10054e+01   6.28664e-02 DIIS
   @UHF iter   3:  -792.68376454757652   -1.34855e+01   2.34431e-02 DIIS
   @UHF iter   4:  -795.00776799979315   -2.32400e+00   6.59842e-03 DIIS
   @UHF iter   5:  -795.10318382058449   -9.54158e-02   8.13423e-04 DIIS
   @UHF iter   6:  -795.10735111235135   -4.16729e-03   2.60939e-04 DIIS
   @UHF iter   7:  -795.10822533472242   -8.74222e-04   8.80363e-05 DIIS
   @UHF iter   8:  -795.10835265736887   -1.27323e-04   2.61591e-05 DIIS
   @UHF iter   9:  -795.10836519383099   -1.25365e-05   5.50616e-06 DIIS
   @UHF iter  10:  -795.10836564961733   -4.55786e-07   1.01882e-06 DIIS
   @UHF iter  11:  -795.10836565897955   -9.36222e-09   2.14886e-07 DIIS
   @UHF iter  12:  -795.10836565950240   -5.22846e-10   4.08293e-08 DIIS
   @UHF iter  13:  -795.10836565952752   -2.51248e-11   1.15655e-08 DIIS
   @UHF iter  14:  -795.10836565953014   -2.61480e-12   3.97317e-09 DIIS
  Energy and wave function converged.


  ==> Post-Iterations <==

   @Spin Contamination Metric:   6.239930017E-02
   @S^2 Expected:                2.000000000E+00
   @S^2 Observed:                2.062399300E+00
   @S   Expected:                1.000000000E+00
   @S   Observed:                1.000000000E+00

    Orbital Energies [Eh]
    ---------------------

    Alpha Occupied:                                                       

       1Ag   -92.021600     1B1u  -92.021597     2Ag    -9.020211  
       2B1u   -9.019880     1B2u   -6.707850     1B3u   -6.707850  
       1B3g   -6.707796     1B2g   -6.707796     3Ag    -6.697040  
       3B1u   -6.696120     4Ag    -1.106998     4B1u   -0.870795  
       2B2u   -0.533974     2B3u   -0.533974     5Ag    -0.532736  
       2B3g   -0.384296     2B2g   -0.384296  

    Alpha Virtual:                                                        

       5B1u    0.039148     6Ag     0.064174     3B3u    0.070189  
       3B2u    0.070189     3B3g    0.086603     3B2g    0.086603  
       7Ag     0.091182     6B1u    0.116381     1B1g    0.165530  
       8Ag     0.165530     7B1u    0.188091     9Ag     0.209647  
       4B3u    0.219431     4B2u    0.219431     1Au     0.232482  
       8B1u    0.232482     4B3g    0.240066     4B2g    0.240066  
       9B1u    0.258879     5B3u    0.321675     5B2u    0.321675  
      10Ag     0.360096     5B3g    0.397542     5B2g    0.397542  
       6B2u    0.412824     6B3u    0.412824    11Ag     0.414106  
       2B1g    0.416529    12Ag     0.416529    10B1u    0.420862  
       7B2u    0.428615     7B3u    0.428615     2Au     0.481422  
      11B1u    0.481422    13Ag     0.516360     3B1g    0.526487  
      14Ag     0.526487     6B3g    0.529704     6B2g    0.529704  
       7B3g    0.558886     7B2g    0.558886    12B1u    0.576551  
       8B2u    0.636015     8B3u    0.636015     3Au     0.674745  
      13B1u    0.674745    14B1u    0.698856    15Ag     0.760360  
       8B3g    0.849262     8B2g    0.849262    15B1u    0.924168  
       9B2u    0.990684     9B3u    0.990684    16Ag     1.015410  
       4B1g    1.015410    17Ag     1.022883     9B3g    1.047249  
       9B2g    1.047249    10B2u    1.071905    10B3u    1.071905  
       5B1g    1.085978    18Ag     1.085978     4Au     1.154640  
      16B1u    1.154640    11B2u    1.157249    11B3u    1.157249  
       5Au     1.165959    17B1u    1.165959     6B1g    1.170884  
      19Ag     1.170884    12B2u    1.185802    12B3u    1.185802  
      18B1u    1.204815    10B3g    1.227597    10B2g    1.227597  
      20Ag     1.235659    13B2u    1.271298    13B3u    1.271298  
      11B2g    1.304974    11B3g    1.304974    19B1u    1.327191  
       6Au     1.327191    21Ag     1.338236     7B1g    1.357239  
      22Ag     1.357239    12B3g    1.390052    12B2g    1.390052  
      20B1u    1.455491    13B3g    1.498559    13B2g    1.498559  
      21B1u    1.596973    23Ag     1.679403     7Au     1.760637  
      22B1u    1.760637    23B1u    1.762810    14B2u    1.779851  
      14B3u    1.779851    14B3g    2.056445    14B2g    2.056445  
      24Ag     2.178338    24B1u    2.389217     8B1g    2.414045  
      25Ag     2.414045    15B2u    2.424047    15B3u    2.424047  
      16B2u    2.479104    16B3u    2.479104     9B1g    2.538102  
      26Ag     2.538102    27Ag     2.577347    17B2u    2.587131  
      17B3u    2.587131    15B3g    2.615884    15B2g    2.615884  
      18B3u    2.629199    18B2u    2.629199    10B1g    2.661528  
      28Ag     2.661528    16B3g    2.674274    16B2g    2.674274  
      11B1g    2.736685    29Ag     2.736685    25B1u    2.742754  
       8Au     2.742754     9Au     2.748286    26B1u    2.748286  
      30Ag     2.752658    17B2g    2.767169    17B3g    2.767169  
      12B1g    2.782220    31Ag     2.782220    27B1u    2.812274  
      10Au     2.812274    19B2u    2.838780    19B3u    2.838780  
      28B1u    2.860870    20B2u    2.901369    20B3u    2.901369  
      18B3g    2.901968    18B2g    2.901968    19B3g    2.983512  
      19B2g    2.983512    21B2u    2.994987    21B3u    2.994987  
      29B1u    3.037819    11Au     3.037819    30B1u    3.088690  
      12Au     3.091197    31B1u    3.091197    32Ag     3.190482  
      20B3g    3.238061    20B2g    3.238061    22B2u    3.399374  
      22B3u    3.399374    13B1g    3.414376    33Ag     3.414376  
      21B3g    3.534477    21B2g    3.534477    32B1u    3.580629  
      34Ag     3.711522    33B1u    3.996867    13Au     4.143597  
      34B1u    4.143597    22B3g    4.353970    22B2g    4.353970  
      23B2u    4.479984    23B3u    4.479984    23B3g    4.574876  
      23B2g    4.574876    35Ag     4.722549    24B3u    5.320930  
      24B2u    5.320930    35B1u    5.346767    14B1g    5.349365  
      36Ag     5.349365    24B3g    5.389198    24B2g    5.389198  
      25B2u    5.473028    25B3u    5.473028    37Ag     5.542637  
      36B1u    5.630255    14Au     5.630255    37B1u    5.760464  
      38Ag     5.798991    25B3g    5.861873    25B2g    5.861873  
      15B1g    5.880409    39Ag     5.880409    38B1u    5.985483  
      15Au     5.985483    26B2u    5.986682    26B3u    5.986682  
      40Ag     6.088287    41Ag     6.094380    16B1g    6.094380  
      17B1g    6.101641    42Ag     6.101641    27B3u    6.110447  
      27B2u    6.110447    39B1u    6.163278    16Au     6.163278  
      26B3g    6.186616    26B2g    6.186616    43Ag     6.190798  
      18B1g    6.190798    28B3u    6.207196    28B2u    6.207196  
      29B2u    6.207783    29B3u    6.207783    30B3u    6.211997  
      30B2u    6.211997    27B2g    6.273676    27B3g    6.273676  
      28B2g    6.294464    28B3g    6.294464    44Ag     6.381414  
      19B1g    6.381414    45Ag     6.385749    40B1u    6.395525  
      17Au     6.395525    41B1u    6.482173    42B1u    6.596765  
      18Au     6.596765    43B1u    6.623368    29B2g    6.670388  
      29B3g    6.670388    31B2u    6.935361    31B3u    6.935361  
      19Au     7.141476    44B1u    7.141476    45B1u    7.151166  
      30B3g    7.162624    30B2g    7.162624    31B3g    7.767266  
      31B2g    7.767266    46B1u    7.917947    46Ag     8.620312  
      47Ag    16.225118    20B1g   16.225118    47B1u   16.352806  
      20Au    16.352806    32B2u   16.410910    32B3u   16.410910  
      48Ag    16.791293    48B1u   16.868014    32B3g   16.986781  
      32B2g   16.986781    33B2u   24.754345    33B3u   24.754345  
      33B3g   25.466560    33B2g   25.466560    49Ag    25.918358  
      49B1u   28.403752    50Ag    63.406678    50B1u   64.053545  

    Beta Occupied:                                                        

       1Ag   -92.009404     1B1u  -92.009399     2Ag    -9.008171  
       2B1u   -9.007735     3Ag    -6.691729     3B1u   -6.690758  
       1B3u   -6.678736     1B2u   -6.678736     1B2g   -6.678642  
       1B3g   -6.678642     4Ag    -1.041342     4B1u   -0.727486  
       5Ag    -0.493591     2B3u   -0.409337     2B2u   -0.409337  

    Beta Virtual:                                                         

       2B2g    0.003480     2B3g    0.003480     5B1u    0.041308  
       6Ag     0.065464     3B3u    0.071831     3B2u    0.071831  
       7Ag     0.089844     3B2g    0.093811     3B3g    0.093811  
       6B1u    0.129914     8Ag     0.171973     1B1g    0.171973  
       7B1u    0.196833     9Ag     0.212848     4B3u    0.229333  
       4B2u    0.229333     1Au     0.240727     8B1u    0.240727  
       4B2g    0.249825     4B3g    0.249825     9B1u    0.268692  
       5B3u    0.329658     5B2u    0.329658    10Ag     0.361090  
       5B2g    0.416838     5B3g    0.416838    11Ag     0.422222  
      10B1u    0.427182     6B2u    0.429886     6B3u    0.429886  
      12Ag     0.441669     2B1g    0.441669     7B3u    0.453804  
       7B2u    0.453804     2Au     0.526062    11B1u    0.526062  
      13Ag     0.526781     6B2g    0.533921     6B3g    0.533921  
      14Ag     0.540759     3B1g    0.540759     7B2g    0.570453  
       7B3g    0.570453    12B1u    0.584695     8B3u    0.645697  
       8B2u    0.645697    13B1u    0.705694     3Au     0.705694  
      14B1u    0.709615    15Ag     0.780876     8B2g    0.876764  
       8B3g    0.876764    15B1u    0.934360     9B3u    0.994542  
       9B2u    0.994542    16Ag     1.018085     4B1g    1.018085  
      17Ag     1.025713    10B2u    1.071786    10B3u    1.071786  
       9B2g    1.078678     9B3g    1.078678    18Ag     1.099873  
       5B1g    1.099873     4Au     1.172055    16B1u    1.172055  
      11B3u    1.176163    11B2u    1.176163     5Au     1.182883  
      17B1u    1.182883     6B1g    1.205483    19Ag     1.205483  
      18B1u    1.214144    12B3u    1.222662    12B2u    1.222662  
      20Ag     1.240382    10B3g    1.249645    10B2g    1.249645  
      13B3u    1.285133    13B2u    1.285133    11B2g    1.308697  
      11B3g    1.308697    21Ag     1.342077    19B1u    1.349854  
       6Au     1.349854     7B1g    1.365407    22Ag     1.365407  
      12B3g    1.397007    12B2g    1.397007    20B1u    1.471137  
      13B2g    1.515210    13B3g    1.515210    21B1u    1.606954  
      23Ag     1.706797    22B1u    1.770599     7Au     1.771656  
      23B1u    1.771656    14B3u    1.790274    14B2u    1.790274  
      14B2g    2.081165    14B3g    2.081165    24Ag     2.176841  
      24B1u    2.409949     8B1g    2.421618    25Ag     2.421618  
      15B3u    2.435257    15B2u    2.435257    16B3u    2.485791  
      16B2u    2.485791     9B1g    2.540314    26Ag     2.540314  
      27Ag     2.592919    17B3u    2.622010    17B2u    2.622010  
      18B3u    2.638536    18B2u    2.638536    15B3g    2.653322  
      15B2g    2.653322    10B1g    2.684590    28Ag     2.684590  
      16B2g    2.690724    16B3g    2.690724    11B1g    2.758659  
      29Ag     2.758659    25B1u    2.765693     8Au     2.765693  
      30Ag     2.765785     9Au     2.770478    26B1u    2.770478  
      17B2g    2.778456    17B3g    2.778456    12B1g    2.800234  
      31Ag     2.800234    27B1u    2.834347    10Au     2.834347  
      19B3u    2.851163    19B2u    2.851163    28B1u    2.870034  
      20B3u    2.912028    20B2u    2.912028    18B3g    2.917659  
      18B2g    2.917659    19B2g    2.997903    19B3g    2.997903  
      21B3u    3.002777    21B2u    3.002777    29B1u    3.046200  
      11Au     3.046200    30B1u    3.099399    12Au     3.101724  
      31B1u    3.101724    32Ag     3.195377    20B2g    3.243696  
      20B3g    3.243696    22B3u    3.421579    22B2u    3.421579  
      13B1g    3.422980    33Ag     3.422980    21B3g    3.542268  
      21B2g    3.542268    32B1u    3.584478    34Ag     3.716986  
      33B1u    4.004625    13Au     4.152829    34B1u    4.152829  
      22B2g    4.369442    22B3g    4.369442    23B3u    4.498630  
      23B2u    4.498630    23B2g    4.597055    23B3g    4.597055  
      35Ag     4.731758    24B3u    5.347006    24B2u    5.347006  
      35B1u    5.358200    14B1g    5.365237    36Ag     5.365237  
      24B3g    5.414736    24B2g    5.414736    25B3u    5.482741  
      25B2u    5.482741    37Ag     5.549822    36B1u    5.645018  
      14Au     5.645018    37B1u    5.777698    38Ag     5.807125  
      25B2g    5.870748    25B3g    5.870748    15B1g    5.895556  
      39Ag     5.895556    26B3u    5.998296    26B2u    5.998296  
      38B1u    6.005583    15Au     6.005583    40Ag     6.103338  
      16B1g    6.103338    41Ag     6.104817    27B3u    6.125024  
      27B2u    6.125024    17B1g    6.128977    42Ag     6.128977  
      39B1u    6.190363    16Au     6.190363    26B2g    6.198934  
      26B3g    6.198934    43Ag     6.207619    18B1g    6.207619  
      28B3u    6.218568    28B2u    6.218568    29B3u    6.223138  
      29B2u    6.223138    30B3u    6.234234    30B2u    6.234234  
      27B2g    6.295744    27B3g    6.295744    28B2g    6.313358  
      28B3g    6.313358    44Ag     6.395275    19B1g    6.395275  
      45Ag     6.396380    40B1u    6.412146    17Au     6.412146  
      41B1u    6.487044    42B1u    6.605769    18Au     6.605769  
      43B1u    6.631760    29B2g    6.682547    29B3g    6.682547  
      31B3u    6.941386    31B2u    6.941386    19Au     7.151779  
      44B1u    7.151779    45B1u    7.158533    30B2g    7.168568  
      30B3g    7.168568    31B2g    7.777287    31B3g    7.777287  
      46B1u    7.925731    46Ag     8.624672    47Ag    16.240811  
      20B1g   16.240811    47B1u   16.368591    20Au    16.368591  
      32B3u   16.419706    32B2u   16.419706    48Ag    16.797780  
      48B1u   16.874595    32B2g   16.995523    32B3g   16.995523  
      33B2u   24.775821    33B3u   24.775821    33B3g   25.487299  
      33B2g   25.487299    49Ag    25.922361    49B1u   28.407272  
      50Ag    63.414611    50B1u   64.061556  

    Final Occupation by Irrep:
             Ag   B1g   B2g   B3g    Au   B1u   B2u   B3u 
    DOCC [     5,    0,    1,    1,    0,    4,    2,    2 ]
    SOCC [     0,    0,    1,    1,    0,    0,    0,    0 ]

  @UHF Final Energy:  -795.10836565953014

   => Energetics <=

    Nuclear Repulsion Energy =             70.9072409920886599
    One-Electron Energy =               -1240.1633594796580837
    Two-Electron Energy =                 374.1477528280393017
    Total Energy =                       -795.1083656595301363

  UHF NO Occupations:
  HONO-2 :    2B2u 1.9878529
  HONO-1 :    2B3g 1.0000000
  HONO-0 :    2B2g 1.0000000
  LUNO+0 :    3B2u 0.0121471
  LUNO+1 :    3B3u 0.0121471
  LUNO+2 :    5B1u 0.0039064
  LUNO+3 :    6 Ag 0.0029468


Computation Completed


Properties will be evaluated at   0.000000,   0.000000,   0.000000 [a0]

Properties computed using the SCF density matrix

  Nuclear Dipole Moment: [e a0]
     X:     0.0000      Y:     0.0000      Z:     0.0000

  Electronic Dipole Moment: [e a0]
     X:     0.0000      Y:     0.0000      Z:     0.0000

  Dipole Moment: [e a0]
     X:     0.0000      Y:     0.0000      Z:     0.0000     Total:     0.0000

  Dipole Moment: [D]
     X:     0.0000      Y:     0.0000      Z:     0.0000     Total:     0.0000


*** tstop() called on n412-045.vsc4.prov at Fri Jan 22 07:46:44 2021
Module time:
	user time   =     192.37 seconds =       3.21 minutes
	system time =      10.45 seconds =       0.17 minutes
	total time  =        160 seconds =       2.67 minutes
Total time:
	user time   =     192.37 seconds =       3.21 minutes
	system time =      10.45 seconds =       0.17 minutes
	total time  =        160 seconds =       2.67 minutes

*** tstart() called on n412-045.vsc4.prov
*** at Fri Jan 22 07:46:44 2021


	Wfn Parameters:
	--------------------
	Wavefunction         = CCSD_T
	Number of irreps     = 8
	Number of MOs        = 272
	Number of active MOs = 262
	AO-Basis             = NONE
	Semicanonical        = false
	Reference            = UHF
	Print Level          = 1

	IRREP	# MOs	# FZDC	# DOCC	# SOCC	# VIRT	# FZVR
	-----	-----	------	------	------	------	------
	 Ag	   50	    3	    2	    0	    45	    0
	 B1g	   20	    0	    0	    0	    20	    0
	 B2g	   33	    1	    0	    1	    31	    0
	 B3g	   33	    1	    0	    1	    31	    0
	 Au	   20	    0	    0	    0	    20	    0
	 B1u	   50	    3	    1	    0	    46	    0
	 B2u	   33	    1	    1	    0	    31	    0
	 B3u	   33	    1	    1	    0	    31	    0
	Transforming integrals...
	IWL integrals will be deleted.
	(OO|OO)...
	Presorting SO-basis two-electron integrals.
	Sorting File: SO Ints (nn|nn) nbuckets = 1
	Constructing frozen core operators
	Starting AA/AB first half-transformation.
	Sorting AA/AB half-transformed integrals.
	Starting BB first half-transformation.
	Sorting BB half-transformed integrals.
	First half integral transformation complete.
	Starting AA second half-transformation.
	Starting AB second half-transformation.
	Starting BB second half-transformation.
	Two-electron integral transformation complete.
	(OO|OV)...
	Starting AA second half-transformation.
	Starting AB second half-transformation.
	Starting BB second half-transformation.
	Two-electron integral transformation complete.
	(OO|VV)...
	Starting AA second half-transformation.
	Starting AB second half-transformation.
	Starting BB second half-transformation.
	Two-electron integral transformation complete.
	(OV|OO)...
	Starting AA/AB first half-transformation.
	Sorting AA/AB half-transformed integrals.
	Starting BB first half-transformation.
	Sorting BB half-transformed integrals.
	First half integral transformation complete.
	Starting AA second half-transformation.
	Starting AB second half-transformation.
	Starting BB second half-transformation.
	Two-electron integral transformation complete.
	(OV|OV)...
	Starting AA second half-transformation.
	Starting AB second half-transformation.
	Starting BB second half-transformation.
	Two-electron integral transformation complete.
	(OV|VV)...
	Starting AA second half-transformation.
	Starting AB second half-transformation.
	Starting BB second half-transformation.
	Two-electron integral transformation complete.
	(VV|OO)...
	Starting AA/AB first half-transformation.
	Sorting AA/AB half-transformed integrals.
	Starting BB first half-transformation.
	Sorting BB half-transformed integrals.
	First half integral transformation complete.
	Starting AA second half-transformation.
	Starting AB second half-transformation.
	Starting BB second half-transformation.
	Two-electron integral transformation complete.
	(VV|OV)...
	Starting AA second half-transformation.
	Starting AB second half-transformation.
	Starting BB second half-transformation.
	Two-electron integral transformation complete.
	(VV|VV)...
	Starting AA second half-transformation.
	Starting AB second half-transformation.
	Starting BB second half-transformation.
	Two-electron integral transformation complete.
	Frozen core energy     =   -836.04537636152486

	Size of irrep 0 of <AB|CD> integrals:     18.190 (MW) /    145.522 (MB)
	Size of irrep 1 of <AB|CD> integrals:     14.003 (MW) /    112.021 (MB)
	Size of irrep 2 of <AB|CD> integrals:     16.492 (MW) /    131.934 (MB)
	Size of irrep 3 of <AB|CD> integrals:     16.492 (MW) /    131.934 (MB)
	Size of irrep 4 of <AB|CD> integrals:     14.003 (MW) /    112.021 (MB)
	Size of irrep 5 of <AB|CD> integrals:     19.290 (MW) /    154.317 (MB)
	Size of irrep 6 of <AB|CD> integrals:     16.492 (MW) /    131.934 (MB)
	Size of irrep 7 of <AB|CD> integrals:     16.492 (MW) /    131.934 (MB)
	Total:                                   131.452 (MW) /   1051.615 (MB)

	Size of irrep 0 of <ab|cd> integrals:     18.723 (MW) /    149.783 (MB)
	Size of irrep 1 of <ab|cd> integrals:     14.478 (MW) /    115.824 (MB)
	Size of irrep 2 of <ab|cd> integrals:     17.024 (MW) /    136.191 (MB)
	Size of irrep 3 of <ab|cd> integrals:     17.024 (MW) /    136.191 (MB)
	Size of irrep 4 of <ab|cd> integrals:     14.470 (MW) /    115.763 (MB)
	Size of irrep 5 of <ab|cd> integrals:     19.838 (MW) /    158.705 (MB)
	Size of irrep 6 of <ab|cd> integrals:     17.032 (MW) /    136.257 (MB)
	Size of irrep 7 of <ab|cd> integrals:     17.032 (MW) /    136.257 (MB)
	Total:                                   135.621 (MW) /   1084.972 (MB)

	Size of irrep 0 of <Ab|Cd> integrals:     78.269 (MW) /    626.155 (MB)
	Size of irrep 1 of <Ab|Cd> integrals:     56.942 (MW) /    455.537 (MB)
	Size of irrep 2 of <Ab|Cd> integrals:     67.027 (MW) /    536.216 (MB)
	Size of irrep 3 of <Ab|Cd> integrals:     67.027 (MW) /    536.216 (MB)
	Size of irrep 4 of <Ab|Cd> integrals:     56.942 (MW) /    455.537 (MB)
	Size of irrep 5 of <Ab|Cd> integrals:     78.252 (MW) /    626.014 (MB)
	Size of irrep 6 of <Ab|Cd> integrals:     67.043 (MW) /    536.347 (MB)
	Size of irrep 7 of <Ab|Cd> integrals:     67.043 (MW) /    536.347 (MB)
	Total:                                   538.546 (MW) /   4308.368 (MB)

	Size of irrep 0 of <IA|BC> integrals:      2.284 (MW) /     18.273 (MB)
	Size of irrep 1 of <IA|BC> integrals:      1.377 (MW) /     11.016 (MB)
	Size of irrep 2 of <IA|BC> integrals:      1.819 (MW) /     14.555 (MB)
	Size of irrep 3 of <IA|BC> integrals:      1.819 (MW) /     14.555 (MB)
	Size of irrep 4 of <IA|BC> integrals:      1.377 (MW) /     11.016 (MB)
	Size of irrep 5 of <IA|BC> integrals:      2.293 (MW) /     18.341 (MB)
	Size of irrep 6 of <IA|BC> integrals:      1.819 (MW) /     14.555 (MB)
	Size of irrep 7 of <IA|BC> integrals:      1.819 (MW) /     14.555 (MB)
	Total:                                    14.608 (MW) /    116.865 (MB)

	Size of irrep 0 of <ia|bc> integrals:      1.764 (MW) /     14.115 (MB)
	Size of irrep 1 of <ia|bc> integrals:      0.928 (MW) /      7.427 (MB)
	Size of irrep 2 of <ia|bc> integrals:      1.329 (MW) /     10.629 (MB)
	Size of irrep 3 of <ia|bc> integrals:      1.329 (MW) /     10.629 (MB)
	Size of irrep 4 of <ia|bc> integrals:      0.943 (MW) /      7.547 (MB)
	Size of irrep 5 of <ia|bc> integrals:      1.791 (MW) /     14.324 (MB)
	Size of irrep 6 of <ia|bc> integrals:      1.312 (MW) /     10.499 (MB)
	Size of irrep 7 of <ia|bc> integrals:      1.312 (MW) /     10.499 (MB)
	Total:                                    10.709 (MW) /     85.669 (MB)

	Size of irrep 0 of <Ia|Bc> integrals:      2.318 (MW) /     18.543 (MB)
	Size of irrep 1 of <Ia|Bc> integrals:      1.404 (MW) /     11.228 (MB)
	Size of irrep 2 of <Ia|Bc> integrals:      1.850 (MW) /     14.802 (MB)
	Size of irrep 3 of <Ia|Bc> integrals:      1.850 (MW) /     14.802 (MB)
	Size of irrep 4 of <Ia|Bc> integrals:      1.404 (MW) /     11.228 (MB)
	Size of irrep 5 of <Ia|Bc> integrals:      2.326 (MW) /     18.612 (MB)
	Size of irrep 6 of <Ia|Bc> integrals:      1.842 (MW) /     14.738 (MB)
	Size of irrep 7 of <Ia|Bc> integrals:      1.842 (MW) /     14.738 (MB)
	Total:                                    14.837 (MW) /    118.693 (MB)

	Size of irrep 0 of <iA|bC> integrals:      1.752 (MW) /     14.014 (MB)
	Size of irrep 1 of <iA|bC> integrals:      0.921 (MW) /      7.365 (MB)
	Size of irrep 2 of <iA|bC> integrals:      1.302 (MW) /     10.414 (MB)
	Size of irrep 3 of <iA|bC> integrals:      1.302 (MW) /     10.414 (MB)
	Size of irrep 4 of <iA|bC> integrals:      0.921 (MW) /      7.365 (MB)
	Size of irrep 5 of <iA|bC> integrals:      1.760 (MW) /     14.083 (MB)
	Size of irrep 6 of <iA|bC> integrals:      1.294 (MW) /     10.350 (MB)
	Size of irrep 7 of <iA|bC> integrals:      1.294 (MW) /     10.350 (MB)
	Total:                                    10.544 (MW) /     84.353 (MB)

	Size of irrep 0 of tIjAb amplitudes:       0.062 (MW) /      0.495 (MB)
	Size of irrep 1 of tIjAb amplitudes:       0.015 (MW) /      0.121 (MB)
	Size of irrep 2 of tIjAb amplitudes:       0.033 (MW) /      0.262 (MB)
	Size of irrep 3 of tIjAb amplitudes:       0.033 (MW) /      0.262 (MB)
	Size of irrep 4 of tIjAb amplitudes:       0.015 (MW) /      0.121 (MB)
	Size of irrep 5 of tIjAb amplitudes:       0.053 (MW) /      0.425 (MB)
	Size of irrep 6 of tIjAb amplitudes:       0.041 (MW) /      0.328 (MB)
	Size of irrep 7 of tIjAb amplitudes:       0.041 (MW) /      0.328 (MB)
	Total:                                     0.293 (MW) /      2.341 (MB)

	Nuclear Rep. energy          =     70.90724099208866
	SCF energy                   =   -795.10836565953014
	One-electron energy          =    -52.51229916957140
	Two-electron (AA) energy     =      6.51001150231684
	Two-electron (BB) energy     =      3.14431613986557
	Two-electron (AB) energy     =     12.88774123729438
	Two-electron energy          =     22.54206887947679
	Reference energy             =   -795.10836565953082

*** tstop() called on n412-045.vsc4.prov at Fri Jan 22 07:50:18 2021
Module time:
	user time   =      65.92 seconds =       1.10 minutes
	system time =      36.99 seconds =       0.62 minutes
	total time  =        214 seconds =       3.57 minutes
Total time:
	user time   =     258.29 seconds =       4.30 minutes
	system time =      47.44 seconds =       0.79 minutes
	total time  =        374 seconds =       6.23 minutes
            **************************
            *                        *
            *        CCENERGY        *
            *                        *
            **************************

    Nuclear Rep. energy (wfn)     =   70.907240992088660
    SCF energy          (wfn)     = -795.108365659530136
    Reference energy    (file100) = -795.108365659530818

    Input parameters:
    -----------------
    Wave function   =     CCSD_T
    Reference wfn   =     UHF
    Brueckner       =     No
    Memory (Mbytes) =     250000.0
    Maxiter         =     50
    R_Convergence   =     1.0e-07
    E_Convergence   =     1.0e-06
    Restart         =     Yes
    DIIS            =     Yes
    AO Basis        =     NONE
    ABCD            =     NEW
    Cache Level     =     2
    Cache Type      =     LRU
    Print Level     =     1
    Num. of threads =     48
    # Amps to Print =     10
    Print MP2 Amps? =     No
    Analyze T2 Amps =     No
    Print Pair Ener =     No
    Local CC        =     No
    SCS-MP2         =     False
    SCSN-MP2        =     False
    SCS-CCSD        =     False

MP2 correlation energy -0.3550576744850594
                Solving CC Amplitude Equations
                ------------------------------
  Iter             Energy              RMS        T1Diag      D1Diag    New D1Diag    D2Diag
  ----     ---------------------    ---------   ----------  ----------  ----------   --------
     0        -0.355057674485059    0.000e+00    0.000000    0.000000    0.000000    0.000000
     1        -0.361350286406108    8.276e-02    0.018146    0.000000    0.000000    0.000000
     2        -0.372430235342334    2.647e-02    0.021341    0.000000    0.000000    0.000000
     3        -0.374737061444092    1.307e-02    0.025810    0.000000    0.000000    0.000000
     4        -0.374551169974369    3.069e-03    0.026920    0.000000    0.000000    0.000000
     5        -0.374543859169557    8.556e-04    0.027161    0.000000    0.000000    0.000000
     6        -0.374539216654500    2.186e-04    0.027198    0.000000    0.000000    0.000000
     7        -0.374538815531542    5.470e-05    0.027199    0.000000    0.000000    0.000000
     8        -0.374540088635678    1.735e-05    0.027200    0.000000    0.000000    0.000000
     9        -0.374540078512742    4.768e-06    0.027200    0.000000    0.000000    0.000000
    10        -0.374540021220565    1.561e-06    0.027199    0.000000    0.000000    0.000000
    11        -0.374540040637408    4.403e-07    0.027199    0.000000    0.000000    0.000000
    12        -0.374540043878714    1.310e-07    0.027199    0.000000    0.000000    0.000000
    13        -0.374540048621175    4.073e-08    0.027199    0.000000    0.000000    0.000000

    Iterations converged.


    Largest TIA Amplitudes:
              5 196         0.0257782384
              6 227         0.0257782384
              6 225        -0.0217258942
              5 194        -0.0217258941
              1   7         0.0149338795
              1   4         0.0107222869
              1   3        -0.0096166517
              1   9        -0.0093006999
              1  11        -0.0089319714
              1   1        -0.0077841078

    Largest Tia Amplitudes:
              3 199        -0.0299423095
              4 230        -0.0299423094
              2 150        -0.0248688298
              2 151         0.0192017039
              2 153         0.0180031292
              3 196         0.0159544259
              4 227         0.0159544258
              3 197        -0.0141253762
              4 228        -0.0141253759
              3 200        -0.0132063789

    Largest TIJAB Amplitudes:
      6   5  46   6         0.0167882583
      3   1 196 148        -0.0159769199
      2   1 227 148        -0.0159769198
      2   1 227 149         0.0156251641
      3   1 196 149         0.0156251641
      3   2 153 128         0.0145774528
      3   2 227 196         0.0136915523
      5   2 128   6         0.0118180921
      6   3 153  46         0.0118180921
      5   2 153  46        -0.0118180921

    Largest Tijab Amplitudes:
      4   3  97  65         0.0716775294
      4   1 151  65         0.0255840799
      3   1 151  97         0.0255840798
      4   1 150  65        -0.0239785690
      3   1 150  97        -0.0239785689
      4   1 153  65         0.0211968185
      3   1 153  97         0.0211968184
      4   3  98  65        -0.0205490841
      4   3  97  66        -0.0205490838
      4   1 154  65        -0.0163769790

    Largest TIjAb Amplitudes:
      2   4 227  65         0.0364008061
      3   3 196  97         0.0364008060
      1   4 148  65         0.0292804393
      1   3 148  97         0.0292804392
      3   4 196  65         0.0262751461
      2   3 227  97         0.0262751460
      1   4 149  65        -0.0253049461
      1   3 149  97        -0.0253049460
      1   2 227  65        -0.0226549027
      1   2 196  97        -0.0226549026

    SCF energy       (wfn)                    = -795.108365659530136
    Reference energy (file100)                = -795.108365659530818

    Opposite-spin MP2 correlation energy      =   -0.266721371373004
    Same-spin MP2 correlation energy          =   -0.088336303112055
    Singles MP2 correlation energy            =   -0.000000000000000
    MP2 correlation energy                    =   -0.355057674485059
      * MP2 total energy                      = -795.463423334015829

    Opposite-spin CCSD correlation energy     =   -0.290691067467924
    Same-spin CCSD correlation energy         =   -0.083848981153241
    Singles CCSD correlation energy           =   -0.000000000000009
    CCSD correlation energy                   =   -0.374540048621175
      * CCSD total energy                     = -795.482905708151975

            **************************
            *                        *
            *        CCTRIPLES       *
            *                        *
            **************************


    Wave function   =    CCSD_T
    Reference wfn   =      UHF

    Nuclear Rep. energy (wfn)                =   70.907240992088660
    SCF energy          (wfn)                = -795.108365659530136
    Reference energy    (file100)            = -795.108365659530818
    CCSD energy         (file100)            =   -0.374540048621175
    Total CCSD energy   (file100)            = -795.482905708151975

    Number of ijk index combinations:
    Spin Case AAA:                                  35
    Spin Case BBB:                                  10
    Spin Case AAB:                                 105
    Spin Case ABB:                                  70
    AAA (T) energy                             =   -0.000636363614487
    BBB (T) energy                             =   -0.000747936330769
    AAB (T) energy                             =   -0.011612653179456
    ABB (T) energy                             =   -0.010855168885133
    (T) energy                                   =   -0.023852122009846
      * CCSD(T) total energy                     = -795.506757830161860


    Psi4 stopped on: Friday, 22 January 2021 07:54AM
    Psi4 wall time for execution: 0:10:24.17

*** Psi4 exiting successfully. Buy a developer a beer!
