
    -----------------------------------------------------------------------
          Psi4: An Open-Source Ab Initio Electronic Structure Package
                               Psi4 1.4a3.dev88 

                         Git: Rev {master} 262e345 


    D. G. A. Smith, L. A. Burns, A. C. Simmonett, R. M. Parrish,
    M. C. Schieber, R. Galvelis, P. Kraus, H. Kruse, R. Di Remigio,
    A. Alenaizan, A. M. James, S. Lehtola, J. P. Misiewicz, M. Scheurer,
    R. A. Shaw, J. B. Schriber, Y. Xie, Z. L. Glick, D. A. Sirianni,
    J. S. O'Brien, J. M. Waldrop, A. Kumar, E. G. Hohenstein,
    B. P. Pritchard, B. R. Brooks, H. F. Schaefer III, A. Yu. Sokolov,
    K. Patkowski, A. E. DePrince III, U. Bozkaya, R. A. King,
    F. A. Evangelista, J. M. Turney, T. D. Crawford, C. D. Sherrill,
    J. Chem. Phys. 152(18) 184108 (2020). https://doi.org/10.1063/5.0006002

                            Additional Code Authors
    E. T. Seidl, C. L. Janssen, E. F. Valeev, M. L. Leininger,
    J. F. Gonthier, R. M. Richard, H. R. McAlexander, M. Saitow, X. Wang,
    P. Verma, and M. H. Lechner

             Previous Authors, Complete List of Code Contributors,
                       and Citations for Specific Modules
    https://github.com/psi4/psi4/blob/master/codemeta.json
    https://github.com/psi4/psi4/graphs/contributors
    http://psicode.org/psi4manual/master/introduction.html#citing-psifour

    -----------------------------------------------------------------------


    Psi4 started on: Sunday, 24 January 2021 08:45PM

    Process ID: 183082
    Host:       n412-047.vsc4.prov
    PSIDATADIR: /home/fs71337/gallo4/psi4/eri-6/psi4/build/stage/share/psi4
    Memory:     500.0 MiB
    Threads:    48
    
  ==> Input File <==

--------------------------------------------------------------------------
# Any line starting with the # character is a comment line
memory 250000 mb
molecule molecule{
0 3
S          0.0000000000        0.0000000000        0.9552576298
S          0.0000000000        0.0000000000       -0.9552576298
}

set {
  reference uhf
  basis aug-cc-pV(6+d)Z
  scf_type OUT_OF_CORE
  freeze_core true
}

energy('ccsd(t)')
--------------------------------------------------------------------------

  Memory set to 232.831 GiB by Python driver.

Scratch directory: /binfl/lv71337/airmler/temp/

*** tstart() called on n412-047.vsc4.prov
*** at Sun Jan 24 20:45:01 2021

   => Loading Basis Set <=

    Name: AUG-CC-PV(6+D)Z
    Role: ORBITAL
    Keyword: BASIS
    atoms 1-2 entry S          line  1164 file /home/fs71337/gallo4/psi4/eri-6/psi4/build/stage/share/psi4/basis/aug-cc-pv_6pd_z.gbs 


         ---------------------------------------------------------
                                   SCF
               by Justin Turney, Rob Parrish, Andy Simmonett
                          and Daniel G. A. Smith
                              UHF Reference
                       48 Threads, 238418 MiB Core
         ---------------------------------------------------------

  ==> Geometry <==

    Molecular point group: d2h
    Full point group: D_inf_h

    Geometry (in Angstrom), charge = 0, multiplicity = 3:

       Center              X                  Y                   Z               Mass       
    ------------   -----------------  -----------------  -----------------  -----------------
         S            0.000000000000     0.000000000000     0.955257629800    31.972071174400
         S            0.000000000000     0.000000000000    -0.955257629800    31.972071174400

  Running in d2h symmetry.

  Rotational constants: A = ************  B =      0.28890  C =      0.28890 [cm^-1]
  Rotational constants: A = ************  B =   8661.14685  C =   8661.14685 [MHz]
  Nuclear repulsion =   70.907240992088660

  Charge       = 0
  Multiplicity = 3
  Electrons    = 32
  Nalpha       = 17
  Nbeta        = 15

  ==> Algorithm <==

  SCF Algorithm Type is OUT_OF_CORE.
  DIIS enabled.
  MOM disabled.
  Fractional occupation disabled.
  Guess Type is SAD.
  Energy threshold   = 1.00e-08
  Density threshold  = 1.00e-08
  Integral threshold = 1.00e-12

  ==> Primary Basis <==

  Basis Set: AUG-CC-PV(6+D)Z
    Blend: AUG-CC-PV(6+D)Z
    Number of shells: 76
    Number of basis function: 396
    Number of Cartesian functions: 608
    Spherical Harmonics?: true
    Max angular momentum: 6

  ==> Integral Setup <==

  ==> DiskJK: Disk-Based J/K Matrices <==

    J tasked:                  Yes
    K tasked:                  Yes
    wK tasked:                  No
    Memory [MiB]:           178813
    Schwarz Cutoff:          1E-12

  Minimum eigenvalue in the overlap matrix is 6.0411384636E-06.
  Reciprocal condition number of the overlap matrix is 8.7821683218E-07.
    Using symmetric orthogonalization.

  ==> Pre-Iterations <==

  SCF Guess: Superposition of Atomic Densities via on-the-fly atomic UHF (no occupation information).


 WARNING: Atomic UHF is not converging! Try casting from a smaller basis or call Rob at CCMST.
   -------------------------
    Irrep   Nso     Nmo    
   -------------------------
     Ag        70      70 
     B1g       32      32 
     B2g       48      48 
     B3g       48      48 
     Au        32      32 
     B1u       70      70 
     B2u       48      48 
     B3u       48      48 
   -------------------------
    Total     396     396
   -------------------------

  ==> Iterations <==

                        Total Energy        Delta E     RMS |[F,P]|

   @UHF iter SAD:   -79.46660162137793   -7.94666e+01   0.00000e+00 
    Occupation by irrep:
             Ag   B1g   B2g   B3g    Au   B1u   B2u   B3u 
    DOCC [     4,    0,    2,    1,    0,    4,    2,    2 ]
    SOCC [     1,    0,    0,    1,    0,    0,    0,    0 ]

   @UHF iter   1:  -750.63915283778329   -6.71173e+02   1.56550e-01 DIIS
    Occupation by irrep:
             Ag   B1g   B2g   B3g    Au   B1u   B2u   B3u 
    DOCC [     5,    0,    1,    1,    0,    4,    2,    2 ]
    SOCC [     0,    0,    1,    1,    0,    0,    0,    0 ]

   @UHF iter   2:  -771.71379110567887   -2.10746e+01   6.20788e-02 DIIS
   @UHF iter   3:  -792.15885666320980   -2.04451e+01   1.89463e-02 DIIS
   @UHF iter   4:  -794.92713410243277   -2.76828e+00   5.87020e-03 DIIS
   @UHF iter   5:  -795.10167053453210   -1.74536e-01   6.48300e-04 DIIS
   @UHF iter   6:  -795.10739789305921   -5.72736e-03   2.11106e-04 DIIS
   @UHF iter   7:  -795.10853860923362   -1.14072e-03   6.90479e-05 DIIS
   @UHF iter   8:  -795.10870097780219   -1.62369e-04   2.17074e-05 DIIS
   @UHF iter   9:  -795.10871900255324   -1.80248e-05   4.93018e-06 DIIS
   @UHF iter  10:  -795.10871985255687   -8.50004e-07   8.33363e-07 DIIS
   @UHF iter  11:  -795.10871986455925   -1.20024e-08   1.85643e-07 DIIS
   @UHF iter  12:  -795.10871986534153   -7.82279e-10   3.12242e-08 DIIS
   @UHF iter  13:  -795.10871986536529   -2.37605e-11   4.66315e-09 DIIS
  Energy and wave function converged.


  ==> Post-Iterations <==

   @Spin Contamination Metric:   6.253293290E-02
   @S^2 Expected:                2.000000000E+00
   @S^2 Observed:                2.062532933E+00
   @S   Expected:                1.000000000E+00
   @S   Observed:                1.000000000E+00

    Orbital Energies [Eh]
    ---------------------

    Alpha Occupied:                                                       

       1Ag   -92.021489     1B1u  -92.021486     2Ag    -9.020154  
       2B1u   -9.019822     1B2u   -6.707877     1B3u   -6.707877  
       1B3g   -6.707824     1B2g   -6.707824     3Ag    -6.696940  
       3B1u   -6.696019     4Ag    -1.106934     4B1u   -0.870790  
       2B2u   -0.533949     2B3u   -0.533949     5Ag    -0.532745  
       2B3g   -0.384300     2B2g   -0.384300  

    Alpha Virtual:                                                        

       5B1u    0.034952     6Ag     0.056739     3B2u    0.060409  
       3B3u    0.060409     3B3g    0.078355     3B2g    0.078355  
       7Ag     0.084188     6B1u    0.105782     1B1g    0.155135  
       8Ag     0.155135     7B1u    0.170344     9Ag     0.194509  
       4B3u    0.201510     4B2u    0.201510     1Au     0.209696  
       8B1u    0.209696     4B3g    0.216603     4B2g    0.216603  
       9B1u    0.233177     5B2u    0.259121     5B3u    0.259121  
      10Ag     0.298239     5B3g    0.336264     5B2g    0.336264  
      10B1u    0.353418    11Ag     0.361432     6B2u    0.374777  
       6B3u    0.374777     2B1g    0.384614    12Ag     0.384614  
       7B3u    0.401235     7B2u    0.401235     2Au     0.431936  
      11B1u    0.431936     3B1g    0.492348    13Ag     0.492348  
       6B2g    0.495971     6B3g    0.495971    14Ag     0.496958  
      12B1u    0.500463     7B2g    0.508551     7B3g    0.508551  
       8B2u    0.570241     8B3u    0.570241    15Ag     0.613182  
       3Au     0.624026    13B1u    0.624026    14B1u    0.629093  
       8B3g    0.753832     8B2g    0.753832     9B2u    0.785098  
       9B3u    0.785098     4B1g    0.814911    16Ag     0.814911  
      15B1u    0.820327    10B3u    0.900033    10B2u    0.900033  
      11B2u    0.935571    11B3u    0.935571     4Au     0.948157  
      16B1u    0.948157    17B1u    0.948913     5Au     0.948913  
      17Ag     0.952506     5B1g    0.969477    18Ag     0.969477  
       9B3g    0.979351     9B2g    0.979351    18B1u    0.982326  
      19Ag     1.040436    10B3g    1.065970    10B2g    1.065970  
      11B2g    1.072256    11B3g    1.072256    12B2u    1.078364  
      12B3u    1.078364     6B1g    1.095074    20Ag     1.095074  
       7B1g    1.137217    21Ag     1.137217    13B2u    1.143383  
      13B3u    1.143383    22Ag     1.160767     6Au     1.172540  
      19B1u    1.172540    23Ag     1.201553    12B3g    1.215014  
      12B2g    1.215014    20B1u    1.227307    13B3g    1.233492  
      13B2g    1.233492    21B1u    1.354020    14B2u    1.545032  
      14B3u    1.545032    22B1u    1.577203     7Au     1.597741  
      23B1u    1.597741    14B2g    1.865979    14B3g    1.865979  
      15B2u    1.874480    15B3u    1.874480    24Ag     1.875027  
      25Ag     1.885096     8B1g    1.885096    16B3u    1.990256  
      16B2u    1.990256    15B2g    2.035422    15B3g    2.035422  
       9B1g    2.049954    26Ag     2.049954    27Ag     2.106835  
      10B1g    2.106835    24B1u    2.112028     8Au     2.149146  
      25B1u    2.149146    17B2u    2.155080    17B3u    2.155080  
      26B1u    2.198178     9Au     2.198178    16B2g    2.206223  
      16B3g    2.206223    28Ag     2.206642    18B3u    2.215015  
      18B2u    2.215015    19B2u    2.248969    19B3u    2.248969  
      17B3g    2.259119    17B2g    2.259119    27B1u    2.260588  
      29Ag     2.263089    11B1g    2.263089    10Au     2.289711  
      28B1u    2.289711    29B1u    2.300711    11Au     2.300711  
      30Ag     2.316729    12B1g    2.364658    31Ag     2.364658  
      20B2u    2.383705    20B3u    2.383705    21B2u    2.403253  
      21B3u    2.403253    18B3g    2.467312    18B2g    2.467312  
      19B3g    2.467611    19B2g    2.467611    30B1u    2.471361  
      20B3g    2.577277    20B2g    2.577277    22B2u    2.606948  
      22B3u    2.606948    32Ag     2.649712    12Au     2.675767  
      31B1u    2.675767    21B3g    2.760403    21B2g    2.760403  
      33Ag     2.761159    32B1u    2.810290    13B1g    2.830511  
      34Ag     2.830511    22B3g    3.053437    22B2g    3.053437  
      33B1u    3.201566    35Ag     3.323376    13Au     3.390772  
      34B1u    3.390772    23B2u    3.405897    23B3u    3.405897  
      23B3g    3.895397    23B2g    3.895397    24B2u    3.910917  
      24B3u    3.910917    14B1g    3.967872    36Ag     3.967872  
      25B2u    4.035697    25B3u    4.035697    37Ag     4.042525  
      15B1g    4.042525    38Ag     4.096901    16B1g    4.096901  
      14Au     4.140300    35B1u    4.140300    36B1u    4.161988  
      26B2u    4.238980    26B3u    4.238980    39Ag     4.246837  
      17B1g    4.298935    40Ag     4.298935    27B2u    4.342090  
      27B3u    4.342090    37B1u    4.348775    15Au     4.348775  
      16Au     4.367350    38B1u    4.367350    41Ag     4.370114  
      18B1g    4.370114    24B3g    4.373746    24B2g    4.373746  
      25B2g    4.438551    25B3g    4.438551    28B2u    4.442963  
      28B3u    4.442963    26B2g    4.501862    26B3g    4.501862  
      27B2g    4.503109    27B3g    4.503109    29B3u    4.503417  
      29B2u    4.503417    39B1u    4.606408    17Au     4.606408  
      42Ag     4.626338    43Ag     4.627707    19B1g    4.627707  
      40B1u    4.664541    44Ag     4.724109    30B3u    4.760386  
      30B2u    4.760386    31B2u    4.770489    31B3u    4.770489  
      41B1u    4.778310    18Au     4.778310    28B3g    4.869351  
      28B2g    4.869351    42B1u    4.896097    19Au     4.896097  
      43B1u    4.907948    20B1g    5.024529    45Ag     5.024529  
      44B1u    5.044212    20Au     5.044212    29B3g    5.073464  
      29B2g    5.073464    32B2u    5.085357    32B3u    5.085357  
      45B1u    5.129968    30B2g    5.154869    30B3g    5.154869  
      21B1g    5.192799    46Ag     5.192799    31B2g    5.370414  
      31B3g    5.370414    47Ag     5.378329    33B2u    5.382034  
      33B3u    5.382034    46B1u    5.399554    48Ag     5.511170  
      49Ag     5.602986    22B1g    5.602986    21Au     5.666699  
      47B1u    5.666699    32B2g    5.732861    32B3g    5.732861  
      33B2g    5.954967    33B3g    5.954967    48B1u    6.091758  
      50Ag     6.171994    34B2u    6.500457    34B3u    6.500457  
      22Au     6.725816    49B1u    6.725816    34B3g    6.740699  
      34B2g    6.740699    35B2u    7.274951    35B3u    7.274951  
      50B1u    7.402092    35B3g    7.959717    35B2g    7.959717  
      51Ag     8.416045    36B2u    8.587220    36B3u    8.587220  
      23B1g    8.617243    52Ag     8.617243    37B2u    8.623901  
      37B3u    8.623901    53Ag     8.644005    24B1g    8.644005  
      23Au     8.675171    51B1u    8.675171    54Ag     8.762686  
      36B3g    8.798672    36B2g    8.798672    38B3u    8.806667  
      38B2u    8.806667    25B1g    8.848506    55Ag     8.848506  
      26B1g    8.862117    56Ag     8.862117    39B2u    8.878624  
      39B3u    8.878624    24Au     8.896784    52B1u    8.896784  
      53B1u    8.927327    40B3u    8.936031    40B2u    8.936031  
      57Ag     8.946980    27B1g    8.946980    37B2g    8.999531  
      37B3g    8.999531    54B1u    9.031297    25Au     9.031297  
      26Au     9.219661    55B1u    9.219661    58Ag     9.227868  
      28B1g    9.227868    41B2u    9.234769    41B3u    9.234769  
      38B2g    9.296935    38B3g    9.296935    39B2g    9.356924  
      39B3g    9.356924    42B3u    9.375879    42B2u    9.375879  
      59Ag     9.389603    56B1u    9.404983    57B1u    9.429988  
      27Au     9.429988    58B1u    9.560567    28Au     9.560567  
      40B2g    9.565888    40B3g    9.565888    41B3g    9.608325  
      41B2g    9.608325    60Ag     9.670669    29B1g    9.670669  
      42B2g    9.750839    42B3g    9.750839    43B3u    9.841929  
      43B2u    9.841929    59B1u    9.904369    61Ag    10.027912  
      60B1u   10.125756    29Au    10.125756    61B1u   10.209142  
      30B1g   10.644439    62Ag    10.644439    44B2u   10.724749  
      44B3u   10.724749    43B3g   10.811906    43B2g   10.811906  
      44B2g   10.848202    44B3g   10.848202    63Ag    10.854495  
      31B1g   10.854495    62B1u   10.983182    64Ag    11.008842  
      30Au    11.089697    63B1u   11.089697    45B3u   11.090551  
      45B2u   11.090551    31Au    11.644738    64B1u   11.644738  
      45B2g   11.833502    45B3g   11.833502    46B3u   11.833552  
      46B2u   11.833552    65B1u   12.462680    46B2g   12.476687  
      46B3g   12.476687    65Ag    12.639794    66Ag    13.455489  
      66B1u   15.572428    47B2u   29.773889    47B3u   29.773889  
      47B3g   30.447715    47B2g   30.447715    32B1g   30.652421  
      67Ag    30.652421    68Ag    30.883789    32Au    30.992269  
      67B1u   30.992269    48B2u   31.086408    48B3u   31.086408  
      68B1u   31.504984    48B3g   31.564555    48B2g   31.564555  
      69Ag    33.309879    69B1u   33.429501    70Ag   245.294397  
      70B1u  248.051326  

    Beta Occupied:                                                        

       1Ag   -92.009268     1B1u  -92.009263     2Ag    -9.008007  
       2B1u   -9.007571     3Ag    -6.691586     3B1u   -6.690614  
       1B3u   -6.678549     1B2u   -6.678549     1B2g   -6.678454  
       1B3g   -6.678454     4Ag    -1.041262     4B1u   -0.727434  
       5Ag    -0.493570     2B3u   -0.409327     2B2u   -0.409327  

    Beta Virtual:                                                         

       2B2g    0.003470     2B3g    0.003470     5B1u    0.036627  
       6Ag     0.057788     3B3u    0.061655     3B2u    0.061655  
       7Ag     0.083060     3B2g    0.084494     3B3g    0.084494  
       6B1u    0.116637     1B1g    0.160263     8Ag     0.160263  
       7B1u    0.179590     9Ag     0.197272     4B2u    0.208004  
       4B3u    0.208004     8B1u    0.215062     1Au     0.215062  
       4B2g    0.224252     4B3g    0.224252     9B1u    0.242817  
       5B3u    0.265383     5B2u    0.265383    10Ag     0.298358  
       5B2g    0.354351     5B3g    0.354351    10B1u    0.360048  
      11Ag     0.367156     6B3u    0.402296     6B2u    0.402296  
       2B1g    0.409458    12Ag     0.409458     7B3u    0.412621  
       7B2u    0.412621     2Au     0.467262    11B1u    0.467262  
       6B2g    0.499408     6B3g    0.499408    13Ag     0.502851  
       3B1g    0.502851    12B1u    0.508357    14Ag     0.508499  
       7B3g    0.515658     7B2g    0.515658     8B3u    0.578656  
       8B2u    0.578656    15Ag     0.623812    13B1u    0.635875  
       3Au     0.658798    14B1u    0.658798     8B2g    0.781877  
       8B3g    0.781877     9B3u    0.793806     9B2u    0.793806  
      16Ag     0.815997     4B1g    0.815997    15B1u    0.829912  
      10B3u    0.899437    10B2u    0.899437    16B1u    0.952305  
       4Au     0.952305    17Ag     0.962410    11B3u    0.966640  
      11B2u    0.966640    17B1u    0.967377     5Au     0.967377  
      18Ag     0.989350     5B1g    0.989350    18B1u    0.990004  
       9B2g    1.010333     9B3g    1.010333    19Ag     1.045357  
      10B3g    1.070521    10B2g    1.070521    11B2g    1.079690  
      11B3g    1.079690    12B2u    1.095042    12B3u    1.095042  
      20Ag     1.108487     6B1g    1.108487    13B3u    1.151274  
      13B2u    1.151274     7B1g    1.158842    21Ag     1.158842  
      22Ag     1.166654     6Au     1.202372    19B1u    1.202372  
      23Ag     1.214855    12B2g    1.231763    12B3g    1.231763  
      20B1u    1.234534    13B3g    1.251504    13B2g    1.251504  
      21B1u    1.372745    14B3u    1.555525    14B2u    1.555525  
      22B1u    1.585407    23B1u    1.610592     7Au     1.610592  
      14B2g    1.876990    14B3g    1.876990    15B2u    1.878234  
      15B3u    1.878234    24Ag     1.880776    25Ag     1.884977  
       8B1g    1.884977    16B3u    1.992583    16B2u    1.992583  
      15B2g    2.041425    15B3g    2.041425     9B1g    2.064640  
      26Ag     2.064640    27Ag     2.112123    10B1g    2.112123  
      24B1u    2.129686    17B3u    2.164058    17B2u    2.164058  
      25B1u    2.164919     8Au     2.164919    16B2g    2.213544  
      16B3g    2.213544    26B1u    2.214650     9Au     2.214650  
      28Ag     2.220994    18B3u    2.221653    18B2u    2.221653  
      19B3u    2.257716    19B2u    2.257716    27B1u    2.266823  
      17B3g    2.270273    17B2g    2.270273    29Ag     2.275747  
      11B1g    2.275747    10Au     2.298362    28B1u    2.298362  
      29B1u    2.305304    11Au     2.305304    30Ag     2.323995  
      12B1g    2.385713    31Ag     2.385713    20B3u    2.406882  
      20B2u    2.406882    21B2u    2.438822    21B3u    2.438822  
      30B1u    2.474076    18B2g    2.491909    18B3g    2.491909  
      19B3g    2.501357    19B2g    2.501357    20B2g    2.591667  
      20B3g    2.591667    22B3u    2.624547    22B2u    2.624547  
      32Ag     2.661619    31B1u    2.697475    12Au     2.697475  
      33Ag     2.765781    21B3g    2.767250    21B2g    2.767250  
      32B1u    2.822470    34Ag     2.843194    13B1g    2.843194  
      22B2g    3.068300    22B3g    3.068300    33B1u    3.207970  
      35Ag     3.326553    13Au     3.400195    34B1u    3.400195  
      23B3u    3.413642    23B2u    3.413642    23B2g    3.904335  
      23B3g    3.904335    24B2u    3.915614    24B3u    3.915614  
      14B1g    3.968570    36Ag     3.968570    25B2u    4.038088  
      25B3u    4.038088    37Ag     4.051225    15B1g    4.051225  
      38Ag     4.100414    16B1g    4.100414    14Au     4.149752  
      35B1u    4.149752    36B1u    4.177937    26B3u    4.242893  
      26B2u    4.242893    39Ag     4.253579    17B1g    4.323581  
      40Ag     4.323581    27B2u    4.358598    27B3u    4.358598  
      37B1u    4.366862    15Au     4.366862    24B3g    4.380291  
      24B2g    4.380291    41Ag     4.384296    18B1g    4.384296  
      16Au     4.392311    38B1u    4.392311    25B2g    4.455999  
      25B3g    4.455999    28B3u    4.460033    28B2u    4.460033  
      26B2g    4.511582    26B3g    4.511582    29B3u    4.516497  
      29B2u    4.516497    27B2g    4.520391    27B3g    4.520391  
      39B1u    4.619121    17Au     4.619121    42Ag     4.633923  
      43Ag     4.637894    19B1g    4.637894    40B1u    4.672244  
      44Ag     4.744703    30B3u    4.766056    30B2u    4.766056  
      31B2u    4.779181    31B3u    4.779181    41B1u    4.784456  
      18Au     4.784456    28B3g    4.878933    28B2g    4.878933  
      42B1u    4.902521    19Au     4.902521    43B1u    4.915582  
      20B1g    5.042537    45Ag     5.042537    44B1u    5.058482  
      20Au     5.058482    29B3g    5.097752    29B2g    5.097752  
      32B2u    5.112638    32B3u    5.112638    45B1u    5.142357  
      30B2g    5.163656    30B3g    5.163656    46Ag     5.208946  
      21B1g    5.208946    31B2g    5.378486    31B3g    5.378486  
      47Ag     5.383697    33B3u    5.393074    33B2u    5.393074  
      46B1u    5.404260    48Ag     5.518272    49Ag     5.610291  
      22B1g    5.610291    21Au     5.678316    47B1u    5.678316  
      32B2g    5.742077    32B3g    5.742077    33B2g    5.968373  
      33B3g    5.968373    48B1u    6.100453    50Ag     6.177848  
      34B3u    6.512221    34B2u    6.512221    22Au     6.737458  
      49B1u    6.737458    34B2g    6.753584    34B3g    6.753584  
      35B3u    7.293972    35B2u    7.293972    50B1u    7.407432  
      35B2g    7.973953    35B3g    7.973953    51Ag     8.421285  
      36B3u    8.590722    36B2u    8.590722    37B2u    8.637643  
      37B3u    8.637643    23B1g    8.637846    52Ag     8.637846  
      53Ag     8.649389    24B1g    8.649389    23Au     8.695188  
      51B1u    8.695188    54Ag     8.768806    36B3g    8.811983  
      36B2g    8.811983    38B3u    8.819758    38B2u    8.819758  
      55Ag     8.865424    25B1g    8.865424    26B1g    8.871481  
      56Ag     8.871481    39B2u    8.885876    39B3u    8.885876  
      24Au     8.913649    52B1u    8.913649    53B1u    8.933629  
      40B3u    8.946824    40B2u    8.946824    57Ag     8.957498  
      27B1g    8.957498    37B2g    9.011814    37B3g    9.011814  
      54B1u    9.040414    25Au     9.040414    26Au     9.228899  
      55B1u    9.228899    58Ag     9.243798    28B1g    9.243798  
      41B2u    9.255231    41B3u    9.255231    38B2g    9.317821  
      38B3g    9.317821    39B2g    9.364067    39B3g    9.364067  
      42B2u    9.388347    42B3u    9.388347    59Ag     9.396495  
      56B1u    9.412683    57B1u    9.446033    27Au     9.446033  
      58B1u    9.568263    28Au     9.568263    40B2g    9.575184  
      40B3g    9.575184    41B2g    9.614524    41B3g    9.614524  
      60Ag     9.680599    29B1g    9.680599    42B2g    9.761522  
      42B3g    9.761522    43B3u    9.850777    43B2u    9.850777  
      59B1u    9.911174    61Ag    10.035184    60B1u   10.136225  
      29Au    10.136225    61B1u   10.215991    30B1g   10.658874  
      62Ag    10.658874    44B2u   10.735175    44B3u   10.735175  
      43B3g   10.822087    43B2g   10.822087    44B2g   10.857021  
      44B3g   10.857021    63Ag    10.860637    31B1g   10.860637  
      62B1u   10.988120    64Ag    11.015458    45B3u   11.096035  
      45B2u   11.096035    30Au    11.100378    63B1u   11.100378  
      31Au    11.652259    64B1u   11.652259    46B3u   11.838646  
      46B2u   11.838646    45B2g   11.840027    45B3g   11.840027  
      65B1u   12.468643    46B2g   12.481357    46B3g   12.481357  
      65Ag    12.643775    66Ag    13.465176    66B1u   15.580227  
      47B2u   29.791445    47B3u   29.791445    47B3g   30.463184  
      47B2g   30.463184    32B1g   30.669618    67Ag    30.669618  
      68Ag    30.890806    32Au    31.009267    67B1u   31.009267  
      48B3u   31.096274    48B2u   31.096274    68B1u   31.511904  
      48B2g   31.575803    48B3g   31.575803    69Ag    33.313487  
      69B1u   33.433118    70Ag   245.299168    70B1u  248.056103  

    Final Occupation by Irrep:
             Ag   B1g   B2g   B3g    Au   B1u   B2u   B3u 
    DOCC [     5,    0,    1,    1,    0,    4,    2,    2 ]
    SOCC [     0,    0,    1,    1,    0,    0,    0,    0 ]

  @UHF Final Energy:  -795.10871986536529

   => Energetics <=

    Nuclear Repulsion Energy =             70.9072409920886599
    One-Electron Energy =               -1240.1664078422913917
    Two-Electron Energy =                 374.1504469848374583
    Total Energy =                       -795.1087198653652877

  UHF NO Occupations:
  HONO-2 :    2B3u 1.9878260
  HONO-1 :    2B2g 1.0000000
  HONO-0 :    2B3g 1.0000000
  LUNO+0 :    3B3u 0.0121740
  LUNO+1 :    3B2u 0.0121740
  LUNO+2 :    5B1u 0.0039113
  LUNO+3 :    6 Ag 0.0029538


Computation Completed


Properties will be evaluated at   0.000000,   0.000000,   0.000000 [a0]

Properties computed using the SCF density matrix

  Nuclear Dipole Moment: [e a0]
     X:     0.0000      Y:     0.0000      Z:     0.0000

  Electronic Dipole Moment: [e a0]
     X:     0.0000      Y:     0.0000      Z:     0.0000

  Dipole Moment: [e a0]
     X:     0.0000      Y:     0.0000      Z:     0.0000     Total:     0.0000

  Dipole Moment: [D]
     X:     0.0000      Y:     0.0000      Z:     0.0000     Total:     0.0000


*** tstop() called on n412-047.vsc4.prov at Sun Jan 24 20:57:52 2021
Module time:
	user time   =     710.28 seconds =      11.84 minutes
	system time =      42.86 seconds =       0.71 minutes
	total time  =        771 seconds =      12.85 minutes
Total time:
	user time   =     710.28 seconds =      11.84 minutes
	system time =      42.86 seconds =       0.71 minutes
	total time  =        771 seconds =      12.85 minutes

*** tstart() called on n412-047.vsc4.prov
*** at Sun Jan 24 20:57:52 2021


	Wfn Parameters:
	--------------------
	Wavefunction         = CCSD_T
	Number of irreps     = 8
	Number of MOs        = 396
	Number of active MOs = 386
	AO-Basis             = NONE
	Semicanonical        = false
	Reference            = UHF
	Print Level          = 1

	IRREP	# MOs	# FZDC	# DOCC	# SOCC	# VIRT	# FZVR
	-----	-----	------	------	------	------	------
	 Ag	   70	    3	    2	    0	    65	    0
	 B1g	   32	    0	    0	    0	    32	    0
	 B2g	   48	    1	    0	    1	    46	    0
	 B3g	   48	    1	    0	    1	    46	    0
	 Au	   32	    0	    0	    0	    32	    0
	 B1u	   70	    3	    1	    0	    66	    0
	 B2u	   48	    1	    1	    0	    46	    0
	 B3u	   48	    1	    1	    0	    46	    0
	Transforming integrals...
	IWL integrals will be deleted.
	(OO|OO)...
	Presorting SO-basis two-electron integrals.
	Sorting File: SO Ints (nn|nn) nbuckets = 1
	Constructing frozen core operators
	Starting AA/AB first half-transformation.
	Sorting AA/AB half-transformed integrals.
	Starting BB first half-transformation.
	Sorting BB half-transformed integrals.
	First half integral transformation complete.
	Starting AA second half-transformation.
	Starting AB second half-transformation.
	Starting BB second half-transformation.
	Two-electron integral transformation complete.
	(OO|OV)...
	Starting AA second half-transformation.
	Starting AB second half-transformation.
	Starting BB second half-transformation.
	Two-electron integral transformation complete.
	(OO|VV)...
	Starting AA second half-transformation.
	Starting AB second half-transformation.
	Starting BB second half-transformation.
	Two-electron integral transformation complete.
	(OV|OO)...
	Starting AA/AB first half-transformation.
	Sorting AA/AB half-transformed integrals.
	Starting BB first half-transformation.
	Sorting BB half-transformed integrals.
	First half integral transformation complete.
	Starting AA second half-transformation.
	Starting AB second half-transformation.
	Starting BB second half-transformation.
	Two-electron integral transformation complete.
	(OV|OV)...
	Starting AA second half-transformation.
	Starting AB second half-transformation.
	Starting BB second half-transformation.
	Two-electron integral transformation complete.
	(OV|VV)...
	Starting AA second half-transformation.
	Starting AB second half-transformation.
	Starting BB second half-transformation.
	Two-electron integral transformation complete.
	(VV|OO)...
	Starting AA/AB first half-transformation.
	Sorting AA/AB half-transformed integrals.
	Starting BB first half-transformation.
	Sorting BB half-transformed integrals.
	First half integral transformation complete.
	Starting AA second half-transformation.
	Starting AB second half-transformation.
	Starting BB second half-transformation.
	Two-electron integral transformation complete.
	(VV|OV)...
	Starting AA second half-transformation.
	Starting AB second half-transformation.
	Starting BB second half-transformation.
	Two-electron integral transformation complete.
	(VV|VV)...
	Starting AA second half-transformation.
	Starting AB second half-transformation.
	Starting BB second half-transformation.
	Two-electron integral transformation complete.
	Frozen core energy     =   -836.04557014849320

	Size of irrep 0 of <AB|CD> integrals:     87.553 (MW) /    700.428 (MB)
	Size of irrep 1 of <AB|CD> integrals:     70.964 (MW) /    567.710 (MB)
	Size of irrep 2 of <AB|CD> integrals:     80.461 (MW) /    643.687 (MB)
	Size of irrep 3 of <AB|CD> integrals:     80.461 (MW) /    643.687 (MB)
	Size of irrep 4 of <AB|CD> integrals:     70.964 (MW) /    567.710 (MB)
	Size of irrep 5 of <AB|CD> integrals:     91.126 (MW) /    729.009 (MB)
	Size of irrep 6 of <AB|CD> integrals:     80.461 (MW) /    643.687 (MB)
	Size of irrep 7 of <AB|CD> integrals:     80.461 (MW) /    643.687 (MB)
	Total:                                   642.451 (MW) /   5139.606 (MB)

	Size of irrep 0 of <ab|cd> integrals:     89.284 (MW) /    714.269 (MB)
	Size of irrep 1 of <ab|cd> integrals:     72.539 (MW) /    580.314 (MB)
	Size of irrep 2 of <ab|cd> integrals:     82.210 (MW) /    657.684 (MB)
	Size of irrep 3 of <ab|cd> integrals:     82.210 (MW) /    657.684 (MB)
	Size of irrep 4 of <ab|cd> integrals:     72.522 (MW) /    580.178 (MB)
	Size of irrep 5 of <ab|cd> integrals:     92.891 (MW) /    743.128 (MB)
	Size of irrep 6 of <ab|cd> integrals:     82.229 (MW) /    657.829 (MB)
	Size of irrep 7 of <ab|cd> integrals:     82.229 (MW) /    657.829 (MB)
	Total:                                   656.114 (MW) /   5248.915 (MB)

	Size of irrep 0 of <Ab|Cd> integrals:    368.064 (MW) /   2944.514 (MB)
	Size of irrep 1 of <Ab|Cd> integrals:    286.964 (MW) /   2295.709 (MB)
	Size of irrep 2 of <Ab|Cd> integrals:    325.333 (MW) /   2602.667 (MB)
	Size of irrep 3 of <Ab|Cd> integrals:    325.333 (MW) /   2602.667 (MB)
	Size of irrep 4 of <Ab|Cd> integrals:    286.964 (MW) /   2295.709 (MB)
	Size of irrep 5 of <Ab|Cd> integrals:    368.026 (MW) /   2944.207 (MB)
	Size of irrep 6 of <Ab|Cd> integrals:    325.369 (MW) /   2602.956 (MB)
	Size of irrep 7 of <Ab|Cd> integrals:    325.369 (MW) /   2602.956 (MB)
	Total:                                  2611.423 (MW) /  20891.383 (MB)

	Size of irrep 0 of <IA|BC> integrals:      7.255 (MW) /     58.043 (MB)
	Size of irrep 1 of <IA|BC> integrals:      4.717 (MW) /     37.740 (MB)
	Size of irrep 2 of <IA|BC> integrals:      5.974 (MW) /     47.792 (MB)
	Size of irrep 3 of <IA|BC> integrals:      5.974 (MW) /     47.792 (MB)
	Size of irrep 4 of <IA|BC> integrals:      4.717 (MW) /     37.740 (MB)
	Size of irrep 5 of <IA|BC> integrals:      7.274 (MW) /     58.192 (MB)
	Size of irrep 6 of <IA|BC> integrals:      5.974 (MW) /     47.792 (MB)
	Size of irrep 7 of <IA|BC> integrals:      5.974 (MW) /     47.792 (MB)
	Total:                                    47.860 (MW) /    382.883 (MB)

	Size of irrep 0 of <ia|bc> integrals:      5.552 (MW) /     44.419 (MB)
	Size of irrep 1 of <ia|bc> integrals:      3.202 (MW) /     25.619 (MB)
	Size of irrep 2 of <ia|bc> integrals:      4.316 (MW) /     34.527 (MB)
	Size of irrep 3 of <ia|bc> integrals:      4.316 (MW) /     34.527 (MB)
	Size of irrep 4 of <ia|bc> integrals:      3.236 (MW) /     25.889 (MB)
	Size of irrep 5 of <ia|bc> integrals:      5.609 (MW) /     44.875 (MB)
	Size of irrep 6 of <ia|bc> integrals:      4.280 (MW) /     34.241 (MB)
	Size of irrep 7 of <ia|bc> integrals:      4.280 (MW) /     34.241 (MB)
	Total:                                    34.792 (MW) /    278.337 (MB)

	Size of irrep 0 of <Ia|Bc> integrals:      7.329 (MW) /     58.629 (MB)
	Size of irrep 1 of <Ia|Bc> integrals:      4.777 (MW) /     38.217 (MB)
	Size of irrep 2 of <Ia|Bc> integrals:      6.042 (MW) /     48.339 (MB)
	Size of irrep 3 of <Ia|Bc> integrals:      6.042 (MW) /     48.339 (MB)
	Size of irrep 4 of <Ia|Bc> integrals:      4.777 (MW) /     38.217 (MB)
	Size of irrep 5 of <Ia|Bc> integrals:      7.347 (MW) /     58.780 (MB)
	Size of irrep 6 of <Ia|Bc> integrals:      6.025 (MW) /     48.198 (MB)
	Size of irrep 7 of <Ia|Bc> integrals:      6.025 (MW) /     48.198 (MB)
	Total:                                    48.364 (MW) /    386.916 (MB)

	Size of irrep 0 of <iA|bC> integrals:      5.525 (MW) /     44.202 (MB)
	Size of irrep 1 of <iA|bC> integrals:      3.185 (MW) /     25.478 (MB)
	Size of irrep 2 of <iA|bC> integrals:      4.257 (MW) /     34.054 (MB)
	Size of irrep 3 of <iA|bC> integrals:      4.257 (MW) /     34.054 (MB)
	Size of irrep 4 of <iA|bC> integrals:      3.185 (MW) /     25.478 (MB)
	Size of irrep 5 of <iA|bC> integrals:      5.544 (MW) /     44.353 (MB)
	Size of irrep 6 of <iA|bC> integrals:      4.239 (MW) /     33.911 (MB)
	Size of irrep 7 of <iA|bC> integrals:      4.239 (MW) /     33.911 (MB)
	Total:                                    34.430 (MW) /    275.442 (MB)

	Size of irrep 0 of tIjAb amplitudes:       0.134 (MW) /      1.074 (MB)
	Size of irrep 1 of tIjAb amplitudes:       0.034 (MW) /      0.271 (MB)
	Size of irrep 2 of tIjAb amplitudes:       0.072 (MW) /      0.577 (MB)
	Size of irrep 3 of tIjAb amplitudes:       0.072 (MW) /      0.577 (MB)
	Size of irrep 4 of tIjAb amplitudes:       0.034 (MW) /      0.271 (MB)
	Size of irrep 5 of tIjAb amplitudes:       0.115 (MW) /      0.921 (MB)
	Size of irrep 6 of tIjAb amplitudes:       0.090 (MW) /      0.722 (MB)
	Size of irrep 7 of tIjAb amplitudes:       0.090 (MW) /      0.722 (MB)
	Total:                                     0.642 (MW) /      5.135 (MB)

	Nuclear Rep. energy          =     70.90724099208866
	SCF energy                   =   -795.10871986536529
	One-electron energy          =    -52.51289413643966
	Two-electron (AA) energy     =      6.51008319468041
	Two-electron (BB) energy     =      3.14442889022380
	Two-electron (AB) energy     =     12.88799134257472
	Two-electron energy          =     22.54250342747893
	Reference energy             =   -795.10871986536529

*** tstop() called on n412-047.vsc4.prov at Sun Jan 24 21:12:44 2021
Module time:
	user time   =     293.33 seconds =       4.89 minutes
	system time =     221.09 seconds =       3.68 minutes
	total time  =        892 seconds =      14.87 minutes
Total time:
	user time   =    1003.61 seconds =      16.73 minutes
	system time =     263.95 seconds =       4.40 minutes
	total time  =       1663 seconds =      27.72 minutes
            **************************
            *                        *
            *        CCENERGY        *
            *                        *
            **************************

    Nuclear Rep. energy (wfn)     =   70.907240992088660
    SCF energy          (wfn)     = -795.108719865365288
    Reference energy    (file100) = -795.108719865365288

    Input parameters:
    -----------------
    Wave function   =     CCSD_T
    Reference wfn   =     UHF
    Brueckner       =     No
    Memory (Mbytes) =     250000.0
    Maxiter         =     50
    R_Convergence   =     1.0e-07
    E_Convergence   =     1.0e-06
    Restart         =     Yes
    DIIS            =     Yes
    AO Basis        =     NONE
    ABCD            =     NEW
    Cache Level     =     2
    Cache Type      =     LRU
    Print Level     =     1
    Num. of threads =     48
    # Amps to Print =     10
    Print MP2 Amps? =     No
    Analyze T2 Amps =     No
    Print Pair Ener =     No
    Local CC        =     No
    SCS-MP2         =     False
    SCSN-MP2        =     False
    SCS-CCSD        =     False

MP2 correlation energy -0.3604975217747184
                Solving CC Amplitude Equations
                ------------------------------
  Iter             Energy              RMS        T1Diag      D1Diag    New D1Diag    D2Diag
  ----     ---------------------    ---------   ----------  ----------  ----------   --------
     0        -0.360497521774718    0.000e+00    0.000000    0.000000    0.000000    0.000000
     1        -0.364201505161746    8.304e-02    0.018307    0.000000    0.000000    0.000000
     2        -0.375568298040860    2.664e-02    0.021379    0.000000    0.000000    0.000000
     3        -0.377930816902524    1.322e-02    0.025907    0.000000    0.000000    0.000000
     4        -0.377701229201293    3.073e-03    0.026998    0.000000    0.000000    0.000000
     5        -0.377701845923089    8.872e-04    0.027252    0.000000    0.000000    0.000000
     6        -0.377699896623078    2.220e-04    0.027290    0.000000    0.000000    0.000000
     7        -0.377698251720405    5.617e-05    0.027291    0.000000    0.000000    0.000000
     8        -0.377699545188653    1.810e-05    0.027292    0.000000    0.000000    0.000000
     9        -0.377699643598885    4.889e-06    0.027292    0.000000    0.000000    0.000000
    10        -0.377699566067966    1.627e-06    0.027292    0.000000    0.000000    0.000000
    11        -0.377699591560999    4.708e-07    0.027291    0.000000    0.000000    0.000000
    12        -0.377699590896885    1.347e-07    0.027292    0.000000    0.000000    0.000000
    13        -0.377699596249699    4.362e-08    0.027292    0.000000    0.000000    0.000000

    Iterations converged.


    Largest TIA Amplitudes:
              6 336        -0.0275651190
              5 290        -0.0275651181
              6 334         0.0184979534
              5 288         0.0184979518
              1   8        -0.0147668399
              1  11         0.0110793559
              1   4         0.0097037671
              6 338         0.0095373969
              5 292         0.0095373965
              1   3        -0.0083741000

    Largest Tia Amplitudes:
              4 339        -0.0296761057
              3 293        -0.0296761048
              2 224         0.0216071147
              2 225         0.0211669850
              2 227        -0.0191216975
              3 291        -0.0151527724
              4 337        -0.0151527692
              3 297         0.0145720218
              4 343         0.0145720217
              4 336         0.0121240116

    Largest TIJAB Amplitudes:
      6   5  66   6         0.0171731325
      2   1 336 223        -0.0166752524
      3   1 290 223        -0.0166752524
      3   2 336 290         0.0142588125
      3   1 290 222        -0.0141335296
      2   1 336 222        -0.0141335293
      3   2 227 190         0.0130003849
      5   2 190   6         0.0112046105
      5   2 227  66        -0.0112046105
      6   3 227  66         0.0112046105

    Largest Tijab Amplitudes:
      4   3 144  97         0.0713045605
      3   1 225 144        -0.0262472138
      4   1 225  97        -0.0262472136
      4   1 227  97         0.0216339606
      3   1 227 144         0.0216339606
      4   3 145  97         0.0199129607
      4   3 144  98         0.0199129598
      3   1 224 144        -0.0197674654
      4   1 224  97        -0.0197674654
      3   1 228 144         0.0185388176

    Largest TIjAb Amplitudes:
      3   3 290 144         0.0369474168
      2   4 336  97         0.0369474166
      1   3 223 144         0.0271921188
      1   4 223  97         0.0271921187
      2   3 336 144         0.0268084848
      3   4 290  97         0.0268084843
      1   3 222 144         0.0255351443
      1   4 222  97         0.0255351442
      1   1 223 225        -0.0227433429
      1   2 336  97         0.0225194698

    SCF energy       (wfn)                    = -795.108719865365288
    Reference energy (file100)                = -795.108719865365288

    Opposite-spin MP2 correlation energy      =   -0.271811036321686
    Same-spin MP2 correlation energy          =   -0.088686485453033
    Singles MP2 correlation energy            =   -0.000000000000000
    MP2 correlation energy                    =   -0.360497521774718
      * MP2 total energy                      = -795.469217387140020

    Opposite-spin CCSD correlation energy     =   -0.293611654086038
    Same-spin CCSD correlation energy         =   -0.084087942163671
    Singles CCSD correlation energy           =    0.000000000000010
    CCSD correlation energy                   =   -0.377699596249699
      * CCSD total energy                     = -795.486419461615014

            **************************
            *                        *
            *        CCTRIPLES       *
            *                        *
            **************************


    Wave function   =    CCSD_T
    Reference wfn   =      UHF

    Nuclear Rep. energy (wfn)                =   70.907240992088660
    SCF energy          (wfn)                = -795.108719865365288
    Reference energy    (file100)            = -795.108719865365288
    CCSD energy         (file100)            =   -0.377699596249699
    Total CCSD energy   (file100)            = -795.486419461615014

    Number of ijk index combinations:
    Spin Case AAA:                                  35
    Spin Case BBB:                                  10
    Spin Case AAB:                                 105
    Spin Case ABB:                                  70
    AAA (T) energy                             =   -0.000642577424010
    BBB (T) energy                             =   -0.000750259471713
    AAB (T) energy                             =   -0.011797740970106
    ABB (T) energy                             =   -0.010996414294340
    (T) energy                                   =   -0.024186992160169
      * CCSD(T) total energy                     = -795.510606453775154


    Psi4 stopped on: Sunday, 24 January 2021 09:31PM
    Psi4 wall time for execution: 0:46:48.54

*** Psi4 exiting successfully. Buy a developer a beer!
