
    -----------------------------------------------------------------------
          Psi4: An Open-Source Ab Initio Electronic Structure Package
                               Psi4 1.4a3.dev88 

                         Git: Rev {master} 262e345 


    D. G. A. Smith, L. A. Burns, A. C. Simmonett, R. M. Parrish,
    M. C. Schieber, R. Galvelis, P. Kraus, H. Kruse, R. Di Remigio,
    A. Alenaizan, A. M. James, S. Lehtola, J. P. Misiewicz, M. Scheurer,
    R. A. Shaw, J. B. Schriber, Y. Xie, Z. L. Glick, D. A. Sirianni,
    J. S. O'Brien, J. M. Waldrop, A. Kumar, E. G. Hohenstein,
    B. P. Pritchard, B. R. Brooks, H. F. Schaefer III, A. Yu. Sokolov,
    K. Patkowski, A. E. DePrince III, U. Bozkaya, R. A. King,
    F. A. Evangelista, J. M. Turney, T. D. Crawford, C. D. Sherrill,
    J. Chem. Phys. 152(18) 184108 (2020). https://doi.org/10.1063/5.0006002

                            Additional Code Authors
    E. T. Seidl, C. L. Janssen, E. F. Valeev, M. L. Leininger,
    J. F. Gonthier, R. M. Richard, H. R. McAlexander, M. Saitow, X. Wang,
    P. Verma, and M. H. Lechner

             Previous Authors, Complete List of Code Contributors,
                       and Citations for Specific Modules
    https://github.com/psi4/psi4/blob/master/codemeta.json
    https://github.com/psi4/psi4/graphs/contributors
    http://psicode.org/psi4manual/master/introduction.html#citing-psifour

    -----------------------------------------------------------------------


    Psi4 started on: Tuesday, 26 January 2021 06:27PM

    Process ID: 409662
    Host:       n412-040.vsc4.prov
    PSIDATADIR: /home/fs71337/gallo4/psi4/eri-6/psi4/build/stage/share/psi4
    Memory:     500.0 MiB
    Threads:    48
    
  ==> Input File <==

--------------------------------------------------------------------------
# Any line starting with the # character is a comment line
memory 250000 mb
molecule molecule{
1 1
P          0.0000000000        0.0000000000        0.0598478687
H          0.0000000000        1.0213497563       -0.9195554905
H          0.0000000000       -1.0213497563       -0.9195554905
}

set {
  reference rhf
  basis aug-cc-pV(t+d)Z
  scf_type OUT_OF_CORE
  freeze_core true
}

energy('ccsd(t)')
--------------------------------------------------------------------------

  Memory set to 232.831 GiB by Python driver.

Scratch directory: /binfl/lv71337/airmler/temp/

*** tstart() called on n412-040.vsc4.prov
*** at Tue Jan 26 18:27:24 2021

   => Loading Basis Set <=

    Name: AUG-CC-PV(T+D)Z
    Role: ORBITAL
    Keyword: BASIS
    atoms 1   entry P          line   860 file /home/fs71337/gallo4/psi4/eri-6/psi4/build/stage/share/psi4/basis/aug-cc-pv_tpd_z.gbs 
    atoms 2-3 entry H          line    68 file /home/fs71337/gallo4/psi4/eri-6/psi4/build/stage/share/psi4/basis/aug-cc-pv_tpd_z.gbs 


         ---------------------------------------------------------
                                   SCF
               by Justin Turney, Rob Parrish, Andy Simmonett
                          and Daniel G. A. Smith
                              RHF Reference
                       48 Threads, 238418 MiB Core
         ---------------------------------------------------------

  ==> Geometry <==

    Molecular point group: c2v
    Full point group: C2v

    Geometry (in Angstrom), charge = 1, multiplicity = 1:

       Center              X                  Y                   Z               Mass       
    ------------   -----------------  -----------------  -----------------  -----------------
         P            0.000000000000     0.000000000000     0.059841455808    30.973761998420
         H           -0.000000000000     1.021349756300    -0.919561903392     1.007825032230
         H            0.000000000000    -1.021349756300    -0.919561903392     1.007825032230

  Running in c2v symmetry.

  Rotational constants: A =      9.28622  B =      8.01738  C =      4.30264 [cm^-1]
  Rotational constants: A = 278393.76393  B = 240354.95703  C = 128989.85282 [MHz]
  Nuclear repulsion =   11.477910815084467

  Charge       = 1
  Multiplicity = 1
  Electrons    = 16
  Nalpha       = 8
  Nbeta        = 8

  ==> Algorithm <==

  SCF Algorithm Type is OUT_OF_CORE.
  DIIS enabled.
  MOM disabled.
  Fractional occupation disabled.
  Guess Type is SAD.
  Energy threshold   = 1.00e-08
  Density threshold  = 1.00e-08
  Integral threshold = 1.00e-12

  ==> Primary Basis <==

  Basis Set: AUG-CC-PV(T+D)Z
    Blend: AUG-CC-PV(T+D)Z
    Number of shells: 35
    Number of basis function: 101
    Number of Cartesian functions: 115
    Spherical Harmonics?: true
    Max angular momentum: 3

  ==> Integral Setup <==

  ==> DiskJK: Disk-Based J/K Matrices <==

    J tasked:                  Yes
    K tasked:                  Yes
    wK tasked:                  No
    Memory [MiB]:           178813
    Schwarz Cutoff:          1E-12

  Minimum eigenvalue in the overlap matrix is 1.8778812017E-04.
  Reciprocal condition number of the overlap matrix is 3.3646504209E-05.
    Using symmetric orthogonalization.

  ==> Pre-Iterations <==

  SCF Guess: Superposition of Atomic Densities via on-the-fly atomic UHF (no occupation information).


 WARNING: Atomic UHF is not converging! Try casting from a smaller basis or call Rob at CCMST.

 WARNING: Atomic UHF is not converging! Try casting from a smaller basis or call Rob at CCMST.
   -------------------------
    Irrep   Nso     Nmo    
   -------------------------
     A1        39      39 
     A2        13      13 
     B1        20      20 
     B2        29      29 
   -------------------------
    Total     101     101
   -------------------------

  ==> Iterations <==

                        Total Energy        Delta E     RMS |[F,P]|

   @RHF iter SAD:  -328.96180091599206   -3.28962e+02   0.00000e+00 
   @RHF iter   1:  -341.36089379548514   -1.23991e+01   1.10896e-02 DIIS
   @RHF iter   2:  -341.54309905013895   -1.82205e-01   2.55907e-03 DIIS
   @RHF iter   3:  -341.54656205327512   -3.46300e-03   3.08791e-04 DIIS
   @RHF iter   4:  -341.54674942329910   -1.87370e-04   5.93578e-05 DIIS
   @RHF iter   5:  -341.54676410739046   -1.46841e-05   1.64989e-05 DIIS
   @RHF iter   6:  -341.54676555659034   -1.44920e-06   2.93227e-06 DIIS
   @RHF iter   7:  -341.54676559964355   -4.30532e-08   3.80713e-07 DIIS
   @RHF iter   8:  -341.54676560027383   -6.30280e-10   5.98252e-08 DIIS
   @RHF iter   9:  -341.54676560028838   -1.45519e-11   1.11382e-08 DIIS
   @RHF iter  10:  -341.54676560028952   -1.13687e-12   1.69597e-09 DIIS
  Energy and wave function converged.


  ==> Post-Iterations <==

    Orbital Energies [Eh]
    ---------------------

    Doubly Occupied:                                                      

       1A1   -80.336537     2A1    -7.871875     1B1    -5.763824  
       1B2    -5.761422     3A1    -5.760712     4A1    -1.137708  
       2B2    -0.829843     5A1    -0.729339  

    Virtual:                                                              

       2B1    -0.312302     6A1    -0.122929     3B2    -0.115849  
       4B2    -0.078013     7A1    -0.069357     3B1    -0.064561  
       8A1    -0.049001     9A1    -0.017910     1A2    -0.015495  
      10A1    -0.014385     4B1    -0.011791     5B2    -0.009228  
       6B2     0.096060    11A1     0.115988     7B2     0.131985  
      12A1     0.133954     2A2     0.146059     5B1     0.149067  
      13A1     0.164546     8B2     0.167776     6B1     0.276584  
      14A1     0.287527    15A1     0.290580     3A2     0.295019  
       7B1     0.301827     9B2     0.306485    16A1     0.313529  
       8B1     0.398859    10B2     0.449966    17A1     0.452114  
      11B2     0.505891    18A1     0.515662     9B1     0.516104  
       4A2     0.525905    12B2     0.537797    19A1     0.627375  
      20A1     0.710227    13B2     0.712696    14B2     0.768266  
      21A1     0.772969     5A2     0.775673    10B1     0.780899  
       6A2     0.833549    11B1     0.847399    22A1     0.887954  
      15B2     0.957229    16B2     1.000721    23A1     1.127855  
       7A2     1.236820    17B2     1.245449    12B1     1.247092  
      24A1     1.267976     8A2     1.288397    13B1     1.293767  
      25A1     1.301935    26A1     1.365937    18B2     1.366413  
      27A1     1.556399    14B1     1.562965    19B2     1.565551  
      15B1     1.668663    28A1     1.795888    20B2     1.830646  
       9A2     1.888610    29A1     2.017188    21B2     2.031364  
      16B1     2.218381    30A1     2.384884    22B2     2.591940  
      31A1     3.030139    23B2     3.158972    10A2     3.610247  
      24B2     3.660922    32A1     3.677697    17B1     3.745182  
      25B2     3.871445    18B1     3.887645    11A2     3.916018  
      33A1     4.084030    19B1     4.132268    34A1     4.167762  
      12A2     4.170478    26B2     4.200641    35A1     4.257531  
      27B2     4.298559    36A1     4.420597    28B2     4.863036  
      37A1     5.447681    20B1     5.931065    13A2     5.935769  
      38A1     6.069342    29B2     7.095460    39A1     7.325570  

    Final Occupation by Irrep:
             A1    A2    B1    B2 
    DOCC [     5,    0,    1,    2 ]

  @RHF Final Energy:  -341.54676560028952

   => Energetics <=

    Nuclear Repulsion Energy =             11.4779108150844671
    One-Electron Energy =                -489.6668339260164657
    Two-Electron Energy =                 136.6421575106424768
    Total Energy =                       -341.5467656002895183

Computation Completed


Properties will be evaluated at   0.000000,   0.000000,   0.000000 [a0]

Properties computed using the SCF density matrix

  Nuclear Dipole Moment: [e a0]
     X:     0.0000      Y:     0.0000      Z:    -1.7792

  Electronic Dipole Moment: [e a0]
     X:     0.0000      Y:     0.0000      Z:     1.3223

  Dipole Moment: [e a0]
     X:     0.0000      Y:     0.0000      Z:    -0.4569     Total:     0.4569

  Dipole Moment: [D]
     X:     0.0000      Y:     0.0000      Z:    -1.1612     Total:     1.1612


*** tstop() called on n412-040.vsc4.prov at Tue Jan 26 18:27:31 2021
Module time:
	user time   =      30.88 seconds =       0.51 minutes
	system time =       2.44 seconds =       0.04 minutes
	total time  =          7 seconds =       0.12 minutes
Total time:
	user time   =      30.88 seconds =       0.51 minutes
	system time =       2.44 seconds =       0.04 minutes
	total time  =          7 seconds =       0.12 minutes

*** tstart() called on n412-040.vsc4.prov
*** at Tue Jan 26 18:27:31 2021


	Wfn Parameters:
	--------------------
	Wavefunction         = CCSD_T
	Number of irreps     = 4
	Number of MOs        = 101
	Number of active MOs = 96
	AO-Basis             = NONE
	Semicanonical        = false
	Reference            = RHF
	Print Level          = 1

	IRREP	# MOs	# FZDC	# DOCC	# SOCC	# VIRT	# FZVR
	-----	-----	------	------	------	------	------
	 A1	   39	    3	    2	    0	    34	    0
	 A2	   13	    0	    0	    0	    13	    0
	 B1	   20	    1	    0	    0	    19	    0
	 B2	   29	    1	    1	    0	    27	    0
	Transforming integrals...
	IWL integrals will be deleted.
	(OO|OO)...
	Presorting SO-basis two-electron integrals.
	Sorting File: SO Ints (nn|nn) nbuckets = 1
	Constructing frozen core operators
	Starting first half-transformation.
	Sorting half-transformed integrals.
	First half integral transformation complete.
	Starting second half-transformation.
	Two-electron integral transformation complete.
	(OO|OV)...
	Starting second half-transformation.
	Two-electron integral transformation complete.
	(OO|VV)...
	Starting second half-transformation.
	Two-electron integral transformation complete.
	(OV|OO)...
	Starting first half-transformation.
	Sorting half-transformed integrals.
	First half integral transformation complete.
	Starting second half-transformation.
	Two-electron integral transformation complete.
	(OV|OV)...
	Starting second half-transformation.
	Two-electron integral transformation complete.
	(OV|VV)...
	Starting second half-transformation.
	Two-electron integral transformation complete.
	(VV|OO)...
	Starting first half-transformation.
	Sorting half-transformed integrals.
	First half integral transformation complete.
	Starting second half-transformation.
	Two-electron integral transformation complete.
	(VV|OV)...
	Starting second half-transformation.
	Two-electron integral transformation complete.
	(VV|VV)...
	Starting second half-transformation.
	Two-electron integral transformation complete.
	Frozen core energy     =   -341.84031854293363

	Size of irrep 0 of <ab|cd> integrals:      5.832 (MW) /     46.658 (MB)
	Size of irrep 1 of <ab|cd> integrals:      3.648 (MW) /     29.185 (MB)
	Size of irrep 2 of <ab|cd> integrals:      3.976 (MW) /     31.808 (MB)
	Size of irrep 3 of <ab|cd> integrals:      5.429 (MW) /     43.431 (MB)
	Total:                                    18.885 (MW) /    151.082 (MB)

	Size of irrep 0 of <ia|bc> integrals:      0.229 (MW) /      1.835 (MB)
	Size of irrep 1 of <ia|bc> integrals:      0.086 (MW) /      0.688 (MB)
	Size of irrep 2 of <ia|bc> integrals:      0.102 (MW) /      0.814 (MB)
	Size of irrep 3 of <ia|bc> integrals:      0.205 (MW) /      1.640 (MB)
	Total:                                     0.622 (MW) /      4.977 (MB)

	Size of irrep 0 of tijab amplitudes:       0.012 (MW) /      0.097 (MB)
	Size of irrep 1 of tijab amplitudes:       0.000 (MW) /      0.000 (MB)
	Size of irrep 2 of tijab amplitudes:       0.000 (MW) /      0.000 (MB)
	Size of irrep 3 of tijab amplitudes:       0.009 (MW) /      0.075 (MB)
	Total:                                     0.021 (MW) /      0.171 (MB)

	Nuclear Rep. energy          =     11.47791081508447
	SCF energy                   =   -341.54676560028952
	One-electron energy          =    -16.97493532941493
	Two-electron energy          =      5.79057745697455
	Reference energy             =   -341.54676560028952

*** tstop() called on n412-040.vsc4.prov at Tue Jan 26 18:27:37 2021
Module time:
	user time   =       1.41 seconds =       0.02 minutes
	system time =       0.72 seconds =       0.01 minutes
	total time  =          6 seconds =       0.10 minutes
Total time:
	user time   =      32.29 seconds =       0.54 minutes
	system time =       3.16 seconds =       0.05 minutes
	total time  =         13 seconds =       0.22 minutes
            **************************
            *                        *
            *        CCENERGY        *
            *                        *
            **************************

    Nuclear Rep. energy (wfn)     =   11.477910815084467
    SCF energy          (wfn)     = -341.546765600289518
    Reference energy    (file100) = -341.546765600289518

    Input parameters:
    -----------------
    Wave function   =     CCSD_T
    Reference wfn   =     RHF
    Brueckner       =     No
    Memory (Mbytes) =     250000.0
    Maxiter         =     50
    R_Convergence   =     1.0e-07
    E_Convergence   =     1.0e-06
    Restart         =     Yes
    DIIS            =     Yes
    AO Basis        =     NONE
    ABCD            =     NEW
    Cache Level     =     2
    Cache Type      =     LOW
    Print Level     =     1
    Num. of threads =     48
    # Amps to Print =     10
    Print MP2 Amps? =     No
    Analyze T2 Amps =     No
    Print Pair Ener =     No
    Local CC        =     No
    SCS-MP2         =     False
    SCSN-MP2        =     False
    SCS-CCSD        =     False

MP2 correlation energy -0.1228274981752585
                Solving CC Amplitude Equations
                ------------------------------
  Iter             Energy              RMS        T1Diag      D1Diag    New D1Diag    D2Diag
  ----     ---------------------    ---------   ----------  ----------  ----------   --------
     0        -0.122827498175258    0.000e+00    0.000000    0.000000    0.000000    0.141568
     1        -0.142363612300644    5.613e-02    0.006553    0.012042    0.012042    0.177711
     2        -0.151227027595872    2.479e-02    0.010860    0.020116    0.020116    0.203907
     3        -0.151663415462841    7.900e-03    0.012298    0.023083    0.023083    0.211870
     4        -0.151777989496627    3.192e-03    0.012674    0.024003    0.024003    0.215248
     5        -0.151776563849000    1.230e-03    0.012689    0.024159    0.024159    0.216126
     6        -0.151773152921471    3.898e-04    0.012641    0.024090    0.024090    0.216255
     7        -0.151778408087172    1.298e-04    0.012621    0.024054    0.024054    0.216318
     8        -0.151777512045615    4.105e-05    0.012613    0.024035    0.024035    0.216325
     9        -0.151776942352786    1.025e-05    0.012611    0.024030    0.024030    0.216322
    10        -0.151777023427121    2.952e-06    0.012611    0.024029    0.024029    0.216322
    11        -0.151777042314678    7.722e-07    0.012611    0.024029    0.024029    0.216322
    12        -0.151777053478401    2.255e-07    0.012611    0.024029    0.024029    0.216322
    13        -0.151777048427677    6.993e-08    0.012611    0.024029    0.024029    0.216322

    Iterations converged.


    Largest TIA Amplitudes:
              2  66         0.0137427397
              0   2         0.0118112965
              1   3         0.0100877502
              0   7        -0.0067620142
              0   0         0.0064866203
              1   8        -0.0063126983
              1   6        -0.0062844555
              1   1         0.0061820617
              1   2         0.0061405587
              2  68         0.0058008389

    Largest TIjAb Amplitudes:
      1   1  47  47        -0.0976950167
      1   1  66  66        -0.0559372439
      0   0  47  47        -0.0519617589
      2   2  66  66        -0.0392710231
      0   1  47  47        -0.0369524430
      1   0  47  47        -0.0369524430
      1   1  47  52         0.0352257769
      1   1  52  47         0.0352257769
      0   1  47  52         0.0300161203
      1   0  52  47         0.0300161203

    SCF energy       (wfn)                    = -341.546765600289518
    Reference energy (file100)                = -341.546765600289518

    Opposite-spin MP2 correlation energy      =   -0.108233304893608
    Same-spin MP2 correlation energy          =   -0.014594193281651
    Singles MP2 correlation energy            =   -0.000000000000000
    MP2 correlation energy                    =   -0.122827498175258
      * MP2 total energy                      = -341.669593098464759

    Opposite-spin CCSD correlation energy     =   -0.136275490798143
    Same-spin CCSD correlation energy         =   -0.015501557629533
    Singles CCSD correlation energy           =    0.000000000000000
    CCSD correlation energy                   =   -0.151777048427677
      * CCSD total energy                     = -341.698542648717194

            **************************
            *                        *
            *        CCTRIPLES       *
            *                        *
            **************************


    Wave function   =    CCSD_T
    Reference wfn   =      RHF

    Nuclear Rep. energy (wfn)                =   11.477910815084467
    SCF energy          (wfn)                = -341.546765600289518
    Reference energy    (file100)            = -341.546765600289518
    CCSD energy         (file100)            =   -0.151777048427677
    Total CCSD energy   (file100)            = -341.698542648717194

    Number of ijk index combinations:               10
    Memory available in words        :     31250000000
    ~Words needed per explicit thread:          157216
    Number of threads for explicit ijk threading:   48

    (T) energy                                =   -0.004291737940448
      * CCSD(T) total energy                  = -341.702834386657628


    Psi4 stopped on: Tuesday, 26 January 2021 06:27PM
    Psi4 wall time for execution: 0:00:16.86

*** Psi4 exiting successfully. Buy a developer a beer!
