
    -----------------------------------------------------------------------
          Psi4: An Open-Source Ab Initio Electronic Structure Package
                               Psi4 1.4a3.dev88 

                         Git: Rev {master} 262e345 


    D. G. A. Smith, L. A. Burns, A. C. Simmonett, R. M. Parrish,
    M. C. Schieber, R. Galvelis, P. Kraus, H. Kruse, R. Di Remigio,
    A. Alenaizan, A. M. James, S. Lehtola, J. P. Misiewicz, M. Scheurer,
    R. A. Shaw, J. B. Schriber, Y. Xie, Z. L. Glick, D. A. Sirianni,
    J. S. O'Brien, J. M. Waldrop, A. Kumar, E. G. Hohenstein,
    B. P. Pritchard, B. R. Brooks, H. F. Schaefer III, A. Yu. Sokolov,
    K. Patkowski, A. E. DePrince III, U. Bozkaya, R. A. King,
    F. A. Evangelista, J. M. Turney, T. D. Crawford, C. D. Sherrill,
    J. Chem. Phys. 152(18) 184108 (2020). https://doi.org/10.1063/5.0006002

                            Additional Code Authors
    E. T. Seidl, C. L. Janssen, E. F. Valeev, M. L. Leininger,
    J. F. Gonthier, R. M. Richard, H. R. McAlexander, M. Saitow, X. Wang,
    P. Verma, and M. H. Lechner

             Previous Authors, Complete List of Code Contributors,
                       and Citations for Specific Modules
    https://github.com/psi4/psi4/blob/master/codemeta.json
    https://github.com/psi4/psi4/graphs/contributors
    http://psicode.org/psi4manual/master/introduction.html#citing-psifour

    -----------------------------------------------------------------------


    Psi4 started on: Wednesday, 20 January 2021 09:26PM

    Process ID: 2134
    Host:       l43
    PSIDATADIR: /home/fs71337/gallo4/psi4/psi4/build/stage/share/psi4
    Memory:     500.0 MiB
    Threads:    48
    
  ==> Input File <==

--------------------------------------------------------------------------
# Any line starting with the # character is a comment line
memory 250000 mb
molecule molecule{
1 1
P          0.0000000000        0.0000000000        0.0598478687
H          0.0000000000        1.0213497563       -0.9195554905
H          0.0000000000       -1.0213497563       -0.9195554905
}

set {
  reference rhf
  basis aug-cc-pV(Q+d)Z
  scf_type OUT_OF_CORE
  freeze_core true
}

energy('ccsd(t)')
--------------------------------------------------------------------------

  Memory set to 232.831 GiB by Python driver.

Scratch directory: /tmp/

*** tstart() called on l43
*** at Wed Jan 20 21:26:41 2021

   => Loading Basis Set <=

    Name: AUG-CC-PV(Q+D)Z
    Role: ORBITAL
    Keyword: BASIS
    atoms 1   entry P          line  1066 file /home/fs71337/gallo4/psi4/psi4/build/stage/share/psi4/basis/aug-cc-pv_qpd_z.gbs 
    atoms 2-3 entry H          line    68 file /home/fs71337/gallo4/psi4/psi4/build/stage/share/psi4/basis/aug-cc-pv_qpd_z.gbs 


         ---------------------------------------------------------
                                   SCF
               by Justin Turney, Rob Parrish, Andy Simmonett
                          and Daniel G. A. Smith
                              RHF Reference
                       48 Threads, 238418 MiB Core
         ---------------------------------------------------------

  ==> Geometry <==

    Molecular point group: c2v
    Full point group: C2v

    Geometry (in Angstrom), charge = 1, multiplicity = 1:

       Center              X                  Y                   Z               Mass       
    ------------   -----------------  -----------------  -----------------  -----------------
         P            0.000000000000     0.000000000000     0.059841455808    30.973761998420
         H           -0.000000000000     1.021349756300    -0.919561903392     1.007825032230
         H            0.000000000000    -1.021349756300    -0.919561903392     1.007825032230

  Running in c2v symmetry.

  Rotational constants: A =      9.28622  B =      8.01738  C =      4.30264 [cm^-1]
  Rotational constants: A = 278393.76393  B = 240354.95703  C = 128989.85282 [MHz]
  Nuclear repulsion =   11.477910815084467

  Charge       = 1
  Multiplicity = 1
  Electrons    = 16
  Nalpha       = 8
  Nbeta        = 8

  ==> Algorithm <==

  SCF Algorithm Type is OUT_OF_CORE.
  DIIS enabled.
  MOM disabled.
  Fractional occupation disabled.
  Guess Type is SAD.
  Energy threshold   = 1.00e-08
  Density threshold  = 1.00e-08
  Integral threshold = 1.00e-12

  ==> Primary Basis <==

  Basis Set: AUG-CC-PV(Q+D)Z
    Blend: AUG-CC-PV(Q+D)Z
    Number of shells: 51
    Number of basis function: 181
    Number of Cartesian functions: 225
    Spherical Harmonics?: true
    Max angular momentum: 4

  ==> Integral Setup <==

  ==> DiskJK: Disk-Based J/K Matrices <==

    J tasked:                  Yes
    K tasked:                  Yes
    wK tasked:                  No
    Memory [MiB]:           178813
    Schwarz Cutoff:          1E-12

  Minimum eigenvalue in the overlap matrix is 4.5563309869E-05.
  Reciprocal condition number of the overlap matrix is 6.8892050714E-06.
    Using symmetric orthogonalization.

  ==> Pre-Iterations <==

  SCF Guess: Superposition of Atomic Densities via on-the-fly atomic UHF (no occupation information).


 WARNING: Atomic UHF is not converging! Try casting from a smaller basis or call Rob at CCMST.

 WARNING: Atomic UHF is not converging! Try casting from a smaller basis or call Rob at CCMST.
   -------------------------
    Irrep   Nso     Nmo    
   -------------------------
     A1        65      65 
     A2        28      28 
     B1        37      37 
     B2        51      51 
   -------------------------
    Total     181     181
   -------------------------

  ==> Iterations <==

                        Total Energy        Delta E     RMS |[F,P]|

   @RHF iter SAD:  -339.73258336891132   -3.39733e+02   0.00000e+00 
   @RHF iter   1:  -341.53572655889872   -1.80314e+00   1.88640e-03 DIIS
   @RHF iter   2:  -341.54885555891912   -1.31290e-02   3.85885e-04 DIIS
   @RHF iter   3:  -341.54966231213427   -8.06753e-04   9.92015e-05 DIIS
   @RHF iter   4:  -341.54979360389865   -1.31292e-04   1.92241e-05 DIIS
   @RHF iter   5:  -341.54979976146262   -6.15756e-06   3.13298e-06 DIIS
   @RHF iter   6:  -341.54979990821863   -1.46756e-07   4.17693e-07 DIIS
   @RHF iter   7:  -341.54979991064937   -2.43074e-09   6.51808e-08 DIIS
   @RHF iter   8:  -341.54979991071235   -6.29825e-11   1.07513e-08 DIIS
   @RHF iter   9:  -341.54979991071360   -1.25056e-12   1.04033e-09 DIIS
  Energy and wave function converged.


  ==> Post-Iterations <==

    Orbital Energies [Eh]
    ---------------------

    Doubly Occupied:                                                      

       1A1   -80.335432     2A1    -7.871414     1B1    -5.763737  
       1B2    -5.761156     3A1    -5.760379     4A1    -1.137576  
       2B2    -0.829953     5A1    -0.729430  

    Virtual:                                                              

       2B1    -0.312243     6A1    -0.123070     3B2    -0.116439  
       4B2    -0.079289     7A1    -0.074208     3B1    -0.070048  
       8A1    -0.058653     9A1    -0.036963     1A2    -0.035230  
       4B1    -0.032052    10A1    -0.025105     5B2    -0.019561  
       6B2     0.044922    11A1     0.065638    12A1     0.076922  
       7B2     0.081773     2A2     0.092717     5B1     0.095506  
      13A1     0.098072     8B2     0.115312     6B1     0.157701  
      14A1     0.159352     3A2     0.179244     7B1     0.185142  
      15A1     0.192041     9B2     0.193735    16A1     0.195523  
       8B1     0.216338    17A1     0.292019    10B2     0.298173  
      11B2     0.323340     9B1     0.328457    12B2     0.334680  
      18A1     0.338431     4A2     0.339145    19A1     0.437661  
      20A1     0.458404    13B2     0.485436     5A2     0.511781  
      14B2     0.518236    10B1     0.526877    21A1     0.547439  
      22A1     0.570005    11B1     0.570590     6A2     0.588401  
      23A1     0.662074    15B2     0.684305    16B2     0.712322  
       7A2     0.768103    24A1     0.774578    12B1     0.777865  
      17B2     0.812165    25A1     0.822964    18B2     0.925356  
      13B1     0.927712     8A2     0.931490    26A1     0.942272  
      14B1     0.969237    27A1     0.975512    19B2     0.994995  
      15B1     0.999636    28A1     1.056737     9A2     1.098440  
      29A1     1.106139    16B1     1.109574    20B2     1.137683  
      10A2     1.161610    21B2     1.164306    17B1     1.201718  
      30A1     1.207494    31A1     1.265788    32A1     1.356440  
      18B1     1.414525    11A2     1.414961    22B2     1.457118  
      19B1     1.467391    23B2     1.498833    33A1     1.505257  
      34A1     1.549802    24B2     1.564177    25B2     1.638751  
      35A1     1.694811    12A2     1.723768    26B2     1.812308  
      13A2     1.827478    27B2     1.830755    20B1     1.837562  
      36A1     1.840727    21B1     1.898201    37A1     1.935311  
      14A2     1.971768    38A1     1.981672    28B2     2.001819  
      29B2     2.104590    39A1     2.157895    15A2     2.225856  
      22B1     2.244996    40A1     2.312498    16A2     2.413543  
      30B2     2.441633    41A1     2.468622    23B1     2.510721  
      17A2     2.583465    42A1     2.599854    31B2     2.631992  
      24B1     2.668242    25B1     2.743731    43A1     2.833544  
      44A1     2.848240    26B1     2.850941    32B2     2.865263  
      33B2     2.917755    18A2     2.925936    45A1     2.956339  
      34B2     3.009066    46A1     3.086228    47A1     3.116154  
      35B2     3.179509    19A2     3.179758    27B1     3.207330  
      20A2     3.280346    28B1     3.308891    48A1     3.390347  
      36B2     3.399741    49A1     3.685699    37B2     3.716108  
      29B1     3.765220    50A1     3.933731    38B2     3.947188  
      21A2     4.030420    51A1     4.175290    39B2     4.237879  
      30B1     5.730233    31B1     6.333348    40B2     6.341008  
      22A2     6.383713    52A1     6.393942    41B2     6.468368  
      53A1     6.479353    23A2     6.563410    32B1     6.659481  
      54A1     6.720521    42B2     6.725954    24A2     6.756969  
      33B1     6.787803    43B2     6.912679    55A1     7.011228  
      56A1     7.047919    44B2     7.308767    34B1     7.523234  
      25A2     7.550322    57A1     7.626231    58A1     7.725706  
      45B2     7.942030    59A1     7.942592    46B2     8.258579  
      26A2     8.267120    27A2     8.308445    35B1     8.314042  
      47B2     8.353106    60A1     8.355918    36B1     8.429236  
      61A1     8.514404    48B2     8.675125    28A2     8.982296  
      37B1     9.027430    49B2     9.132868    62A1     9.154045  
      63A1     9.425319    50B2     9.452106    64A1    10.040998  
      51B2    11.134100    65A1    16.864756  

    Final Occupation by Irrep:
             A1    A2    B1    B2 
    DOCC [     5,    0,    1,    2 ]

  @RHF Final Energy:  -341.54979991071360

   => Energetics <=

    Nuclear Repulsion Energy =             11.4779108150844671
    One-Electron Energy =                -489.6772677333002548
    Two-Electron Energy =                 136.6495570075022385
    Total Energy =                       -341.5497999107135456

Computation Completed


Properties will be evaluated at   0.000000,   0.000000,   0.000000 [a0]

Properties computed using the SCF density matrix

  Nuclear Dipole Moment: [e a0]
     X:     0.0000      Y:     0.0000      Z:    -1.7792

  Electronic Dipole Moment: [e a0]
     X:     0.0000      Y:     0.0000      Z:     1.3240

  Dipole Moment: [e a0]
     X:     0.0000      Y:     0.0000      Z:    -0.4552     Total:     0.4552

  Dipole Moment: [D]
     X:     0.0000      Y:     0.0000      Z:    -1.1569     Total:     1.1569


*** tstop() called on l43 at Wed Jan 20 21:27:05 2021
Module time:
	user time   =      26.26 seconds =       0.44 minutes
	system time =       6.81 seconds =       0.11 minutes
	total time  =         24 seconds =       0.40 minutes
Total time:
	user time   =      26.26 seconds =       0.44 minutes
	system time =       6.81 seconds =       0.11 minutes
	total time  =         24 seconds =       0.40 minutes

*** tstart() called on l43
*** at Wed Jan 20 21:27:05 2021


	Wfn Parameters:
	--------------------
	Wavefunction         = CCSD_T
	Number of irreps     = 4
	Number of MOs        = 181
	Number of active MOs = 176
	AO-Basis             = NONE
	Semicanonical        = false
	Reference            = RHF
	Print Level          = 1

	IRREP	# MOs	# FZDC	# DOCC	# SOCC	# VIRT	# FZVR
	-----	-----	------	------	------	------	------
	 A1	   65	    3	    2	    0	    60	    0
	 A2	   28	    0	    0	    0	    28	    0
	 B1	   37	    1	    0	    0	    36	    0
	 B2	   51	    1	    1	    0	    49	    0
	Transforming integrals...
	IWL integrals will be deleted.
	(OO|OO)...
	Presorting SO-basis two-electron integrals.
	Sorting File: SO Ints (nn|nn) nbuckets = 1
	Constructing frozen core operators
	Starting first half-transformation.
	Sorting half-transformed integrals.
	First half integral transformation complete.
	Starting second half-transformation.
	Two-electron integral transformation complete.
	(OO|OV)...
	Starting second half-transformation.
	Two-electron integral transformation complete.
	(OO|VV)...
	Starting second half-transformation.
	Two-electron integral transformation complete.
	(OV|OO)...
	Starting first half-transformation.
	Sorting half-transformed integrals.
	First half integral transformation complete.
	Starting second half-transformation.
	Two-electron integral transformation complete.
	(OV|OV)...
	Starting second half-transformation.
	Two-electron integral transformation complete.
	(OV|VV)...
	Starting second half-transformation.
	Two-electron integral transformation complete.
	(VV|OO)...
	Starting first half-transformation.
	Sorting half-transformed integrals.
	First half integral transformation complete.
	Starting second half-transformation.
	Two-electron integral transformation complete.
	(VV|OV)...
	Starting second half-transformation.
	Two-electron integral transformation complete.
	(VV|VV)...
	Starting second half-transformation.
	Two-electron integral transformation complete.
	Frozen core energy     =   -341.84218066803027

	Size of irrep 0 of <ab|cd> integrals:     65.303 (MW) /    522.420 (MB)
	Size of irrep 1 of <ab|cd> integrals:     47.445 (MW) /    379.556 (MB)
	Size of irrep 2 of <ab|cd> integrals:     49.900 (MW) /    399.201 (MB)
	Size of irrep 3 of <ab|cd> integrals:     62.347 (MW) /    498.775 (MB)
	Total:                                   224.994 (MW) /   1799.952 (MB)

	Size of irrep 0 of <ia|bc> integrals:      1.366 (MW) /     10.926 (MB)
	Size of irrep 1 of <ia|bc> integrals:      0.634 (MW) /      5.070 (MB)
	Size of irrep 2 of <ia|bc> integrals:      0.706 (MW) /      5.651 (MB)
	Size of irrep 3 of <ia|bc> integrals:      1.248 (MW) /      9.981 (MB)
	Total:                                     3.953 (MW) /     31.627 (MB)

	Size of irrep 0 of tijab amplitudes:       0.040 (MW) /      0.323 (MB)
	Size of irrep 1 of tijab amplitudes:       0.000 (MW) /      0.000 (MB)
	Size of irrep 2 of tijab amplitudes:       0.000 (MW) /      0.000 (MB)
	Size of irrep 3 of tijab amplitudes:       0.032 (MW) /      0.253 (MB)
	Total:                                     0.072 (MW) /      0.576 (MB)

	Nuclear Rep. energy          =     11.47791081508447
	SCF energy                   =   -341.54979991071360
	One-electron energy          =    -16.97714323392573
	Two-electron energy          =      5.79161317615863
	Reference energy             =   -341.54979991071292

*** tstop() called on l43 at Wed Jan 20 21:27:27 2021
Module time:
	user time   =      14.16 seconds =       0.24 minutes
	system time =       7.55 seconds =       0.13 minutes
	total time  =         22 seconds =       0.37 minutes
Total time:
	user time   =      40.42 seconds =       0.67 minutes
	system time =      14.36 seconds =       0.24 minutes
	total time  =         46 seconds =       0.77 minutes
            **************************
            *                        *
            *        CCENERGY        *
            *                        *
            **************************

    Nuclear Rep. energy (wfn)     =   11.477910815084467
    SCF energy          (wfn)     = -341.549799910713602
    Reference energy    (file100) = -341.549799910712920

    Input parameters:
    -----------------
    Wave function   =     CCSD_T
    Reference wfn   =     RHF
    Brueckner       =     No
    Memory (Mbytes) =     250000.0
    Maxiter         =     50
    R_Convergence   =     1.0e-07
    E_Convergence   =     1.0e-06
    Restart         =     Yes
    DIIS            =     Yes
    AO Basis        =     NONE
    ABCD            =     NEW
    Cache Level     =     2
    Cache Type      =     LOW
    Print Level     =     1
    Num. of threads =     48
    # Amps to Print =     10
    Print MP2 Amps? =     No
    Analyze T2 Amps =     No
    Print Pair Ener =     No
    Local CC        =     No
    SCS-MP2         =     False
    SCSN-MP2        =     False
    SCS-CCSD        =     False

MP2 correlation energy -0.1307018344464670
                Solving CC Amplitude Equations
                ------------------------------
  Iter             Energy              RMS        T1Diag      D1Diag    New D1Diag    D2Diag
  ----     ---------------------    ---------   ----------  ----------  ----------   --------
     0        -0.130701834446467    0.000e+00    0.000000    0.000000    0.000000    0.142801
     1        -0.148184915272335    5.453e-02    0.006826    0.012164    0.012164    0.176538
     2        -0.157007474606875    2.459e-02    0.011000    0.019834    0.019834    0.202712
     3        -0.157303367355196    7.716e-03    0.012323    0.022590    0.022590    0.209852
     4        -0.157441400284295    3.439e-03    0.012739    0.023600    0.023600    0.213661
     5        -0.157460146683944    1.249e-03    0.012754    0.023758    0.023758    0.214600
     6        -0.157447282403232    4.009e-04    0.012709    0.023698    0.023698    0.214698
     7        -0.157453930435490    1.470e-04    0.012687    0.023660    0.023660    0.214770
     8        -0.157454303822048    4.393e-05    0.012680    0.023642    0.023642    0.214782
     9        -0.157453188578200    1.202e-05    0.012678    0.023636    0.023636    0.214778
    10        -0.157453322348925    3.425e-06    0.012677    0.023635    0.023635    0.214779
    11        -0.157453381977507    1.105e-06    0.012677    0.023634    0.023634    0.214779
    12        -0.157453419848322    2.768e-07    0.012677    0.023634    0.023634    0.214779
    13        -0.157453416575240    8.382e-08    0.012677    0.023634    0.023634    0.214779

    Iterations converged.


    Largest TIA Amplitudes:
              2 124        -0.0138839112
              0   2         0.0109175497
              1   3         0.0089613057
              1   7        -0.0079023664
              0   0        -0.0069032123
              0   7         0.0058928281
              2 126        -0.0058037590
              0   5         0.0057837467
              1   1         0.0055683480
              1   2        -0.0049536126

    Largest TIjAb Amplitudes:
      1   1  88  88        -0.0968210881
      1   1 124 124        -0.0546941521
      0   0  88  88        -0.0515579692
      2   2 124 124        -0.0383409223
      0   1  88  88         0.0367024192
      1   0  88  88         0.0367024192
      1   1  88  93        -0.0317608113
      1   1  93  88        -0.0317608113
      0   1  88  93         0.0258744403
      1   0  93  88         0.0258744403

    SCF energy       (wfn)                    = -341.549799910713602
    Reference energy (file100)                = -341.549799910712920

    Opposite-spin MP2 correlation energy      =   -0.115700012258114
    Same-spin MP2 correlation energy          =   -0.015001822188353
    Singles MP2 correlation energy            =   -0.000000000000000
    MP2 correlation energy                    =   -0.130701834446467
      * MP2 total energy                      = -341.680501745159404

    Opposite-spin CCSD correlation energy     =   -0.141612446623937
    Same-spin CCSD correlation energy         =   -0.015840969951303
    Singles CCSD correlation energy           =    0.000000000000000
    CCSD correlation energy                   =   -0.157453416575240
      * CCSD total energy                     = -341.707253327288186

            **************************
            *                        *
            *        CCTRIPLES       *
            *                        *
            **************************


    Wave function   =    CCSD_T
    Reference wfn   =      RHF

    Nuclear Rep. energy (wfn)                =   11.477910815084467
    SCF energy          (wfn)                = -341.549799910713602
    Reference energy    (file100)            = -341.549799910712920
    CCSD energy         (file100)            =   -0.157453416575240
    Total CCSD energy   (file100)            = -341.707253327288186

    Number of ijk index combinations:               10
    Memory available in words        :     31250000000
    ~Words needed per explicit thread:          864000
    Number of threads for explicit ijk threading:   48

    (T) energy                                =   -0.004666652389241
      * CCSD(T) total energy                  = -341.711919979677418


    Psi4 stopped on: Wednesday, 20 January 2021 09:27PM
    Psi4 wall time for execution: 0:00:59.42

*** Psi4 exiting successfully. Buy a developer a beer!
