
    -----------------------------------------------------------------------
          Psi4: An Open-Source Ab Initio Electronic Structure Package
                               Psi4 1.4a3.dev88 

                         Git: Rev {master} 262e345 


    D. G. A. Smith, L. A. Burns, A. C. Simmonett, R. M. Parrish,
    M. C. Schieber, R. Galvelis, P. Kraus, H. Kruse, R. Di Remigio,
    A. Alenaizan, A. M. James, S. Lehtola, J. P. Misiewicz, M. Scheurer,
    R. A. Shaw, J. B. Schriber, Y. Xie, Z. L. Glick, D. A. Sirianni,
    J. S. O'Brien, J. M. Waldrop, A. Kumar, E. G. Hohenstein,
    B. P. Pritchard, B. R. Brooks, H. F. Schaefer III, A. Yu. Sokolov,
    K. Patkowski, A. E. DePrince III, U. Bozkaya, R. A. King,
    F. A. Evangelista, J. M. Turney, T. D. Crawford, C. D. Sherrill,
    J. Chem. Phys. 152(18) 184108 (2020). https://doi.org/10.1063/5.0006002

                            Additional Code Authors
    E. T. Seidl, C. L. Janssen, E. F. Valeev, M. L. Leininger,
    J. F. Gonthier, R. M. Richard, H. R. McAlexander, M. Saitow, X. Wang,
    P. Verma, and M. H. Lechner

             Previous Authors, Complete List of Code Contributors,
                       and Citations for Specific Modules
    https://github.com/psi4/psi4/blob/master/codemeta.json
    https://github.com/psi4/psi4/graphs/contributors
    http://psicode.org/psi4manual/master/introduction.html#citing-psifour

    -----------------------------------------------------------------------


    Psi4 started on: Tuesday, 26 January 2021 06:28PM

    Process ID: 409972
    Host:       n412-040.vsc4.prov
    PSIDATADIR: /home/fs71337/gallo4/psi4/eri-6/psi4/build/stage/share/psi4
    Memory:     500.0 MiB
    Threads:    48
    
  ==> Input File <==

--------------------------------------------------------------------------
# Any line starting with the # character is a comment line
memory 250000 mb
molecule molecule{
-1 3
P          0.0000000000        0.0000000000        0.5283745064
O          0.0000000000        0.0000000000       -1.0228974307
}

set {
  reference uhf
  basis aug-cc-pV(t+d)Z
  scf_type OUT_OF_CORE
  freeze_core true
}

energy('ccsd(t)')
--------------------------------------------------------------------------

  Memory set to 232.831 GiB by Python driver.

Scratch directory: /binfl/lv71337/airmler/temp/

*** tstart() called on n412-040.vsc4.prov
*** at Tue Jan 26 18:28:30 2021

   => Loading Basis Set <=

    Name: AUG-CC-PV(T+D)Z
    Role: ORBITAL
    Keyword: BASIS
    atoms 1 entry P          line   860 file /home/fs71337/gallo4/psi4/eri-6/psi4/build/stage/share/psi4/basis/aug-cc-pv_tpd_z.gbs 
    atoms 2 entry O          line   359 file /home/fs71337/gallo4/psi4/eri-6/psi4/build/stage/share/psi4/basis/aug-cc-pv_tpd_z.gbs 


         ---------------------------------------------------------
                                   SCF
               by Justin Turney, Rob Parrish, Andy Simmonett
                          and Daniel G. A. Smith
                              UHF Reference
                       48 Threads, 238418 MiB Core
         ---------------------------------------------------------

  ==> Geometry <==

    Molecular point group: c2v
    Full point group: C_inf_v

    Geometry (in Angstrom), charge = -1, multiplicity = 3:

       Center              X                  Y                   Z               Mass       
    ------------   -----------------  -----------------  -----------------  -----------------
         P            0.000000000000     0.000000000000     0.528276800035    30.973761998420
         O            0.000000000000     0.000000000000    -1.022995137065    15.994914619570

  Running in c2v symmetry.

  Rotational constants: A = ************  B =      0.66413  C =      0.66413 [cm^-1]
  Rotational constants: A = ************  B =  19910.11497  C =  19910.11497 [MHz]
  Nuclear repulsion =   40.934966824134904

  Charge       = -1
  Multiplicity = 3
  Electrons    = 24
  Nalpha       = 13
  Nbeta        = 11

  ==> Algorithm <==

  SCF Algorithm Type is OUT_OF_CORE.
  DIIS enabled.
  MOM disabled.
  Fractional occupation disabled.
  Guess Type is SAD.
  Energy threshold   = 1.00e-08
  Density threshold  = 1.00e-08
  Integral threshold = 1.00e-12

  ==> Primary Basis <==

  Basis Set: AUG-CC-PV(T+D)Z
    Blend: AUG-CC-PV(T+D)Z
    Number of shells: 31
    Number of basis function: 101
    Number of Cartesian functions: 120
    Spherical Harmonics?: true
    Max angular momentum: 3

  ==> Integral Setup <==

  ==> DiskJK: Disk-Based J/K Matrices <==

    J tasked:                  Yes
    K tasked:                  Yes
    wK tasked:                  No
    Memory [MiB]:           178813
    Schwarz Cutoff:          1E-12

  Minimum eigenvalue in the overlap matrix is 5.3080479760E-04.
  Reciprocal condition number of the overlap matrix is 1.0993130951E-04.
    Using symmetric orthogonalization.

  ==> Pre-Iterations <==

  SCF Guess: Superposition of Atomic Densities via on-the-fly atomic UHF (no occupation information).


 WARNING: Atomic UHF is not converging! Try casting from a smaller basis or call Rob at CCMST.

 WARNING: Atomic UHF is not converging! Try casting from a smaller basis or call Rob at CCMST.
   -------------------------
    Irrep   Nso     Nmo    
   -------------------------
     A1        42      42 
     A2        11      11 
     B1        24      24 
     B2        24      24 
   -------------------------
    Total     101     101
   -------------------------

  ==> Iterations <==

                        Total Energy        Delta E     RMS |[F,P]|

   @UHF iter SAD:  -371.97795118516893   -3.71978e+02   0.00000e+00 
   @UHF iter   1:  -409.58286318143803   -3.76049e+01   8.38618e-02 DIIS
   @UHF iter   2:  -399.72430890733494    9.85855e+00   4.65939e-02 DIIS
   @UHF iter   3:  -410.07715377805073   -1.03528e+01   6.88313e-02 DIIS
   @UHF iter   4:  -411.68909179862976   -1.61194e+00   5.62199e-02 DIIS
   @UHF iter   5:  -414.29688600153059   -2.60779e+00   3.06520e-02 DIIS
   @UHF iter   6:  -415.46933809719098   -1.17245e+00   9.93654e-03 DIIS
   @UHF iter   7:  -415.64569413134745   -1.76356e-01   1.08997e-03 DIIS
   @UHF iter   8:  -415.65055893763702   -4.86481e-03   5.31652e-04 DIIS
   @UHF iter   9:  -415.65261439095798   -2.05545e-03   4.27079e-04 DIIS
   @UHF iter  10:  -415.65353647801311   -9.22087e-04   2.09284e-04 DIIS
   @UHF iter  11:  -415.65408025957413   -5.43782e-04   7.74751e-05 DIIS
   @UHF iter  12:  -415.65413466587120   -5.44063e-05   3.40150e-05 DIIS
   @UHF iter  13:  -415.65414388164845   -9.21578e-06   1.08662e-05 DIIS
   @UHF iter  14:  -415.65414491231837   -1.03067e-06   3.23703e-06 DIIS
   @UHF iter  15:  -415.65414498348889   -7.11705e-08   1.67247e-06 DIIS
   @UHF iter  16:  -415.65414500520239   -2.17135e-08   5.13929e-07 DIIS
   @UHF iter  17:  -415.65414500693919   -1.73679e-09   1.14338e-07 DIIS
   @UHF iter  18:  -415.65414500699916   -5.99698e-11   2.74164e-08 DIIS
   @UHF iter  19:  -415.65414500700291   -3.75167e-12   8.67822e-09 DIIS
  Energy and wave function converged.


  ==> Post-Iterations <==

   @Spin Contamination Metric:   4.547391349E-02
   @S^2 Expected:                2.000000000E+00
   @S^2 Observed:                2.045473913E+00
   @S   Expected:                1.000000000E+00
   @S   Observed:                1.000000000E+00

    Orbital Energies [Eh]
    ---------------------

    Alpha Occupied:                                                       

       1A1   -79.734035     2A1   -20.312216     3A1    -7.270715  
       1B2    -5.170514     1B1    -5.170514     4A1    -5.159061  
       5A1    -1.079439     6A1    -0.519799     2B1    -0.320404  
       2B2    -0.320404     7A1    -0.288639     3B2    -0.075278  
       3B1    -0.075278  

    Alpha Virtual:                                                        

       8A1     0.202363     4B2     0.221606     4B1     0.221606  
       9A1     0.222370    10A1     0.334526     5B1     0.361843  
       5B2     0.361843    11A1     0.379467    12A1     0.380213  
       1A2     0.380213     6B2     0.469681     6B1     0.469681  
      13A1     0.504162    14A1     0.555552     7B2     0.700049  
       7B1     0.700049    15A1     0.754521    16A1     0.774375  
       2A2     0.774375    17A1     0.843457     3A2     0.843457  
       8B2     0.845917     8B1     0.845917     9B2     0.851569  
       9B1     0.851569    18A1     0.863527    19A1     0.969571  
      10B2     1.007691    10B1     1.007691    11B1     1.086483  
      11B2     1.086483    20A1     1.103866     4A2     1.103866  
      21A1     1.196055    22A1     1.261732    12B1     1.547251  
      12B2     1.547251    23A1     1.605512    24A1     1.821263  
       5A2     1.821263    13B2     1.874111    13B1     1.874111  
      25A1     1.956229    26A1     2.029812     6A2     2.032740  
      27A1     2.032740    14B2     2.096983    14B1     2.096983  
      15B2     2.124813    15B1     2.124813    16B1     2.354696  
      16B2     2.354696    28A1     2.512953     7A2     2.559705  
      29A1     2.559705    17B2     2.651430    17B1     2.651431  
      30A1     2.680256     8A2     2.680256    31A1     2.699581  
      18B1     2.731626    18B2     2.731626    32A1     3.089930  
      19B1     3.273701    19B2     3.273701    33A1     3.797513  
      20B1     4.700110    20B2     4.700110    34A1     4.748839  
      35A1     5.465409    36A1     6.441735     9A2     6.441735  
      21B2     6.598315    21B1     6.598315    22B1     6.770635  
      22B2     6.770635    10A2     6.871959    37A1     6.871959  
      38A1     6.921581    23B1     7.052646    23B2     7.052646  
      11A2     7.344678    39A1     7.344678    40A1     7.421552  
      24B1     7.573090    24B2     7.573090    41A1     8.128568  
      42A1    11.782506  

    Beta Occupied:                                                        

       1A1   -79.725591     2A1   -20.286184     3A1    -7.261120  
       4A1    -5.156955     1B1    -5.146266     1B2    -5.146266  
       5A1    -1.009931     6A1    -0.415603     7A1    -0.217955  
       2B2    -0.205353     2B1    -0.205353  

    Beta Virtual:                                                         

       8A1     0.203696     3B2     0.206987     3B1     0.206987  
       9A1     0.231111     4B1     0.328668     4B2     0.328668  
      10A1     0.342191     5B2     0.369178     5B1     0.369178  
      11A1     0.391283     1A2     0.412853    12A1     0.412853  
       6B2     0.498941     6B1     0.498941    13A1     0.507305  
      14A1     0.582165     7B1     0.746628     7B2     0.746628  
      15A1     0.771226     2A2     0.830924    16A1     0.830924  
      17A1     0.864196     3A2     0.875860    18A1     0.875860  
       8B1     0.878620     8B2     0.878620     9B1     0.879687  
       9B2     0.879687    19A1     0.986170    10B2     1.037194  
      10B1     1.037194    11B2     1.112121    11B1     1.112121  
       4A2     1.115702    20A1     1.115702    21A1     1.211277  
      22A1     1.286540    12B2     1.565256    12B1     1.565256  
      23A1     1.627228     5A2     1.857886    24A1     1.857886  
      13B2     1.898107    13B1     1.898107    25A1     1.961442  
      26A1     2.035946     6A2     2.054605    27A1     2.054605  
      14B2     2.144947    14B1     2.144947    15B2     2.150521  
      15B1     2.150521    16B2     2.358947    16B1     2.358947  
      28A1     2.528097     7A2     2.596393    29A1     2.596393  
      17B1     2.684814    17B2     2.684814     8A2     2.690903  
      30A1     2.690903    31A1     2.714238    18B2     2.748869  
      18B1     2.748869    32A1     3.106516    19B2     3.285685  
      19B1     3.285685    33A1     3.806474    20B2     4.747511  
      20B1     4.747511    34A1     4.766123    35A1     5.479207  
      36A1     6.453213     9A2     6.453213    21B2     6.606589  
      21B1     6.606589    22B1     6.798580    22B2     6.798580  
      37A1     6.892007    10A2     6.892007    38A1     6.935262  
      23B1     7.067883    23B2     7.067883    11A2     7.398966  
      39A1     7.398966    40A1     7.438295    24B2     7.605228  
      24B1     7.605228    41A1     8.141642    42A1    11.806113  

    Final Occupation by Irrep:
             A1    A2    B1    B2 
    DOCC [     7,    0,    2,    2 ]
    SOCC [     0,    0,    1,    1 ]

  @UHF Final Energy:  -415.65414500700291

   => Energetics <=

    Nuclear Repulsion Energy =             40.9349668241349036
    One-Electron Energy =                -662.9053474327386084
    Two-Electron Energy =                 206.3162356016008232
    Total Energy =                       -415.6541450070028532

  UHF NO Occupations:
  HONO-2 :    7 A1 1.9907757
  HONO-1 :    3 B2 1.0000000
  HONO-0 :    3 B1 1.0000000
  LUNO+0 :    8 A1 0.0092243
  LUNO+1 :    4 B1 0.0064093
  LUNO+2 :    4 B2 0.0064093
  LUNO+3 :    9 A1 0.0005408


Computation Completed


Properties will be evaluated at   0.000000,   0.000000,   0.000000 [a0]

Properties computed using the SCF density matrix

  Nuclear Dipole Moment: [e a0]
     X:     0.0000      Y:     0.0000      Z:    -0.4910

  Electronic Dipole Moment: [e a0]
     X:     0.0000      Y:     0.0000      Z:     0.7568

  Dipole Moment: [e a0]
     X:     0.0000      Y:     0.0000      Z:     0.2658     Total:     0.2658

  Dipole Moment: [D]
     X:     0.0000      Y:     0.0000      Z:     0.6757     Total:     0.6757


*** tstop() called on n412-040.vsc4.prov at Tue Jan 26 18:28:40 2021
Module time:
	user time   =      48.64 seconds =       0.81 minutes
	system time =       3.02 seconds =       0.05 minutes
	total time  =         10 seconds =       0.17 minutes
Total time:
	user time   =      48.64 seconds =       0.81 minutes
	system time =       3.02 seconds =       0.05 minutes
	total time  =         10 seconds =       0.17 minutes

*** tstart() called on n412-040.vsc4.prov
*** at Tue Jan 26 18:28:40 2021


	Wfn Parameters:
	--------------------
	Wavefunction         = CCSD_T
	Number of irreps     = 4
	Number of MOs        = 101
	Number of active MOs = 95
	AO-Basis             = NONE
	Semicanonical        = false
	Reference            = UHF
	Print Level          = 1

	IRREP	# MOs	# FZDC	# DOCC	# SOCC	# VIRT	# FZVR
	-----	-----	------	------	------	------	------
	 A1	   42	    4	    3	    0	    35	    0
	 A2	   11	    0	    0	    0	    11	    0
	 B1	   24	    1	    1	    1	    21	    0
	 B2	   24	    1	    1	    1	    21	    0
	Transforming integrals...
	IWL integrals will be deleted.
	(OO|OO)...
	Presorting SO-basis two-electron integrals.
	Sorting File: SO Ints (nn|nn) nbuckets = 1
	Constructing frozen core operators
	Starting AA/AB first half-transformation.
	Sorting AA/AB half-transformed integrals.
	Starting BB first half-transformation.
	Sorting BB half-transformed integrals.
	First half integral transformation complete.
	Starting AA second half-transformation.
	Starting AB second half-transformation.
	Starting BB second half-transformation.
	Two-electron integral transformation complete.
	(OO|OV)...
	Starting AA second half-transformation.
	Starting AB second half-transformation.
	Starting BB second half-transformation.
	Two-electron integral transformation complete.
	(OO|VV)...
	Starting AA second half-transformation.
	Starting AB second half-transformation.
	Starting BB second half-transformation.
	Two-electron integral transformation complete.
	(OV|OO)...
	Starting AA/AB first half-transformation.
	Sorting AA/AB half-transformed integrals.
	Starting BB first half-transformation.
	Sorting BB half-transformed integrals.
	First half integral transformation complete.
	Starting AA second half-transformation.
	Starting AB second half-transformation.
	Starting BB second half-transformation.
	Two-electron integral transformation complete.
	(OV|OV)...
	Starting AA second half-transformation.
	Starting AB second half-transformation.
	Starting BB second half-transformation.
	Two-electron integral transformation complete.
	(OV|VV)...
	Starting AA second half-transformation.
	Starting AB second half-transformation.
	Starting BB second half-transformation.
	Two-electron integral transformation complete.
	(VV|OO)...
	Starting AA/AB first half-transformation.
	Sorting AA/AB half-transformed integrals.
	Starting BB first half-transformation.
	Sorting BB half-transformed integrals.
	First half integral transformation complete.
	Starting AA second half-transformation.
	Starting AB second half-transformation.
	Starting BB second half-transformation.
	Two-electron integral transformation complete.
	(VV|OV)...
	Starting AA second half-transformation.
	Starting AB second half-transformation.
	Starting BB second half-transformation.
	Two-electron integral transformation complete.
	(VV|VV)...
	Starting AA second half-transformation.
	Starting AB second half-transformation.
	Starting BB second half-transformation.
	Two-electron integral transformation complete.
	Frozen core energy     =   -424.16967008272508

	Size of irrep 0 of <AB|CD> integrals:      1.145 (MW) /      9.159 (MB)
	Size of irrep 1 of <AB|CD> integrals:      0.682 (MW) /      5.458 (MB)
	Size of irrep 2 of <AB|CD> integrals:      0.933 (MW) /      7.465 (MB)
	Size of irrep 3 of <AB|CD> integrals:      0.933 (MW) /      7.465 (MB)
	Total:                                     3.693 (MW) /     29.548 (MB)

	Size of irrep 0 of <ab|cd> integrals:      1.237 (MW) /      9.892 (MB)
	Size of irrep 1 of <ab|cd> integrals:      0.755 (MW) /      6.041 (MB)
	Size of irrep 2 of <ab|cd> integrals:      1.024 (MW) /      8.193 (MB)
	Size of irrep 3 of <ab|cd> integrals:      1.024 (MW) /      8.193 (MB)
	Total:                                     4.040 (MW) /     32.320 (MB)

	Size of irrep 0 of <Ab|Cd> integrals:      5.153 (MW) /     41.223 (MB)
	Size of irrep 1 of <Ab|Cd> integrals:      2.870 (MW) /     22.957 (MB)
	Size of irrep 2 of <Ab|Cd> integrals:      3.912 (MW) /     31.300 (MB)
	Size of irrep 3 of <Ab|Cd> integrals:      3.912 (MW) /     31.300 (MB)
	Total:                                    15.848 (MW) /    126.780 (MB)

	Size of irrep 0 of <IA|BC> integrals:      0.421 (MW) /      3.369 (MB)
	Size of irrep 1 of <IA|BC> integrals:      0.193 (MW) /      1.546 (MB)
	Size of irrep 2 of <IA|BC> integrals:      0.299 (MW) /      2.396 (MB)
	Size of irrep 3 of <IA|BC> integrals:      0.299 (MW) /      2.396 (MB)
	Total:                                     1.213 (MW) /      9.706 (MB)

	Size of irrep 0 of <ia|bc> integrals:      0.345 (MW) /      2.758 (MB)
	Size of irrep 1 of <ia|bc> integrals:      0.134 (MW) /      1.071 (MB)
	Size of irrep 2 of <ia|bc> integrals:      0.227 (MW) /      1.814 (MB)
	Size of irrep 3 of <ia|bc> integrals:      0.227 (MW) /      1.814 (MB)
	Total:                                     0.932 (MW) /      7.456 (MB)

	Size of irrep 0 of <Ia|Bc> integrals:      0.438 (MW) /      3.505 (MB)
	Size of irrep 1 of <Ia|Bc> integrals:      0.205 (MW) /      1.640 (MB)
	Size of irrep 2 of <Ia|Bc> integrals:      0.313 (MW) /      2.500 (MB)
	Size of irrep 3 of <Ia|Bc> integrals:      0.313 (MW) /      2.500 (MB)
	Total:                                     1.268 (MW) /     10.145 (MB)

	Size of irrep 0 of <iA|bC> integrals:      0.334 (MW) /      2.670 (MB)
	Size of irrep 1 of <iA|bC> integrals:      0.127 (MW) /      1.016 (MB)
	Size of irrep 2 of <iA|bC> integrals:      0.216 (MW) /      1.725 (MB)
	Size of irrep 3 of <iA|bC> integrals:      0.216 (MW) /      1.725 (MB)
	Total:                                     0.892 (MW) /      7.136 (MB)

	Size of irrep 0 of tIjAb amplitudes:       0.030 (MW) /      0.236 (MB)
	Size of irrep 1 of tIjAb amplitudes:       0.007 (MW) /      0.054 (MB)
	Size of irrep 2 of tIjAb amplitudes:       0.018 (MW) /      0.142 (MB)
	Size of irrep 3 of tIjAb amplitudes:       0.018 (MW) /      0.142 (MB)
	Total:                                     0.072 (MW) /      0.575 (MB)

	Nuclear Rep. energy          =     40.93496682413490
	SCF energy                   =   -415.65414500700291
	One-electron energy          =    -60.10544529195840
	Two-electron (AA) energy     =      7.65128617831718
	Two-electron (BB) energy     =      4.12847720473412
	Two-electron (AB) energy     =     15.90624016049375
	Two-electron energy          =     27.68600354354505
	Reference energy             =   -415.65414500700354

*** tstop() called on n412-040.vsc4.prov at Tue Jan 26 18:28:51 2021
Module time:
	user time   =       2.94 seconds =       0.05 minutes
	system time =       1.61 seconds =       0.03 minutes
	total time  =         11 seconds =       0.18 minutes
Total time:
	user time   =      51.58 seconds =       0.86 minutes
	system time =       4.63 seconds =       0.08 minutes
	total time  =         21 seconds =       0.35 minutes
            **************************
            *                        *
            *        CCENERGY        *
            *                        *
            **************************

    Nuclear Rep. energy (wfn)     =   40.934966824134904
    SCF energy          (wfn)     = -415.654145007002910
    Reference energy    (file100) = -415.654145007003535

    Input parameters:
    -----------------
    Wave function   =     CCSD_T
    Reference wfn   =     UHF
    Brueckner       =     No
    Memory (Mbytes) =     250000.0
    Maxiter         =     50
    R_Convergence   =     1.0e-07
    E_Convergence   =     1.0e-06
    Restart         =     Yes
    DIIS            =     Yes
    AO Basis        =     NONE
    ABCD            =     NEW
    Cache Level     =     2
    Cache Type      =     LRU
    Print Level     =     1
    Num. of threads =     48
    # Amps to Print =     10
    Print MP2 Amps? =     No
    Analyze T2 Amps =     No
    Print Pair Ener =     No
    Local CC        =     No
    SCS-MP2         =     False
    SCSN-MP2        =     False
    SCS-CCSD        =     False

MP2 correlation energy -0.3734607777147789
                Solving CC Amplitude Equations
                ------------------------------
  Iter             Energy              RMS        T1Diag      D1Diag    New D1Diag    D2Diag
  ----     ---------------------    ---------   ----------  ----------  ----------   --------
     0        -0.373460777714779    0.000e+00    0.000000    0.000000    0.000000    0.000000
     1        -0.365489782714709    1.099e-01    0.025182    0.000000    0.000000    0.000000
     2        -0.378171745811840    4.180e-02    0.024013    0.000000    0.000000    0.000000
     3        -0.382346299708775    2.379e-02    0.030681    0.000000    0.000000    0.000000
     4        -0.382188040449434    8.107e-03    0.033559    0.000000    0.000000    0.000000
     5        -0.382105171859290    4.092e-03    0.034826    0.000000    0.000000    0.000000
     6        -0.382168700591090    1.543e-03    0.035300    0.000000    0.000000    0.000000
     7        -0.382154780357244    7.684e-04    0.035401    0.000000    0.000000    0.000000
     8        -0.382153556537946    2.660e-04    0.035419    0.000000    0.000000    0.000000
     9        -0.382161322797663    1.288e-04    0.035434    0.000000    0.000000    0.000000
    10        -0.382156963200352    5.686e-05    0.035437    0.000000    0.000000    0.000000
    11        -0.382156461957531    2.329e-05    0.035434    0.000000    0.000000    0.000000
    12        -0.382156315598630    1.186e-05    0.035437    0.000000    0.000000    0.000000
    13        -0.382156126009626    4.308e-06    0.035436    0.000000    0.000000    0.000000
    14        -0.382156202434171    2.059e-06    0.035436    0.000000    0.000000    0.000000
    15        -0.382156227608326    7.773e-07    0.035436    0.000000    0.000000    0.000000
    16        -0.382156214486560    3.558e-07    0.035436    0.000000    0.000000    0.000000
    17        -0.382156217658029    1.472e-07    0.035436    0.000000    0.000000    0.000000
    18        -0.382156216495851    5.734e-08    0.035436    0.000000    0.000000    0.000000

    Iterations converged.


    Largest TIA Amplitudes:
              6  67        -0.0258000568
              4  46        -0.0258000510
              3  48        -0.0247073643
              5  69        -0.0247073581
              3  47         0.0217045533
              5  68         0.0217045469
              2   3        -0.0211415860
              2   2        -0.0182439857
              2   7         0.0150168006
              2   6         0.0142204021

    Largest Tia Amplitudes:
              4  69         0.0448419073
              3  47         0.0448418344
              2   3         0.0217024367
              4  68        -0.0201498182
              3  46        -0.0201497609
              1   3        -0.0190624178
              1   6         0.0186322334
              2   6        -0.0140197311
              4  72        -0.0132041026
              3  50        -0.0132040956

    Largest TIJAB Amplitudes:
      6   4  35   4        -0.0255045808
      6   4  36   8        -0.0212307512
      6   4  67  46        -0.0211906495
      6   4  35   8        -0.0185153578
      6   4  36   4        -0.0185153578
      6   4  69  48        -0.0149083138
      6   4  70  46         0.0139714020
      6   4  67  49         0.0139714013
      6   4  70  49        -0.0136042267
      6   2  71   3        -0.0119941059

    Largest Tijab Amplitudes:
      4   3  69  47        -0.0252458239
      4   3  69  49        -0.0151936282
      4   3  71  47        -0.0151936256
      3   2  47   6        -0.0149729622
      4   2  69   6        -0.0149729571
      3   2  47   3         0.0143666390
      4   2  69   3         0.0143666303
      4   3  69  48        -0.0137966804
      4   3  70  47        -0.0137966717
      4   3  69  46         0.0125320205

    Largest TIjAb Amplitudes:
      4   2  36  69        -0.0249213057
      6   2   8  69         0.0249213034
      4   2   8  47        -0.0249213030
      6   2  36  47        -0.0249213007
      2   2   7   7        -0.0231767660
      4   2   4  47        -0.0230525489
      4   2  35  69        -0.0230525325
      6   2  35  47        -0.0230525266
      6   2   4  69         0.0230525102
      4   1  36  69         0.0202623891

    SCF energy       (wfn)                    = -415.654145007002910
    Reference energy (file100)                = -415.654145007003535

    Opposite-spin MP2 correlation energy      =   -0.273087463430044
    Same-spin MP2 correlation energy          =   -0.100373314284735
    Singles MP2 correlation energy            =   -0.000000000000000
    MP2 correlation energy                    =   -0.373460777714779
      * MP2 total energy                      = -416.027605784718332

    Opposite-spin CCSD correlation energy     =   -0.292324673155326
    Same-spin CCSD correlation energy         =   -0.089831543340524
    Singles CCSD correlation energy           =   -0.000000000000001
    CCSD correlation energy                   =   -0.382156216495851
      * CCSD total energy                     = -416.036301223499379

            **************************
            *                        *
            *        CCTRIPLES       *
            *                        *
            **************************


    Wave function   =    CCSD_T
    Reference wfn   =      UHF

    Nuclear Rep. energy (wfn)                =   40.934966824134904
    SCF energy          (wfn)                = -415.654145007002910
    Reference energy    (file100)            = -415.654145007003535
    CCSD energy         (file100)            =   -0.382156216495851
    Total CCSD energy   (file100)            = -416.036301223499379

    Number of ijk index combinations:
    Spin Case AAA:                                  35
    Spin Case BBB:                                  10
    Spin Case AAB:                                 105
    Spin Case ABB:                                  70
    AAA (T) energy                             =   -0.000555732535202
    BBB (T) energy                             =   -0.000605324001710
    AAB (T) energy                             =   -0.009936827025642
    ABB (T) energy                             =   -0.008832721237791
    (T) energy                                   =   -0.019930604800344
      * CCSD(T) total energy                     = -416.056231828299758


    Psi4 stopped on: Tuesday, 26 January 2021 06:29PM
    Psi4 wall time for execution: 0:00:44.01

*** Psi4 exiting successfully. Buy a developer a beer!
