
    -----------------------------------------------------------------------
          Psi4: An Open-Source Ab Initio Electronic Structure Package
                               Psi4 1.4a3.dev88 

                         Git: Rev {master} 262e345 


    D. G. A. Smith, L. A. Burns, A. C. Simmonett, R. M. Parrish,
    M. C. Schieber, R. Galvelis, P. Kraus, H. Kruse, R. Di Remigio,
    A. Alenaizan, A. M. James, S. Lehtola, J. P. Misiewicz, M. Scheurer,
    R. A. Shaw, J. B. Schriber, Y. Xie, Z. L. Glick, D. A. Sirianni,
    J. S. O'Brien, J. M. Waldrop, A. Kumar, E. G. Hohenstein,
    B. P. Pritchard, B. R. Brooks, H. F. Schaefer III, A. Yu. Sokolov,
    K. Patkowski, A. E. DePrince III, U. Bozkaya, R. A. King,
    F. A. Evangelista, J. M. Turney, T. D. Crawford, C. D. Sherrill,
    J. Chem. Phys. 152(18) 184108 (2020). https://doi.org/10.1063/5.0006002

                            Additional Code Authors
    E. T. Seidl, C. L. Janssen, E. F. Valeev, M. L. Leininger,
    J. F. Gonthier, R. M. Richard, H. R. McAlexander, M. Saitow, X. Wang,
    P. Verma, and M. H. Lechner

             Previous Authors, Complete List of Code Contributors,
                       and Citations for Specific Modules
    https://github.com/psi4/psi4/blob/master/codemeta.json
    https://github.com/psi4/psi4/graphs/contributors
    http://psicode.org/psi4manual/master/introduction.html#citing-psifour

    -----------------------------------------------------------------------


    Psi4 started on: Sunday, 24 January 2021 04:36PM

    Process ID: 159944
    Host:       n412-047.vsc4.prov
    PSIDATADIR: /home/fs71337/gallo4/psi4/eri-6/psi4/build/stage/share/psi4
    Memory:     500.0 MiB
    Threads:    48
    
  ==> Input File <==

--------------------------------------------------------------------------
# Any line starting with the # character is a comment line
memory 250000 mb
molecule molecule{
-1 3
P          0.0000000000        0.0000000000        0.5283745064
O          0.0000000000        0.0000000000       -1.0228974307
}

set {
  reference uhf
  basis aug-cc-pV(6+d)Z
  scf_type OUT_OF_CORE
  freeze_core true
}

energy('ccsd(t)')
--------------------------------------------------------------------------

  Memory set to 232.831 GiB by Python driver.

Scratch directory: /binfl/lv71337/airmler/temp/

*** tstart() called on n412-047.vsc4.prov
*** at Sun Jan 24 16:36:11 2021

   => Loading Basis Set <=

    Name: AUG-CC-PV(6+D)Z
    Role: ORBITAL
    Keyword: BASIS
    atoms 1 entry P          line  1025 file /home/fs71337/gallo4/psi4/eri-6/psi4/build/stage/share/psi4/basis/aug-cc-pv_6pd_z.gbs 
    atoms 2 entry O          line   459 file /home/fs71337/gallo4/psi4/eri-6/psi4/build/stage/share/psi4/basis/aug-cc-pv_6pd_z.gbs 


         ---------------------------------------------------------
                                   SCF
               by Justin Turney, Rob Parrish, Andy Simmonett
                          and Daniel G. A. Smith
                              UHF Reference
                       48 Threads, 238418 MiB Core
         ---------------------------------------------------------

  ==> Geometry <==

    Molecular point group: c2v
    Full point group: C_inf_v

    Geometry (in Angstrom), charge = -1, multiplicity = 3:

       Center              X                  Y                   Z               Mass       
    ------------   -----------------  -----------------  -----------------  -----------------
         P            0.000000000000     0.000000000000     0.528276800035    30.973761998420
         O            0.000000000000     0.000000000000    -1.022995137065    15.994914619570

  Running in c2v symmetry.

  Rotational constants: A = ************  B =      0.66413  C =      0.66413 [cm^-1]
  Rotational constants: A = ************  B =  19910.11497  C =  19910.11497 [MHz]
  Nuclear repulsion =   40.934966824134904

  Charge       = -1
  Multiplicity = 3
  Electrons    = 24
  Nalpha       = 13
  Nbeta        = 11

  ==> Algorithm <==

  SCF Algorithm Type is OUT_OF_CORE.
  DIIS enabled.
  MOM disabled.
  Fractional occupation disabled.
  Guess Type is SAD.
  Energy threshold   = 1.00e-08
  Density threshold  = 1.00e-08
  Integral threshold = 1.00e-12

  ==> Primary Basis <==

  Basis Set: AUG-CC-PV(6+D)Z
    Blend: AUG-CC-PV(6+D)Z
    Number of shells: 73
    Number of basis function: 387
    Number of Cartesian functions: 598
    Spherical Harmonics?: true
    Max angular momentum: 6

  ==> Integral Setup <==

  ==> DiskJK: Disk-Based J/K Matrices <==

    J tasked:                  Yes
    K tasked:                  Yes
    wK tasked:                  No
    Memory [MiB]:           178813
    Schwarz Cutoff:          1E-12

  Minimum eigenvalue in the overlap matrix is 5.0959189494E-06.
  Reciprocal condition number of the overlap matrix is 7.2294649016E-07.
    Using symmetric orthogonalization.

  ==> Pre-Iterations <==

  SCF Guess: Superposition of Atomic Densities via on-the-fly atomic UHF (no occupation information).


 WARNING: Atomic UHF is not converging! Try casting from a smaller basis or call Rob at CCMST.

 WARNING: Atomic UHF is not converging! Try casting from a smaller basis or call Rob at CCMST.
   -------------------------
    Irrep   Nso     Nmo    
   -------------------------
     A1       136     136 
     A2        63      63 
     B1        94      94 
     B2        94      94 
   -------------------------
    Total     387     387
   -------------------------

  ==> Iterations <==

                        Total Energy        Delta E     RMS |[F,P]|

   @UHF iter SAD:   477.23053435633841    4.77231e+02   0.00000e+00 
    Occupation by irrep:
             A1    A2    B1    B2 
    DOCC [     7,    0,    2,    2 ]
    SOCC [     1,    1,    0,    0 ]

   @UHF iter   1:  -370.40649944113051   -8.47637e+02   7.16053e-02 DIIS
    Occupation by irrep:
             A1    A2    B1    B2 
    DOCC [     7,    0,    2,    2 ]
    SOCC [     0,    0,    1,    1 ]

   @UHF iter   2:  -319.90480478430027    5.05017e+01   5.46075e-02 DIIS
   @UHF iter   3:  -390.17259319664356   -7.02678e+01   4.38245e-02 DIIS
   @UHF iter   4:  -413.59054637198795   -2.34180e+01   1.52580e-02 DIIS
   @UHF iter   5:  -406.25686610707987    7.33368e+00   1.18768e-02 DIIS
   @UHF iter   6:  -413.97843850555063   -7.72157e+00   1.00161e-02 DIIS
   @UHF iter   7:  -414.70132822174679   -7.22890e-01   7.07608e-03 DIIS
   @UHF iter   8:  -415.48246640541424   -7.81138e-01   2.76744e-03 DIIS
   @UHF iter   9:  -415.65147690400198   -1.69010e-01   4.38250e-04 DIIS
   @UHF iter  10:  -415.66080735972190   -9.33046e-03   1.44313e-04 DIIS
   @UHF iter  11:  -415.66262789081168   -1.82053e-03   9.58478e-05 DIIS
   @UHF iter  12:  -415.66363248845778   -1.00460e-03   5.07033e-05 DIIS
   @UHF iter  13:  -415.66398087356788   -3.48385e-04   2.55825e-05 DIIS
   @UHF iter  14:  -415.66404390920559   -6.30356e-05   8.66719e-06 DIIS
   @UHF iter  15:  -415.66405147696031   -7.56775e-06   3.21791e-06 DIIS
   @UHF iter  16:  -415.66405256128343   -1.08432e-06   8.95958e-07 DIIS
   @UHF iter  17:  -415.66405263777722   -7.64938e-08   3.94277e-07 DIIS
   @UHF iter  18:  -415.66405265239507   -1.46179e-08   1.37181e-07 DIIS
   @UHF iter  19:  -415.66405265407843   -1.68336e-09   3.30380e-08 DIIS
   @UHF iter  20:  -415.66405265414977   -7.13385e-11   8.56344e-09 DIIS
  Energy and wave function converged.


  ==> Post-Iterations <==

   @Spin Contamination Metric:   4.571517646E-02
   @S^2 Expected:                2.000000000E+00
   @S^2 Observed:                2.045715176E+00
   @S   Expected:                1.000000000E+00
   @S   Observed:                1.000000000E+00

    Orbital Energies [Eh]
    ---------------------

    Alpha Occupied:                                                       

       1A1   -79.733087     2A1   -20.308495     3A1    -7.269768  
       1B1    -5.170328     1B2    -5.170328     4A1    -5.158352  
       5A1    -1.078281     6A1    -0.519623     2B2    -0.320482  
       2B1    -0.320482     7A1    -0.288857     3B2    -0.075520  
       3B1    -0.075520  

    Alpha Virtual:                                                        

       8A1     0.158361     4B2     0.163626     4B1     0.163626  
       9A1     0.163978     5B1     0.223389     5B2     0.223389  
      10A1     0.230336    11A1     0.292444     1A2     0.292444  
      12A1     0.293434     6B1     0.327177     6B2     0.327177  
      13A1     0.332435    14A1     0.340708     7B1     0.389136  
       7B2     0.389136    15A1     0.493619    16A1     0.504933  
       2A2     0.504933     8B2     0.509821     8B1     0.509821  
       9B1     0.535093     9B2     0.535093    17A1     0.535513  
      18A1     0.558768     3A2     0.558768    19A1     0.581497  
      10B2     0.597452    10B1     0.597452    20A1     0.645010  
      11B1     0.647839    11B2     0.647839    21A1     0.650246  
      22A1     0.653293     4A2     0.653293    12B1     0.762706  
      12B2     0.762706    23A1     0.895792     5A2     0.895792  
      13B2     0.902120    13B1     0.902120    24A1     0.917283  
      25A1     0.979831    14B1     0.984652    14B2     0.984652  
      26A1     0.992377     6A2     0.992377    15B1     1.041828  
      15B2     1.041828    27A1     1.052255    16B2     1.111781  
      16B1     1.111781    28A1     1.115501     7A2     1.115501  
      29A1     1.131052    30A1     1.134776     8A2     1.134776  
      17B1     1.175655    17B2     1.175655    18B2     1.207183  
      18B1     1.207183    31A1     1.219439    32A1     1.222667  
       9A2     1.222667    19B1     1.253686    19B2     1.253686  
      33A1     1.272325    20B2     1.367981    20B1     1.367981  
      34A1     1.380132    21B2     1.493224    21B1     1.493224  
      35A1     1.658215    36A1     1.677543    10A2     1.677543  
      37A1     1.834824    22B1     1.841372    22B2     1.841372  
      11A2     1.844408    38A1     1.844408    39A1     1.970792  
      12A2     1.970792    23B2     1.971047    23B1     1.971047  
      24B2     1.988447    24B1     1.988447    40A1     2.010387  
      25B2     2.014984    25B1     2.014984    13A2     2.025810  
      41A1     2.025810    26B1     2.031459    26B2     2.031459  
      42A1     2.088470    43A1     2.175078    14A2     2.175078  
      27B1     2.197162    27B2     2.197162    44A1     2.211816  
      15A2     2.211816    45A1     2.215399    28B1     2.258321  
      28B2     2.258321    46A1     2.270495    29B1     2.367298  
      29B2     2.367298    47A1     2.428456    16A2     2.428456  
      30B1     2.442274    30B2     2.442274    48A1     2.498497  
      17A2     2.498497    49A1     2.577979    31B2     2.631680  
      31B1     2.631680    32B1     2.675710    32B2     2.675710  
      50A1     2.752948    18A2     2.752948    51A1     2.771509  
      33B2     3.016486    33B1     3.016486    52A1     3.049136  
      19A2     3.049136    34B2     3.110079    34B1     3.110079  
      53A1     3.120912    54A1     3.240716    35B2     3.298083  
      35B1     3.298083    55A1     3.344809    36B2     3.533904  
      36B1     3.533904    56A1     3.614514    20A2     3.614514  
      37B2     3.639284    37B1     3.639284    21A2     3.644845  
      57A1     3.644845    58A1     3.822585    22A2     3.822585  
      59A1     3.830599    38B2     3.852977    38B1     3.852977  
      23A2     3.862088    60A1     3.862088    39B1     3.889790  
      39B2     3.889790    40B2     3.954511    40B1     3.954511  
      24A2     3.962259    61A1     3.962259    62A1     3.968710  
      63A1     4.025542    25A2     4.025542    41B2     4.055229  
      41B1     4.055229    42B1     4.178452    42B2     4.178452  
      64A1     4.199896    26A2     4.233025    65A1     4.233025  
      27A2     4.299519    66A1     4.299519    43B2     4.310078  
      43B1     4.310078    44B1     4.331449    44B2     4.331449  
      67A1     4.410560    68A1     4.565743    45B2     4.575198  
      45B1     4.575198    46B1     4.628430    46B2     4.628430  
      28A2     4.729699    69A1     4.729699    47B2     4.816403  
      47B1     4.816403    70A1     4.933855    29A2     5.178627  
      71A1     5.178627    30A2     5.334745    72A1     5.334745  
      48B1     5.347679    48B2     5.347679    73A1     5.354687  
      49B2     5.616531    49B1     5.616531    50B2     5.648629  
      50B1     5.648629    51B2     5.794224    51B1     5.794224  
      31A2     5.805453    74A1     5.805453    75A1     5.815547  
      32A2     5.815547    76A1     5.835812    77A1     5.891499  
      52B2     6.039003    52B1     6.039003    78A1     6.192911  
      33A2     6.192911    53B2     6.212356    53B1     6.212356  
      79A1     6.426730    54B2     6.434897    54B1     6.434897  
      34A2     6.608719    80A1     6.608719    55B2     6.823851  
      55B1     6.823851    81A1     7.095312    82A1     7.197903  
      56B1     7.280525    56B2     7.280525    35A2     7.357776  
      83A1     7.357776    57B1     7.393778    57B2     7.393778  
      36A2     7.422761    84A1     7.422761    58B2     7.587962  
      58B1     7.587962    37A2     7.722763    85A1     7.722763  
      86A1     7.754030    38A2     7.754030    59B2     7.766545  
      59B1     7.766545    87A1     7.807713    39A2     7.807713  
      88A1     7.816626    60B1     7.999796    60B2     7.999796  
      89A1     8.098801    61B2     8.102705    61B1     8.102705  
      62B2     8.134633    62B1     8.134633    90A1     8.158307  
      40A2     8.158307    41A2     8.244225    91A1     8.244225  
      63B2     8.258149    63B1     8.258149    92A1     8.300427  
      64B1     8.372610    64B2     8.372610    93A1     8.554002  
      42A2     9.004914    94A1     9.004914    65B1     9.015133  
      65B2     9.015133    95A1     9.243298    66B2     9.287373  
      66B1     9.287373    43A2     9.392444    96A1     9.392444  
      67B2     9.667278    67B1     9.667278    97A1     9.669231  
      44A2     9.669231    68B1     9.714229    68B2     9.714229  
      98A1     9.759049    45A2     9.799876    99A1     9.799876  
      69B1     9.831205    69B2     9.831205    46A2    10.081592  
     100A1    10.081592    70B2    10.941874    70B1    10.941874  
      71B2    10.981298    71B1    10.981298   101A1    11.007756  
      72B1    11.149537    72B2    11.149537   102A1    11.359833  
      47A2    11.410744   103A1    11.410744   104A1    11.598378  
      48A2    11.703986   105A1    11.703986    73B2    11.831713  
      73B1    11.831713    74B2    11.852411    74B1    11.852411  
      49A2    11.875197   106A1    11.875197   107A1    12.009138  
      75B2    12.341467    75B1    12.341467    76B2    12.797864  
      76B1    12.797864   108A1    13.112490    50A2    13.355881  
     109A1    13.355881    51A2    13.504437   110A1    13.504437  
      77B2    13.677406    77B1    13.677406    52A2    14.184815  
     111A1    14.184815    78B2    14.496762    78B1    14.496762  
      79B2    14.626408    79B1    14.626408   112A1    14.835547  
     113A1    15.157514    53A2    15.502487   114A1    15.502487  
      80B2    16.545880    80B1    16.545880   115A1    17.141101  
     116A1    21.970684    54A2    23.043782   117A1    23.043782  
      81B2    23.062781    81B1    23.062781    55A2    23.204782  
     118A1    23.204782    82B2    23.543521    82B1    23.543521  
      83B2    23.635353    83B1    23.635353    56A2    23.783414  
     119A1    23.783414   120A1    23.805863    84B2    23.870971  
      84B1    23.870971   121A1    24.799005    57A2    26.203267  
     122A1    26.203267    85B2    26.627309    85B1    26.627309  
     123A1    26.779782    86B1    27.138435    86B2    27.138435  
     124A1    27.263227    58A2    27.263227    87B2    27.341094  
      87B1    27.341094    88B2    27.490691    88B1    27.490691  
      59A2    27.534660   125A1    27.534660    89B2    27.699719  
      89B1    27.699719   126A1    27.798943    90B1    28.900569  
      90B2    28.900569    60A2    29.343256   127A1    29.343256  
     128A1    29.851405    91B2    30.214592    91B1    30.214592  
     129A1    31.821285    61A2    31.821285    92B2    32.001594  
      92B1    32.001594    62A2    32.464153   130A1    32.464153  
      93B2    32.548516    93B1    32.548516   131A1    32.648810  
     132A1    32.987386    63A2    35.253247   133A1    35.253247  
      94B2    36.129184    94B1    36.129184   134A1    36.699751  
     135A1   103.303163   136A1   215.264582  

    Beta Occupied:                                                        

       1A1   -79.723956     2A1   -20.282581     3A1    -7.260181  
       4A1    -5.156158     1B2    -5.145275     1B1    -5.145275  
       5A1    -1.008855     6A1    -0.415367     7A1    -0.218172  
       2B1    -0.205660     2B2    -0.205660  

    Beta Virtual:                                                         

       3B1     0.160171     3B2     0.160171     8A1     0.160490  
       9A1     0.164755     4B1     0.223838     4B2     0.223838  
      10A1     0.233593     5B1     0.288701     5B2     0.288701  
      11A1     0.298666     1A2     0.304610    12A1     0.304610  
      13A1     0.334874     6B1     0.337323     6B2     0.337323  
      14A1     0.353150     7B2     0.438079     7B1     0.438079  
      15A1     0.504214     2A2     0.513697    16A1     0.513697  
       8B1     0.518328     8B2     0.518328    17A1     0.540819  
       9B1     0.547393     9B2     0.547393     3A2     0.591466  
      18A1     0.591466    19A1     0.596609    10B1     0.607137  
      10B2     0.607137    20A1     0.650654    21A1     0.661753  
      11B1     0.664939    11B2     0.664939     4A2     0.680843  
      22A1     0.680843    12B2     0.792521    12B1     0.792521  
      23A1     0.904392     5A2     0.904392    13B1     0.907289  
      13B2     0.907289    24A1     0.932798    25A1     0.982710  
      14B1     0.990951    14B2     0.990951     6A2     1.003090  
      26A1     1.003090    27A1     1.057055    15B1     1.085923  
      15B2     1.085923     7A2     1.129172    28A1     1.129172  
      16B1     1.132246    16B2     1.132246    29A1     1.135020  
       8A2     1.176784    30A1     1.176784    17B1     1.185067  
      17B2     1.185067    18B1     1.218050    18B2     1.218050  
      31A1     1.226711     9A2     1.231999    32A1     1.231999  
      19B2     1.263351    19B1     1.263351    33A1     1.290624  
      34A1     1.390730    20B1     1.393395    20B2     1.393395  
      21B1     1.505443    21B2     1.505443    35A1     1.670019  
      10A2     1.690877    36A1     1.690877    11A2     1.851921  
      37A1     1.851921    22B1     1.853684    22B2     1.853684  
      38A1     1.856036    23B2     1.983686    23B1     1.983686  
      39A1     1.993460    12A2     1.993460    24B1     1.997550  
      24B2     1.997550    40A1     2.016158    25B1     2.022694  
      25B2     2.022694    13A2     2.037613    41A1     2.037613  
      26B1     2.039599    26B2     2.039599    42A1     2.096505  
      14A2     2.190015    43A1     2.190015    27B1     2.209488  
      27B2     2.209488    44A1     2.218755    15A2     2.230913  
      45A1     2.230913    46A1     2.277374    28B1     2.298201  
      28B2     2.298201    29B1     2.387096    29B2     2.387096  
      16A2     2.444071    47A1     2.444071    30B1     2.471976  
      30B2     2.471976    17A2     2.498918    48A1     2.498918  
      49A1     2.584737    31B2     2.635197    31B1     2.635197  
      32B1     2.681878    32B2     2.681878    18A2     2.756352  
      50A1     2.756352    51A1     2.775178    33B2     3.019212  
      33B1     3.019212    19A2     3.077392    52A1     3.077392  
      34B1     3.127350    34B2     3.127350    53A1     3.139521  
      54A1     3.249444    35B1     3.316185    35B2     3.316185  
      55A1     3.360557    36B1     3.543057    36B2     3.543057  
      20A2     3.626284    56A1     3.626284    37B2     3.649506  
      37B1     3.649506    57A1     3.659954    21A2     3.659954  
      58A1     3.829199    22A2     3.829199    59A1     3.841549  
      38B2     3.869579    38B1     3.869579    23A2     3.889637  
      60A1     3.889637    39B1     3.904387    39B2     3.904387  
      40B1     3.976188    40B2     3.976188    61A1     3.977000  
      24A2     3.978915    62A1     3.978915    25A2     4.036730  
      63A1     4.036730    41B1     4.068074    41B2     4.068074  
      42B1     4.186774    42B2     4.186774    64A1     4.205719  
      26A2     4.243482    65A1     4.243482    27A2     4.310559  
      66A1     4.310559    43B2     4.319938    43B1     4.319938  
      44B1     4.339083    44B2     4.339083    67A1     4.421474  
      68A1     4.572020    45B2     4.599533    45B1     4.599533  
      46B1     4.643123    46B2     4.643123    28A2     4.746118  
      69A1     4.746118    47B2     4.816984    47B1     4.816984  
      70A1     4.942869    29A2     5.190344    71A1     5.190344  
      30A2     5.336605    72A1     5.336605    48B1     5.357085  
      48B2     5.357085    73A1     5.366720    49B1     5.632066  
      49B2     5.632066    50B2     5.659499    50B1     5.659499  
      51B2     5.797394    51B1     5.797394    31A2     5.810851  
      74A1     5.810851    32A2     5.821920    75A1     5.821920  
      76A1     5.839888    77A1     5.899182    52B2     6.046697  
      52B1     6.046697    33A2     6.212735    78A1     6.212735  
      53B1     6.224414    53B2     6.224414    79A1     6.437055  
      54B2     6.442275    54B1     6.442275    34A2     6.625869  
      80A1     6.625869    55B1     6.839467    55B2     6.839467  
      81A1     7.106977    82A1     7.203526    56B1     7.291682  
      56B2     7.291682    35A2     7.377139    83A1     7.377139  
      57B1     7.405048    57B2     7.405048    36A2     7.433249  
      84A1     7.433249    58B1     7.606856    58B2     7.606856  
      37A2     7.734298    85A1     7.734298    38A2     7.772351  
      86A1     7.772351    59B2     7.780179    59B1     7.780179  
      87A1     7.816614    39A2     7.816614    88A1     7.822632  
      60B1     8.005412    60B2     8.005412    61B2     8.110372  
      61B1     8.110372    89A1     8.111571    62B2     8.154549  
      62B1     8.154549    90A1     8.173418    40A2     8.173418  
      41A2     8.252899    91A1     8.252899    63B2     8.269430  
      63B1     8.269430    92A1     8.307714    64B1     8.382090  
      64B2     8.382090    93A1     8.564945    42A2     9.014431  
      94A1     9.014431    65B1     9.028158    65B2     9.028158  
      95A1     9.249432    66B2     9.297022    66B1     9.297022  
      43A2     9.401280    96A1     9.401280    97A1     9.671689  
      44A2     9.671689    67B1     9.680786    67B2     9.680786  
      68B2     9.715873    68B1     9.715873    98A1     9.764919  
      45A2     9.808801    99A1     9.808801    69B1     9.837539  
      69B2     9.837539    46A2    10.083671   100A1    10.083671  
      70B2    10.944756    70B1    10.944756    71B1    10.987830  
      71B2    10.987830   101A1    11.017091    72B1    11.157370  
      72B2    11.157370   102A1    11.366712    47A2    11.417035  
     103A1    11.417035   104A1    11.603193    48A2    11.707365  
     105A1    11.707365    73B2    11.834535    73B1    11.834535  
      74B2    11.858639    74B1    11.858639    49A2    11.880796  
     106A1    11.880796   107A1    12.014472    75B2    12.347817  
      75B1    12.347817    76B2    12.822856    76B1    12.822856  
     108A1    13.120599    50A2    13.373162   109A1    13.373162  
      51A2    13.521517   110A1    13.521517    77B2    13.690850  
      77B1    13.690850    52A2    14.203097   111A1    14.203097  
      78B2    14.510930    78B1    14.510930    79B2    14.636731  
      79B1    14.636731   112A1    14.845567   113A1    15.168765  
      53A2    15.525833   114A1    15.525833    80B2    16.561046  
      80B1    16.561046   115A1    17.150780   116A1    21.986668  
      54A2    23.053533   117A1    23.053533    81B2    23.071012  
      81B1    23.071012    55A2    23.211847   118A1    23.211847  
      82B2    23.549638    82B1    23.549638    83B2    23.655693  
      83B1    23.655693    56A2    23.788739   119A1    23.788739  
     120A1    23.810730    84B2    23.876708    84B1    23.876708  
     121A1    24.808992    57A2    26.217357   122A1    26.217357  
      85B2    26.635170    85B1    26.635170   123A1    26.785669  
      86B2    27.153799    86B1    27.153799   124A1    27.276038  
      58A2    27.276038    87B2    27.354060    87B1    27.354060  
      88B2    27.501487    88B1    27.501487    59A2    27.543961  
     125A1    27.543961    89B2    27.708027    89B1    27.708027  
     126A1    27.806605    90B2    28.923470    90B1    28.923470  
      60A2    29.360365   127A1    29.360365   128A1    29.860078  
      91B2    30.227985    91B1    30.227985   129A1    31.840703  
      61A2    31.840703    92B2    32.017248    92B1    32.017248  
      62A2    32.477252   130A1    32.477252    93B2    32.559921  
      93B1    32.559921   131A1    32.659599   132A1    32.992352  
      63A2    35.273071   133A1    35.273071    94B2    36.141764  
      94B1    36.141764   134A1    36.709148   135A1   103.310199  
     136A1   215.268043  

    Final Occupation by Irrep:
             A1    A2    B1    B2 
    DOCC [     7,    0,    2,    2 ]
    SOCC [     0,    0,    1,    1 ]

  @UHF Final Energy:  -415.66405265414977

   => Energetics <=

    Nuclear Repulsion Energy =             40.9349668241349036
    One-Electron Energy =                -662.9417786075350705
    Two-Electron Energy =                 206.3427591292503962
    Total Energy =                       -415.6640526541497707

  UHF NO Occupations:
  HONO-2 :    7 A1 1.9906849
  HONO-1 :    3 B2 1.0000000
  HONO-0 :    3 B1 1.0000000
  LUNO+0 :    8 A1 0.0093151
  LUNO+1 :    4 B2 0.0064182
  LUNO+2 :    4 B1 0.0064182
  LUNO+3 :    9 A1 0.0005474


Computation Completed


Properties will be evaluated at   0.000000,   0.000000,   0.000000 [a0]

Properties computed using the SCF density matrix

  Nuclear Dipole Moment: [e a0]
     X:     0.0000      Y:     0.0000      Z:    -0.4910

  Electronic Dipole Moment: [e a0]
     X:     0.0000      Y:     0.0000      Z:     0.7424

  Dipole Moment: [e a0]
     X:     0.0000      Y:     0.0000      Z:     0.2515     Total:     0.2515

  Dipole Moment: [D]
     X:     0.0000      Y:     0.0000      Z:     0.6392     Total:     0.6392


*** tstop() called on n412-047.vsc4.prov at Sun Jan 24 16:57:22 2021
Module time:
	user time   =    1111.48 seconds =      18.52 minutes
	system time =      94.26 seconds =       1.57 minutes
	total time  =       1271 seconds =      21.18 minutes
Total time:
	user time   =    1111.48 seconds =      18.52 minutes
	system time =      94.26 seconds =       1.57 minutes
	total time  =       1271 seconds =      21.18 minutes

*** tstart() called on n412-047.vsc4.prov
*** at Sun Jan 24 16:57:22 2021


	Wfn Parameters:
	--------------------
	Wavefunction         = CCSD_T
	Number of irreps     = 4
	Number of MOs        = 387
	Number of active MOs = 381
	AO-Basis             = NONE
	Semicanonical        = false
	Reference            = UHF
	Print Level          = 1

	IRREP	# MOs	# FZDC	# DOCC	# SOCC	# VIRT	# FZVR
	-----	-----	------	------	------	------	------
	 A1	   136	    4	    3	    0	    129	    0
	 A2	   63	    0	    0	    0	    63	    0
	 B1	   94	    1	    1	    1	    91	    0
	 B2	   94	    1	    1	    1	    91	    0
	Transforming integrals...
	IWL integrals will be deleted.
	(OO|OO)...
	Presorting SO-basis two-electron integrals.
	Sorting File: SO Ints (nn|nn) nbuckets = 1
	Constructing frozen core operators
	Starting AA/AB first half-transformation.
	Sorting AA/AB half-transformed integrals.
	Starting BB first half-transformation.
	Sorting BB half-transformed integrals.
	First half integral transformation complete.
	Starting AA second half-transformation.
	Starting AB second half-transformation.
	Starting BB second half-transformation.
	Two-electron integral transformation complete.
	(OO|OV)...
	Starting AA second half-transformation.
	Starting AB second half-transformation.
	Starting BB second half-transformation.
	Two-electron integral transformation complete.
	(OO|VV)...
	Starting AA second half-transformation.
	Starting AB second half-transformation.
	Starting BB second half-transformation.
	Two-electron integral transformation complete.
	(OV|OO)...
	Starting AA/AB first half-transformation.
	Sorting AA/AB half-transformed integrals.
	Starting BB first half-transformation.
	Sorting BB half-transformed integrals.
	First half integral transformation complete.
	Starting AA second half-transformation.
	Starting AB second half-transformation.
	Starting BB second half-transformation.
	Two-electron integral transformation complete.
	(OV|OV)...
	Starting AA second half-transformation.
	Starting AB second half-transformation.
	Starting BB second half-transformation.
	Two-electron integral transformation complete.
	(OV|VV)...
	Starting AA second half-transformation.
	Starting AB second half-transformation.
	Starting BB second half-transformation.
	Two-electron integral transformation complete.
	(VV|OO)...
	Starting AA/AB first half-transformation.
	Sorting AA/AB half-transformed integrals.
	Starting BB first half-transformation.
	Sorting BB half-transformed integrals.
	First half integral transformation complete.
	Starting AA second half-transformation.
	Starting AB second half-transformation.
	Starting BB second half-transformation.
	Two-electron integral transformation complete.
	(VV|OV)...
	Starting AA second half-transformation.
	Starting AB second half-transformation.
	Starting BB second half-transformation.
	Two-electron integral transformation complete.
	(VV|VV)...
	Starting AA second half-transformation.
	Starting AB second half-transformation.
	Starting BB second half-transformation.
	Two-electron integral transformation complete.
	Frozen core energy     =   -424.17324753013264

	Size of irrep 0 of <AB|CD> integrals:    338.523 (MW) /   2708.186 (MB)
	Size of irrep 1 of <AB|CD> integrals:    269.222 (MW) /   2153.780 (MB)
	Size of irrep 2 of <AB|CD> integrals:    305.271 (MW) /   2442.166 (MB)
	Size of irrep 3 of <AB|CD> integrals:    305.271 (MW) /   2442.166 (MB)
	Total:                                  1218.287 (MW) /   9746.298 (MB)

	Size of irrep 0 of <ab|cd> integrals:    345.254 (MW) /   2762.028 (MB)
	Size of irrep 1 of <ab|cd> integrals:    275.261 (MW) /   2202.090 (MB)
	Size of irrep 2 of <ab|cd> integrals:    312.017 (MW) /   2496.135 (MB)
	Size of irrep 3 of <ab|cd> integrals:    312.017 (MW) /   2496.135 (MB)
	Total:                                  1244.549 (MW) /   9956.389 (MB)

	Size of irrep 0 of <Ab|Cd> integrals:   1395.321 (MW) /  11162.571 (MB)
	Size of irrep 1 of <Ab|Cd> integrals:   1088.868 (MW) /   8710.944 (MB)
	Size of irrep 2 of <Ab|Cd> integrals:   1234.538 (MW) /   9876.308 (MB)
	Size of irrep 3 of <Ab|Cd> integrals:   1234.538 (MW) /   9876.308 (MB)
	Total:                                  4953.266 (MW) /  39626.130 (MB)

	Size of irrep 0 of <IA|BC> integrals:     27.916 (MW) /    223.329 (MB)
	Size of irrep 1 of <IA|BC> integrals:     18.147 (MW) /    145.178 (MB)
	Size of irrep 2 of <IA|BC> integrals:     22.958 (MW) /    183.666 (MB)
	Size of irrep 3 of <IA|BC> integrals:     22.958 (MW) /    183.666 (MB)
	Total:                                    91.980 (MW) /    735.839 (MB)

	Size of irrep 0 of <ia|bc> integrals:     21.434 (MW) /    171.474 (MB)
	Size of irrep 1 of <ia|bc> integrals:     12.377 (MW) /     99.015 (MB)
	Size of irrep 2 of <ia|bc> integrals:     16.534 (MW) /    132.268 (MB)
	Size of irrep 3 of <ia|bc> integrals:     16.534 (MW) /    132.268 (MB)
	Total:                                    66.878 (MW) /    535.025 (MB)

	Size of irrep 0 of <Ia|Bc> integrals:     28.202 (MW) /    225.618 (MB)
	Size of irrep 1 of <Ia|Bc> integrals:     18.380 (MW) /    147.039 (MB)
	Size of irrep 2 of <Ia|Bc> integrals:     23.190 (MW) /    185.518 (MB)
	Size of irrep 3 of <Ia|Bc> integrals:     23.190 (MW) /    185.518 (MB)
	Total:                                    92.962 (MW) /    743.693 (MB)

	Size of irrep 0 of <iA|bC> integrals:     21.254 (MW) /    170.035 (MB)
	Size of irrep 1 of <iA|bC> integrals:     12.242 (MW) /     97.938 (MB)
	Size of irrep 2 of <iA|bC> integrals:     16.338 (MW) /    130.706 (MB)
	Size of irrep 3 of <iA|bC> integrals:     16.338 (MW) /    130.706 (MB)
	Total:                                    66.173 (MW) /    529.385 (MB)

	Size of irrep 0 of tIjAb amplitudes:       0.486 (MW) /      3.885 (MB)
	Size of irrep 1 of tIjAb amplitudes:       0.132 (MW) /      1.056 (MB)
	Size of irrep 2 of tIjAb amplitudes:       0.316 (MW) /      2.530 (MB)
	Size of irrep 3 of tIjAb amplitudes:       0.316 (MW) /      2.530 (MB)
	Total:                                     1.250 (MW) /     10.000 (MB)

	Nuclear Rep. energy          =     40.93496682413490
	SCF energy                   =   -415.66405265414977
	One-electron energy          =    -60.11906289255039
	Two-electron (AA) energy     =      7.65153494800945
	Two-electron (BB) energy     =      4.13094473622892
	Two-electron (AB) energy     =     15.91081126015149
	Two-electron energy          =     27.69329094438987
	Reference energy             =   -415.66405265415824

*** tstop() called on n412-047.vsc4.prov at Sun Jan 24 17:22:59 2021
Module time:
	user time   =     638.60 seconds =      10.64 minutes
	system time =     365.16 seconds =       6.09 minutes
	total time  =       1537 seconds =      25.62 minutes
Total time:
	user time   =    1750.08 seconds =      29.17 minutes
	system time =     459.42 seconds =       7.66 minutes
	total time  =       2808 seconds =      46.80 minutes
            **************************
            *                        *
            *        CCENERGY        *
            *                        *
            **************************

    Nuclear Rep. energy (wfn)     =   40.934966824134904
    SCF energy          (wfn)     = -415.664052654149771
    Reference energy    (file100) = -415.664052654158240

    Input parameters:
    -----------------
    Wave function   =     CCSD_T
    Reference wfn   =     UHF
    Brueckner       =     No
    Memory (Mbytes) =     250000.0
    Maxiter         =     50
    R_Convergence   =     1.0e-07
    E_Convergence   =     1.0e-06
    Restart         =     Yes
    DIIS            =     Yes
    AO Basis        =     NONE
    ABCD            =     NEW
    Cache Level     =     2
    Cache Type      =     LRU
    Print Level     =     1
    Num. of threads =     48
    # Amps to Print =     10
    Print MP2 Amps? =     No
    Analyze T2 Amps =     No
    Print Pair Ener =     No
    Local CC        =     No
    SCS-MP2         =     False
    SCSN-MP2        =     False
    SCS-CCSD        =     False

MP2 correlation energy -0.4140601242389135
                Solving CC Amplitude Equations
                ------------------------------
  Iter             Energy              RMS        T1Diag      D1Diag    New D1Diag    D2Diag
  ----     ---------------------    ---------   ----------  ----------  ----------   --------
     0        -0.414060124238914    0.000e+00    0.000000    0.000000    0.000000    0.000000
     1        -0.396446436076143    1.083e-01    0.024595    0.000000    0.000000    0.000000
     2        -0.409650462630838    4.278e-02    0.023259    0.000000    0.000000    0.000000
     3        -0.413775863367010    2.375e-02    0.029432    0.000000    0.000000    0.000000
     4        -0.413685108445713    8.592e-03    0.032528    0.000000    0.000000    0.000000
     5        -0.413532699945510    4.704e-03    0.033743    0.000000    0.000000    0.000000
     6        -0.413610119131116    1.919e-03    0.034399    0.000000    0.000000    0.000000
     7        -0.413616477599405    9.804e-04    0.034546    0.000000    0.000000    0.000000
     8        -0.413607138936837    3.622e-04    0.034566    0.000000    0.000000    0.000000
     9        -0.413615887366976    2.066e-04    0.034584    0.000000    0.000000    0.000000
    10        -0.413613366998113    9.508e-05    0.034592    0.000000    0.000000    0.000000
    11        -0.413611710697613    4.236e-05    0.034588    0.000000    0.000000    0.000000
    12        -0.413611935886195    2.191e-05    0.034591    0.000000    0.000000    0.000000
    13        -0.413611251543800    8.039e-06    0.034590    0.000000    0.000000    0.000000
    14        -0.413611263772247    3.492e-06    0.034590    0.000000    0.000000    0.000000
    15        -0.413611317529374    1.485e-06    0.034590    0.000000    0.000000    0.000000
    16        -0.413611311246005    6.935e-07    0.034590    0.000000    0.000000    0.000000
    17        -0.413611316298062    3.169e-07    0.034590    0.000000    0.000000    0.000000
    18        -0.413611316320823    1.556e-07    0.034590    0.000000    0.000000    0.000000
    19        -0.413611314354536    7.973e-08    0.034590    0.000000    0.000000    0.000000

    Iterations converged.


    Largest TIA Amplitudes:
              4 192        -0.0241203666
              6 283        -0.0241203661
              2   7        -0.0203319963
              5 290         0.0193536741
              3 199         0.0193536738
              5 285         0.0184621829
              3 194         0.0184621828
              2   6        -0.0160520835
              2   4         0.0147200461
              5 291        -0.0144403247

    Largest Tia Amplitudes:
              3 194        -0.0385061853
              4 286        -0.0385061812
              3 196         0.0259603333
              4 288         0.0259603314
              2   7        -0.0155254011
              1  11         0.0154823249
              1   6         0.0154259773
              2   3        -0.0151203041
              4 301         0.0141990989
              3 209         0.0141990979

    Largest TIJAB Amplitudes:
      6   4 131  10        -0.0183018330
      6   4 286 195        -0.0173303855
      6   4 286 192         0.0131674768
      6   4 283 195         0.0131674767
      6   4 131   3        -0.0127865770
      6   4 129  10        -0.0127865770
      6   4 129   3        -0.0124367766
      6   4 283 192        -0.0115533830
      6   4 131  14        -0.0106950095
      6   4 132  10        -0.0106950095

    Largest Tijab Amplitudes:
      4   3 286 194        -0.0250590495
      4   3 288 194         0.0154945468
      4   3 286 196         0.0154945467
      4   2 286   7         0.0143211369
      3   2 194   7         0.0143211366
      4   3 287 194        -0.0131045273
      4   3 286 195        -0.0131045271
      4   3 288 196        -0.0116894912
      4   2 286  16        -0.0112525546
      3   2 194  16        -0.0112525545

    Largest TIjAb Amplitudes:
      2   2   7   7         0.0209722240
      6   2 131 194        -0.0195620328
      4   2  10 194        -0.0195620327
      6   2  10 286         0.0195620327
      4   2 131 286        -0.0195620326
      6   4 290 286         0.0165624377
      4   3 199 194         0.0165624374
      6   1 131 194        -0.0137737871
      4   1  10 194        -0.0137737870
      6   1  10 286         0.0137737870

    SCF energy       (wfn)                    = -415.664052654149771
    Reference energy (file100)                = -415.664052654158240

    Opposite-spin MP2 correlation energy      =   -0.309147772700029
    Same-spin MP2 correlation energy          =   -0.104912351538885
    Singles MP2 correlation energy            =   -0.000000000000000
    MP2 correlation energy                    =   -0.414060124238914
      * MP2 total energy                      = -416.078112778397156

    Opposite-spin CCSD correlation energy     =   -0.319965325471499
    Same-spin CCSD correlation energy         =   -0.093645988882946
    Singles CCSD correlation energy           =   -0.000000000000092
    CCSD correlation energy                   =   -0.413611314354536
      * CCSD total energy                     = -416.077663968512752

            **************************
            *                        *
            *        CCTRIPLES       *
            *                        *
            **************************


    Wave function   =    CCSD_T
    Reference wfn   =      UHF

    Nuclear Rep. energy (wfn)                =   40.934966824134904
    SCF energy          (wfn)                = -415.664052654149771
    Reference energy    (file100)            = -415.664052654158240
    CCSD energy         (file100)            =   -0.413611314354536
    Total CCSD energy   (file100)            = -416.077663968512752

    Number of ijk index combinations:
    Spin Case AAA:                                  35
    Spin Case BBB:                                  10
    Spin Case AAB:                                 105
    Spin Case ABB:                                  70
    AAA (T) energy                             =   -0.000634466633479
    BBB (T) energy                             =   -0.000644225180674
    AAB (T) energy                             =   -0.011371722232602
    ABB (T) energy                             =   -0.009820824446388
    (T) energy                                   =   -0.022471238493143
      * CCSD(T) total energy                     = -416.100135207005906


    Psi4 stopped on: Sunday, 24 January 2021 06:14PM
    Psi4 wall time for execution: 1:38:47.76

*** Psi4 exiting successfully. Buy a developer a beer!
