
    -----------------------------------------------------------------------
          Psi4: An Open-Source Ab Initio Electronic Structure Package
                               Psi4 1.4a3.dev88 

                         Git: Rev {master} 262e345 


    D. G. A. Smith, L. A. Burns, A. C. Simmonett, R. M. Parrish,
    M. C. Schieber, R. Galvelis, P. Kraus, H. Kruse, R. Di Remigio,
    A. Alenaizan, A. M. James, S. Lehtola, J. P. Misiewicz, M. Scheurer,
    R. A. Shaw, J. B. Schriber, Y. Xie, Z. L. Glick, D. A. Sirianni,
    J. S. O'Brien, J. M. Waldrop, A. Kumar, E. G. Hohenstein,
    B. P. Pritchard, B. R. Brooks, H. F. Schaefer III, A. Yu. Sokolov,
    K. Patkowski, A. E. DePrince III, U. Bozkaya, R. A. King,
    F. A. Evangelista, J. M. Turney, T. D. Crawford, C. D. Sherrill,
    J. Chem. Phys. 152(18) 184108 (2020). https://doi.org/10.1063/5.0006002

                            Additional Code Authors
    E. T. Seidl, C. L. Janssen, E. F. Valeev, M. L. Leininger,
    J. F. Gonthier, R. M. Richard, H. R. McAlexander, M. Saitow, X. Wang,
    P. Verma, and M. H. Lechner

             Previous Authors, Complete List of Code Contributors,
                       and Citations for Specific Modules
    https://github.com/psi4/psi4/blob/master/codemeta.json
    https://github.com/psi4/psi4/graphs/contributors
    http://psicode.org/psi4manual/master/introduction.html#citing-psifour

    -----------------------------------------------------------------------


    Psi4 started on: Friday, 22 January 2021 06:50AM

    Process ID: 62444
    Host:       n412-045.vsc4.prov
    PSIDATADIR: /home/fs71337/gallo4/psi4/psi4/build/stage/share/psi4
    Memory:     500.0 MiB
    Threads:    48
    
  ==> Input File <==

--------------------------------------------------------------------------
# Any line starting with the # character is a comment line
memory 250000 mb
molecule molecule{
-1 3
P          0.0000000000        0.0000000000        0.5283745064
O          0.0000000000        0.0000000000       -1.0228974307
}

set {
  reference uhf
  basis aug-cc-pV(5+d)Z
  scf_type OUT_OF_CORE
  freeze_core true
}

energy('ccsd(t)')
--------------------------------------------------------------------------

  Memory set to 232.831 GiB by Python driver.

Scratch directory: /binfl/lv71337/airmler/temp/

*** tstart() called on n412-045.vsc4.prov
*** at Fri Jan 22 06:50:05 2021

   => Loading Basis Set <=

    Name: AUG-CC-PV(5+D)Z
    Role: ORBITAL
    Keyword: BASIS
    atoms 1 entry P          line  1330 file /home/fs71337/gallo4/psi4/psi4/build/stage/share/psi4/basis/aug-cc-pv_5pd_z.gbs 
    atoms 2 entry O          line   568 file /home/fs71337/gallo4/psi4/psi4/build/stage/share/psi4/basis/aug-cc-pv_5pd_z.gbs 


         ---------------------------------------------------------
                                   SCF
               by Justin Turney, Rob Parrish, Andy Simmonett
                          and Daniel G. A. Smith
                              UHF Reference
                       48 Threads, 238418 MiB Core
         ---------------------------------------------------------

  ==> Geometry <==

    Molecular point group: c2v
    Full point group: C_inf_v

    Geometry (in Angstrom), charge = -1, multiplicity = 3:

       Center              X                  Y                   Z               Mass       
    ------------   -----------------  -----------------  -----------------  -----------------
         P            0.000000000000     0.000000000000     0.528276800035    30.973761998420
         O            0.000000000000     0.000000000000    -1.022995137065    15.994914619570

  Running in c2v symmetry.

  Rotational constants: A = ************  B =      0.66413  C =      0.66413 [cm^-1]
  Rotational constants: A = ************  B =  19910.11497  C =  19910.11497 [MHz]
  Nuclear repulsion =   40.934966824134904

  Charge       = -1
  Multiplicity = 3
  Electrons    = 24
  Nalpha       = 13
  Nbeta        = 11

  ==> Algorithm <==

  SCF Algorithm Type is OUT_OF_CORE.
  DIIS enabled.
  MOM disabled.
  Fractional occupation disabled.
  Guess Type is SAD.
  Energy threshold   = 1.00e-08
  Density threshold  = 1.00e-08
  Integral threshold = 1.00e-12

  ==> Primary Basis <==

  Basis Set: AUG-CC-PV(5+D)Z
    Blend: AUG-CC-PV(5+D)Z
    Number of shells: 57
    Number of basis function: 263
    Number of Cartesian functions: 374
    Spherical Harmonics?: true
    Max angular momentum: 5

  ==> Integral Setup <==

  ==> DiskJK: Disk-Based J/K Matrices <==

    J tasked:                  Yes
    K tasked:                  Yes
    wK tasked:                  No
    Memory [MiB]:           178813
    Schwarz Cutoff:          1E-12

  Minimum eigenvalue in the overlap matrix is 2.8505399679E-05.
  Reciprocal condition number of the overlap matrix is 4.4490251480E-06.
    Using symmetric orthogonalization.

  ==> Pre-Iterations <==

  SCF Guess: Superposition of Atomic Densities via on-the-fly atomic UHF (no occupation information).


 WARNING: Atomic UHF is not converging! Try casting from a smaller basis or call Rob at CCMST.

 WARNING: Atomic UHF is not converging! Try casting from a smaller basis or call Rob at CCMST.
   -------------------------
    Irrep   Nso     Nmo    
   -------------------------
     A1        96      96 
     A2        39      39 
     B1        64      64 
     B2        64      64 
   -------------------------
    Total     263     263
   -------------------------

  ==> Iterations <==

                        Total Energy        Delta E     RMS |[F,P]|

   @UHF iter SAD:    -5.15606551377794   -5.15607e+00   0.00000e+00 
   @UHF iter   1:  -388.80850952278917   -3.83652e+02   1.00700e-01 DIIS
   @UHF iter   2:  -338.29390241102385    5.05146e+01   5.74662e-02 DIIS
   @UHF iter   3:  -378.88938444018379   -4.05955e+01   8.43536e-02 DIIS
   @UHF iter   4:  -393.46185901760100   -1.45725e+01   6.70338e-02 DIIS
   @UHF iter   5:  -404.82761356731618   -1.13658e+01   4.90320e-02 DIIS
   @UHF iter   6:  -413.19629200970041   -8.36868e+00   2.34698e-02 DIIS
   @UHF iter   7:  -415.00295159990276   -1.80666e+00   9.17915e-03 DIIS
   @UHF iter   8:  -415.57782877804902   -5.74877e-01   3.15013e-03 DIIS
   @UHF iter   9:  -415.64684878561064   -6.90200e-02   5.70655e-04 DIIS
   @UHF iter  10:  -415.65438387546652   -7.53509e-03   3.89965e-04 DIIS
   @UHF iter  11:  -415.65979387926865   -5.41000e-03   2.29688e-04 DIIS
   @UHF iter  12:  -415.66309318159028   -3.29930e-03   9.43789e-05 DIIS
   @UHF iter  13:  -415.66364737366393   -5.54192e-04   3.39286e-05 DIIS
   @UHF iter  14:  -415.66370090600975   -5.35323e-05   1.04165e-05 DIIS
   @UHF iter  15:  -415.66370423174840   -3.32574e-06   4.25897e-06 DIIS
   @UHF iter  16:  -415.66370482359338   -5.91845e-07   1.43651e-06 DIIS
   @UHF iter  17:  -415.66370488837146   -6.47781e-08   5.31913e-07 DIIS
   @UHF iter  18:  -415.66370489926686   -1.08954e-08   3.24023e-07 DIIS
   @UHF iter  19:  -415.66370490394928   -4.68242e-09   1.18517e-07 DIIS
   @UHF iter  20:  -415.66370490449953   -5.50244e-10   3.58586e-08 DIIS
   @UHF iter  21:  -415.66370490456825   -6.87237e-11   1.96720e-08 DIIS
   @UHF iter  22:  -415.66370490459866   -3.04112e-11   1.15454e-08 DIIS
   @UHF iter  23:  -415.66370490461014   -1.14824e-11   6.12599e-09 DIIS
  Energy and wave function converged.


  ==> Post-Iterations <==

   @Spin Contamination Metric:   4.573717615E-02
   @S^2 Expected:                2.000000000E+00
   @S^2 Observed:                2.045737176E+00
   @S   Expected:                1.000000000E+00
   @S   Observed:                1.000000000E+00

    Orbital Energies [Eh]
    ---------------------

    Alpha Occupied:                                                       

       1A1   -79.733091     2A1   -20.308490     3A1    -7.269744  
       1B2    -5.170289     1B1    -5.170289     4A1    -5.158336  
       5A1    -1.078266     6A1    -0.519594     2B1    -0.320463  
       2B2    -0.320463     7A1    -0.288766     3B2    -0.075497  
       3B1    -0.075496  

    Alpha Virtual:                                                        

       8A1     0.174440     9A1     0.179995     4B2     0.182018  
       4B1     0.182018    10A1     0.265855     5B2     0.272984  
       5B1     0.272984    11A1     0.305311     1A2     0.305311  
      12A1     0.307567     6B2     0.349927     6B1     0.349927  
      13A1     0.377541    14A1     0.387929     7B2     0.455678  
       7B1     0.455678     8B2     0.542961     8B1     0.542961  
      15A1     0.543187     2A2     0.543187    16A1     0.545943  
       9B2     0.588017     9B1     0.588017    17A1     0.591437  
      18A1     0.592406     3A2     0.592406    19A1     0.657979  
      10B1     0.705874    10B2     0.705874    11B2     0.726343  
      11B1     0.726343    20A1     0.732225     4A2     0.732225  
      21A1     0.741162    22A1     0.774435    12B2     0.872071  
      12B1     0.872071    23A1     1.032282    24A1     1.105318  
       5A2     1.105318    13B1     1.108594    13B2     1.108594  
      25A1     1.142985     6A2     1.180503    26A1     1.180503  
      27A1     1.188111     7A2     1.188111    14B1     1.192551  
      14B2     1.192551    15B2     1.214344    15B1     1.214344  
      28A1     1.214415    16B2     1.218322    16B1     1.218322  
      29A1     1.244720     8A2     1.244720    17B2     1.319740  
      17B1     1.319740    30A1     1.381706    18B2     1.413522  
      18B1     1.413522    31A1     1.460128     9A2     1.475020  
      32A1     1.475020    19B2     1.492085    19B1     1.492085  
      33A1     1.527262    20B2     1.702619    20B1     1.702619  
      34A1     1.711367    35A1     1.876078    21B1     1.879040  
      21B2     1.879040    10A2     1.914148    36A1     1.914148  
      37A1     2.172495    22B1     2.365843    22B2     2.365843  
      11A2     2.378730    38A1     2.378730    23B2     2.389095  
      23B1     2.389095    12A2     2.404179    39A1     2.404179  
      24B1     2.416143    24B2     2.416143    40A1     2.509262  
      25B2     2.513398    25B1     2.513398    26B2     2.529778  
      26B1     2.529778    13A2     2.544878    41A1     2.544878  
      14A2     2.554089    42A1     2.554089    43A1     2.569710  
      27B1     2.588029    27B2     2.588029    28B2     2.606586  
      28B1     2.606586    44A1     2.617140    15A2     2.617140  
      45A1     2.774156    29B2     2.826770    29B1     2.826770  
      16A2     2.926364    46A1     2.926364    47A1     2.948971  
      17A2     3.066110    48A1     3.066110    30B1     3.157923  
      30B2     3.157923    31B2     3.274244    31B1     3.274244  
      49A1     3.315856    18A2     3.423875    50A1     3.423875  
      32B1     3.604330    32B2     3.604330    33B2     3.625214  
      33B1     3.625214    51A1     3.744984    34B2     3.758664  
      34B1     3.758664    19A2     3.780323    52A1     3.780323  
      53A1     3.828080    54A1     3.922631    35B1     4.271673  
      35B2     4.271673    20A2     4.453725    55A1     4.453725  
      56A1     4.546322    36B1     4.842786    36B2     4.842786  
      21A2     4.911956    57A1     4.911956    37B2     4.912288  
      37B1     4.912288    58A1     5.061426    38B2     5.065547  
      38B1     5.065547    59A1     5.134663    22A2     5.180689  
      60A1     5.180689    39B1     5.401696    39B2     5.401696  
      40B1     5.436999    40B2     5.436999    23A2     5.447757  
      61A1     5.447757    41B1     5.450111    41B2     5.450111  
      62A1     5.535959    24A2     5.535959    63A1     5.537391  
      25A2     5.537391    64A1     5.545317    42B2     5.594059  
      42B1     5.594059    65A1     5.780407    43B1     5.795628  
      43B2     5.795628    44B1     5.951952    44B2     5.951952  
      26A2     5.954061    66A1     5.954061    67A1     6.025575  
      45B2     6.481412    45B1     6.481412    46B1     6.520625  
      46B2     6.520625    68A1     6.604553    27A2     6.604553  
      69A1     6.711926    47B1     7.186077    47B2     7.186077  
      28A2     7.440014    70A1     7.440014    71A1     7.520935  
      29A2     7.617126    72A1     7.617126    48B1     7.721674  
      48B2     7.721674    49B1     7.734724    49B2     7.734724  
      50B1     7.836704    50B2     7.836704    73A1     7.925843  
      30A2     7.973166    74A1     7.973166    75A1     8.169326  
      51B1     8.250180    51B2     8.250180    31A2     8.785227  
      76A1     8.785227    32A2     9.017922    77A1     9.017922  
      78A1     9.091577    52B1     9.230012    52B2     9.230012  
      53B1    10.090551    53B2    10.090551    79A1    10.425393  
      80A1    12.441471    33A2    13.408353    81A1    13.408353  
      54B2    13.727565    54B1    13.727565    82A1    14.062042  
      55B1    16.445461    55B2    16.445462    56B1    16.537551  
      56B2    16.537551    34A2    16.585002    83A1    16.585002  
      57B2    16.797025    57B1    16.797025    84A1    17.032929  
      58B1    17.067541    58B2    17.067541    35A2    17.071351  
      85A1    17.071351    86A1    17.726891    59B2    18.062713  
      59B1    18.062713    87A1    19.418746    36A2    19.418746  
      88A1    19.427004    60B2    19.548535    60B1    19.548535  
      61B1    19.558305    61B2    19.558305    37A2    19.663010  
      89A1    19.663010    62B1    19.827570    62B2    19.827570  
      38A2    20.006692    90A1    20.006692    91A1    20.254358  
      63B1    20.595392    63B2    20.595393    92A1    21.622463  
      39A2    22.565087    93A1    22.565087    64B1    23.146052  
      64B2    23.146052    94A1    23.596713    95A1    54.074704  
      96A1    63.285389  

    Beta Occupied:                                                        

       1A1   -79.723921     2A1   -20.282533     3A1    -7.260237  
       4A1    -5.156143     1B1    -5.145325     1B2    -5.145325  
       5A1    -1.008781     6A1    -0.415306     7A1    -0.218094  
       2B2    -0.205550     2B1    -0.205549  

    Beta Virtual:                                                         

       3B2     0.176373     3B1     0.176373     8A1     0.177215  
       9A1     0.181709    10A1     0.270888     4B1     0.273265  
       4B2     0.273265     5B2     0.300610     5B1     0.300610  
      11A1     0.312879     1A2     0.319931    12A1     0.319931  
       6B2     0.368523     6B1     0.368523    13A1     0.380355  
      14A1     0.403394     7B1     0.496184     7B2     0.496184  
       2A2     0.551101    15A1     0.551101     8B2     0.552864  
       8B1     0.552864    16A1     0.560706    17A1     0.594948  
       9B2     0.600299     9B1     0.600299     3A2     0.644459  
      18A1     0.644459    19A1     0.673249    10B2     0.715750  
      10B1     0.715750     4A2     0.745971    20A1     0.745971  
      21A1     0.753506    11B2     0.770524    11B1     0.770524  
      22A1     0.781418    12B1     0.884835    12B2     0.884835  
      23A1     1.045419    13B1     1.115217    13B2     1.115217  
       5A2     1.118724    24A1     1.118724    25A1     1.145538  
       6A2     1.200914    26A1     1.200914     7A2     1.214896  
      27A1     1.214896    14B2     1.223660    14B1     1.223660  
      28A1     1.224640    15B2     1.224963    15B1     1.224963  
      16B1     1.254071    16B2     1.254071     8A2     1.273664  
      29A1     1.273664    17B2     1.342281    17B1     1.342281  
      30A1     1.397717    18B1     1.416156    18B2     1.416156  
      31A1     1.468424     9A2     1.479463    32A1     1.479463  
      19B1     1.501206    19B2     1.501206    33A1     1.537068  
      34A1     1.722193    20B2     1.723496    20B1     1.723496  
      35A1     1.890705    21B2     1.896914    21B1     1.896914  
      36A1     1.928612    10A2     1.928612    37A1     2.187738  
      22B2     2.388607    22B1     2.388607    11A2     2.388765  
      38A1     2.388765    23B1     2.407073    23B2     2.407073  
      12A2     2.425443    39A1     2.425443    24B1     2.452261  
      24B2     2.452261    40A1     2.517871    25B2     2.526210  
      25B1     2.526210    26B2     2.544255    26B1     2.544255  
      13A2     2.570253    41A1     2.570253    42A1     2.580991  
      14A2     2.584246    43A1     2.584246    27B2     2.605145  
      27B1     2.605145    28B2     2.622444    28B1     2.622444  
      15A2     2.630591    44A1     2.630591    45A1     2.783842  
      29B2     2.842793    29B1     2.842793    16A2     2.937651  
      46A1     2.937651    47A1     2.956896    17A2     3.067908  
      48A1     3.067908    30B2     3.165740    30B1     3.165740  
      31B2     3.281646    31B1     3.281646    49A1     3.318202  
      18A2     3.430875    50A1     3.430875    32B2     3.611377  
      32B1     3.611377    33B2     3.629897    33B1     3.629897  
      51A1     3.755731    34B1     3.781533    34B2     3.781533  
      19A2     3.811167    52A1     3.811167    53A1     3.846262  
      54A1     3.932452    35B2     4.291262    35B1     4.291262  
      20A2     4.466940    55A1     4.466940    56A1     4.558781  
      36B2     4.866785    36B1     4.866785    21A2     4.922885  
      57A1     4.922885    37B2     4.925468    37B1     4.925468  
      38B2     5.074995    38B1     5.074995    58A1     5.078101  
      59A1     5.138711    22A2     5.196513    60A1     5.196513  
      39B2     5.421608    39B1     5.421608    40B2     5.445071  
      40B1     5.445071    23A2     5.463827    61A1     5.463827  
      41B1     5.474541    41B2     5.474541    62A1     5.549266  
      24A2     5.549266    63A1     5.550410    64A1     5.563225  
      25A2     5.563225    42B2     5.614164    42B1     5.614164  
      65A1     5.791568    43B2     5.811911    43B1     5.811911  
      26A2     5.964519    66A1     5.964519    44B2     5.965260  
      44B1     5.965260    67A1     6.037352    45B1     6.483670  
      45B2     6.483670    46B2     6.532437    46B1     6.532437  
      27A2     6.606628    68A1     6.606628    69A1     6.719789  
      47B1     7.190393    47B2     7.190393    28A2     7.450878  
      70A1     7.450878    71A1     7.533860    29A2     7.624742  
      72A1     7.624742    48B1     7.732096    48B2     7.732096  
      49B1     7.739332    49B2     7.739332    50B1     7.859560  
      50B2     7.859560    73A1     7.930126    30A2     7.983605  
      74A1     7.983605    75A1     8.177036    51B1     8.261113  
      51B2     8.261113    31A2     8.798792    76A1     8.798792  
      32A2     9.055995    77A1     9.055995    78A1     9.102589  
      52B1     9.244288    52B2     9.244288    53B1    10.107677  
      53B2    10.107677    79A1    10.436887    80A1    12.464238  
      33A2    13.421534    81A1    13.421534    54B2    13.734853  
      54B1    13.734853    82A1    14.067313    55B2    16.472495  
      55B1    16.472495    56B1    16.550528    56B2    16.550528  
      34A2    16.595606    83A1    16.595606    57B2    16.805848  
      57B1    16.805848    84A1    17.039250    58B1    17.074716  
      58B2    17.074716    35A2    17.078742    85A1    17.078742  
      86A1    17.738658    59B1    18.078981    59B2    18.078981  
      87A1    19.436184    36A2    19.440564    88A1    19.440564  
      60B1    19.575403    60B2    19.575403    61B2    19.577536  
      61B1    19.577536    37A2    19.677404    89A1    19.677404  
      62B1    19.840278    62B2    19.840278    38A2    20.027776  
      90A1    20.027776    91A1    20.267390    63B1    20.611178  
      63B2    20.611178    92A1    21.628179    39A2    22.593564  
      93A1    22.593564    64B1    23.163993    64B2    23.163993  
      94A1    23.609880    95A1    54.080889    96A1    63.295854  

    Final Occupation by Irrep:
             A1    A2    B1    B2 
    DOCC [     7,    0,    2,    2 ]
    SOCC [     0,    0,    1,    1 ]

  @UHF Final Energy:  -415.66370490461014

   => Energetics <=

    Nuclear Repulsion Energy =             40.9349668241349036
    One-Electron Energy =                -662.9417926640735459
    Two-Electron Energy =                 206.3431209353285283
    Total Energy =                       -415.6637049046100856

  UHF NO Occupations:
  HONO-2 :    7 A1 1.9906872
  HONO-1 :    3 B1 1.0000000
  HONO-0 :    3 B2 1.0000000
  LUNO+0 :    8 A1 0.0093128
  LUNO+1 :    4 B1 0.0064245
  LUNO+2 :    4 B2 0.0064244
  LUNO+3 :    9 A1 0.0005483


Computation Completed


Properties will be evaluated at   0.000000,   0.000000,   0.000000 [a0]

Properties computed using the SCF density matrix

  Nuclear Dipole Moment: [e a0]
     X:     0.0000      Y:     0.0000      Z:    -0.4910

  Electronic Dipole Moment: [e a0]
     X:     0.0000      Y:     0.0000      Z:     0.7461

  Dipole Moment: [e a0]
     X:     0.0000      Y:     0.0000      Z:     0.2552     Total:     0.2552

  Dipole Moment: [D]
     X:     0.0000      Y:     0.0000      Z:     0.6485     Total:     0.6485


*** tstop() called on n412-045.vsc4.prov at Fri Jan 22 06:54:45 2021
Module time:
	user time   =     329.16 seconds =       5.49 minutes
	system time =      25.36 seconds =       0.42 minutes
	total time  =        280 seconds =       4.67 minutes
Total time:
	user time   =     329.16 seconds =       5.49 minutes
	system time =      25.36 seconds =       0.42 minutes
	total time  =        280 seconds =       4.67 minutes

*** tstart() called on n412-045.vsc4.prov
*** at Fri Jan 22 06:54:45 2021


	Wfn Parameters:
	--------------------
	Wavefunction         = CCSD_T
	Number of irreps     = 4
	Number of MOs        = 263
	Number of active MOs = 257
	AO-Basis             = NONE
	Semicanonical        = false
	Reference            = UHF
	Print Level          = 1

	IRREP	# MOs	# FZDC	# DOCC	# SOCC	# VIRT	# FZVR
	-----	-----	------	------	------	------	------
	 A1	   96	    4	    3	    0	    89	    0
	 A2	   39	    0	    0	    0	    39	    0
	 B1	   64	    1	    1	    1	    61	    0
	 B2	   64	    1	    1	    1	    61	    0
	Transforming integrals...
	IWL integrals will be deleted.
	(OO|OO)...
	Presorting SO-basis two-electron integrals.
	Sorting File: SO Ints (nn|nn) nbuckets = 1
	Constructing frozen core operators
	Starting AA/AB first half-transformation.
	Sorting AA/AB half-transformed integrals.
	Starting BB first half-transformation.
	Sorting BB half-transformed integrals.
	First half integral transformation complete.
	Starting AA second half-transformation.
	Starting AB second half-transformation.
	Starting BB second half-transformation.
	Two-electron integral transformation complete.
	(OO|OV)...
	Starting AA second half-transformation.
	Starting AB second half-transformation.
	Starting BB second half-transformation.
	Two-electron integral transformation complete.
	(OO|VV)...
	Starting AA second half-transformation.
	Starting AB second half-transformation.
	Starting BB second half-transformation.
	Two-electron integral transformation complete.
	(OV|OO)...
	Starting AA/AB first half-transformation.
	Sorting AA/AB half-transformed integrals.
	Starting BB first half-transformation.
	Sorting BB half-transformed integrals.
	First half integral transformation complete.
	Starting AA second half-transformation.
	Starting AB second half-transformation.
	Starting BB second half-transformation.
	Two-electron integral transformation complete.
	(OV|OV)...
	Starting AA second half-transformation.
	Starting AB second half-transformation.
	Starting BB second half-transformation.
	Two-electron integral transformation complete.
	(OV|VV)...
	Starting AA second half-transformation.
	Starting AB second half-transformation.
	Starting BB second half-transformation.
	Two-electron integral transformation complete.
	(VV|OO)...
	Starting AA/AB first half-transformation.
	Sorting AA/AB half-transformed integrals.
	Starting BB first half-transformation.
	Sorting BB half-transformed integrals.
	First half integral transformation complete.
	Starting AA second half-transformation.
	Starting AB second half-transformation.
	Starting BB second half-transformation.
	Two-electron integral transformation complete.
	(VV|OV)...
	Starting AA second half-transformation.
	Starting AB second half-transformation.
	Starting BB second half-transformation.
	Two-electron integral transformation complete.
	(VV|VV)...
	Starting AA second half-transformation.
	Starting AB second half-transformation.
	Starting BB second half-transformation.
	Two-electron integral transformation complete.
	Frozen core energy     =   -424.17317063778790

	Size of irrep 0 of <AB|CD> integrals:     69.172 (MW) /    553.380 (MB)
	Size of irrep 1 of <AB|CD> integrals:     51.725 (MW) /    413.799 (MB)
	Size of irrep 2 of <AB|CD> integrals:     60.965 (MW) /    487.719 (MB)
	Size of irrep 3 of <AB|CD> integrals:     60.965 (MW) /    487.719 (MB)
	Total:                                   242.827 (MW) /   1942.617 (MB)

	Size of irrep 0 of <ab|cd> integrals:     71.217 (MW) /    569.734 (MB)
	Size of irrep 1 of <ab|cd> integrals:     53.509 (MW) /    428.074 (MB)
	Size of irrep 2 of <ab|cd> integrals:     62.980 (MW) /    503.841 (MB)
	Size of irrep 3 of <ab|cd> integrals:     62.980 (MW) /    503.841 (MB)
	Total:                                   250.686 (MW) /   2005.489 (MB)

	Size of irrep 0 of <Ab|Cd> integrals:    289.204 (MW) /   2313.632 (MB)
	Size of irrep 1 of <Ab|Cd> integrals:    210.424 (MW) /   1683.392 (MB)
	Size of irrep 2 of <Ab|Cd> integrals:    247.874 (MW) /   1982.988 (MB)
	Size of irrep 3 of <Ab|Cd> integrals:    247.874 (MW) /   1982.988 (MB)
	Total:                                   995.375 (MW) /   7963.001 (MB)

	Size of irrep 0 of <IA|BC> integrals:      8.628 (MW) /     69.022 (MB)
	Size of irrep 1 of <IA|BC> integrals:      5.193 (MW) /     41.541 (MB)
	Size of irrep 2 of <IA|BC> integrals:      6.855 (MW) /     54.843 (MB)
	Size of irrep 3 of <IA|BC> integrals:      6.855 (MW) /     54.843 (MB)
	Total:                                    27.531 (MW) /    220.250 (MB)

	Size of irrep 0 of <ia|bc> integrals:      6.698 (MW) /     53.583 (MB)
	Size of irrep 1 of <ia|bc> integrals:      3.526 (MW) /     28.207 (MB)
	Size of irrep 2 of <ia|bc> integrals:      4.984 (MW) /     39.870 (MB)
	Size of irrep 3 of <ia|bc> integrals:      4.984 (MW) /     39.870 (MB)
	Total:                                    20.191 (MW) /    161.530 (MB)

	Size of irrep 0 of <Ia|Bc> integrals:      8.758 (MW) /     70.065 (MB)
	Size of irrep 1 of <Ia|Bc> integrals:      5.295 (MW) /     42.358 (MB)
	Size of irrep 2 of <Ia|Bc> integrals:      6.959 (MW) /     55.671 (MB)
	Size of irrep 3 of <Ia|Bc> integrals:      6.959 (MW) /     55.671 (MB)
	Total:                                    27.970 (MW) /    223.764 (MB)

	Size of irrep 0 of <iA|bC> integrals:      6.615 (MW) /     52.923 (MB)
	Size of irrep 1 of <iA|bC> integrals:      3.467 (MW) /     27.735 (MB)
	Size of irrep 2 of <iA|bC> integrals:      4.896 (MW) /     39.171 (MB)
	Size of irrep 3 of <iA|bC> integrals:      4.896 (MW) /     39.171 (MB)
	Total:                                    19.875 (MW) /    159.000 (MB)

	Size of irrep 0 of tIjAb amplitudes:       0.221 (MW) /      1.769 (MB)
	Size of irrep 1 of tIjAb amplitudes:       0.058 (MW) /      0.464 (MB)
	Size of irrep 2 of tIjAb amplitudes:       0.142 (MW) /      1.134 (MB)
	Size of irrep 3 of tIjAb amplitudes:       0.142 (MW) /      1.134 (MB)
	Total:                                     0.562 (MW) /      4.500 (MB)

	Nuclear Rep. energy          =     40.93496682413490
	SCF energy                   =   -415.66370490461014
	One-electron energy          =    -60.11917616402887
	Two-electron (AA) energy     =      7.65211936085713
	Two-electron (BB) energy     =      4.13063712641958
	Two-electron (AB) energy     =     15.91091858578989
	Two-electron energy          =     27.69367507306660
	Reference energy             =   -415.66370490461526

*** tstop() called on n412-045.vsc4.prov at Fri Jan 22 07:00:38 2021
Module time:
	user time   =     120.67 seconds =       2.01 minutes
	system time =      78.69 seconds =       1.31 minutes
	total time  =        353 seconds =       5.88 minutes
Total time:
	user time   =     449.83 seconds =       7.50 minutes
	system time =     104.05 seconds =       1.73 minutes
	total time  =        633 seconds =      10.55 minutes
            **************************
            *                        *
            *        CCENERGY        *
            *                        *
            **************************

    Nuclear Rep. energy (wfn)     =   40.934966824134904
    SCF energy          (wfn)     = -415.663704904610142
    Reference energy    (file100) = -415.663704904615258

    Input parameters:
    -----------------
    Wave function   =     CCSD_T
    Reference wfn   =     UHF
    Brueckner       =     No
    Memory (Mbytes) =     250000.0
    Maxiter         =     50
    R_Convergence   =     1.0e-07
    E_Convergence   =     1.0e-06
    Restart         =     Yes
    DIIS            =     Yes
    AO Basis        =     NONE
    ABCD            =     NEW
    Cache Level     =     2
    Cache Type      =     LRU
    Print Level     =     1
    Num. of threads =     48
    # Amps to Print =     10
    Print MP2 Amps? =     No
    Analyze T2 Amps =     No
    Print Pair Ener =     No
    Local CC        =     No
    SCS-MP2         =     False
    SCSN-MP2        =     False
    SCS-CCSD        =     False

MP2 correlation energy -0.4091716410647376
                Solving CC Amplitude Equations
                ------------------------------
  Iter             Energy              RMS        T1Diag      D1Diag    New D1Diag    D2Diag
  ----     ---------------------    ---------   ----------  ----------  ----------   --------
     0        -0.409171641064738    0.000e+00    0.000000    0.000000    0.000000    0.000000
     1        -0.393657257861702    1.083e-01    0.024619    0.000000    0.000000    0.000000
     2        -0.406655327406885    4.251e-02    0.023315    0.000000    0.000000    0.000000
     3        -0.410740537849055    2.356e-02    0.029541    0.000000    0.000000    0.000000
     4        -0.410635795563961    8.409e-03    0.032577    0.000000    0.000000    0.000000
     5        -0.410510477382435    4.388e-03    0.033797    0.000000    0.000000    0.000000
     6        -0.410580753054904    1.742e-03    0.034368    0.000000    0.000000    0.000000
     7        -0.410578720798340    8.643e-04    0.034490    0.000000    0.000000    0.000000
     8        -0.410573249441723    3.107e-04    0.034507    0.000000    0.000000    0.000000
     9        -0.410582084392838    1.774e-04    0.034522    0.000000    0.000000    0.000000
    10        -0.410578348813785    7.921e-05    0.034529    0.000000    0.000000    0.000000
    11        -0.410577355675715    3.306e-05    0.034525    0.000000    0.000000    0.000000
    12        -0.410577404858728    1.709e-05    0.034528    0.000000    0.000000    0.000000
    13        -0.410576920864622    6.278e-06    0.034527    0.000000    0.000000    0.000000
    14        -0.410576968278480    2.864e-06    0.034527    0.000000    0.000000    0.000000
    15        -0.410577014098555    1.187e-06    0.034527    0.000000    0.000000    0.000000
    16        -0.410577009376124    5.814e-07    0.034527    0.000000    0.000000    0.000000
    17        -0.410577013220343    2.601e-07    0.034527    0.000000    0.000000    0.000000
    18        -0.410577013162939    1.185e-07    0.034527    0.000000    0.000000    0.000000
    19        -0.410577011919662    6.030e-08    0.034527    0.000000    0.000000    0.000000

    Iterations converged.


    Largest TIA Amplitudes:
              3 135         0.0249543972
              5 196         0.0249543736
              6 189         0.0234375866
              4 128         0.0234375692
              2   8         0.0215324230
              3 130        -0.0201327058
              5 191        -0.0201326835
              2   6        -0.0163008679
              2   4        -0.0160469706
              3 129        -0.0146131837

    Largest Tia Amplitudes:
              4 192         0.0387603170
              3 130         0.0387599754
              4 194        -0.0211917117
              3 132        -0.0211916136
              1   6         0.0176229806
              2   8        -0.0158575063
              1   8        -0.0150371996
              2   3         0.0150068457
              2   6         0.0130553911
              3 129         0.0128675497

    Largest TIJAB Amplitudes:
      6   4  91  10        -0.0223024004
      6   4  89  10        -0.0151069868
      6   4  91   3        -0.0151069868
      6   4 192 131        -0.0145537660
      6   4  89   3        -0.0143868106
      6   4 189 128        -0.0140112305
      6   4 192 128         0.0130669506
      6   4 189 131         0.0130669478
      6   4 196 135        -0.0130662095
      6   2 196   8        -0.0127814640

    Largest Tijab Amplitudes:
      4   3 192 130        -0.0266341458
      4   3 192 131         0.0173446721
      4   3 193 130         0.0173446616
      4   3 198 130        -0.0158394233
      4   3 192 136        -0.0158394227
      3   2 130   8        -0.0156926104
      4   2 192   8        -0.0156925806
      4   3 198 136        -0.0123175073
      3   2 130  15         0.0117439727
      4   2 192  15         0.0117439592

    Largest TIjAb Amplitudes:
      2   2   8   8        -0.0251601101
      4   2  10 130         0.0225108817
      4   2  91 192         0.0225108805
      6   2  91 130         0.0225108587
      6   2  10 192        -0.0225108575
      3   3 135 136        -0.0217188405
      5   4 196 198        -0.0217188296
      4   3 135 130        -0.0217027595
      6   4 196 192        -0.0217027234
      3   3 135 130        -0.0177710616

    SCF energy       (wfn)                    = -415.663704904610142
    Reference energy (file100)                = -415.663704904615258

    Opposite-spin MP2 correlation energy      =   -0.304591538045839
    Same-spin MP2 correlation energy          =   -0.104580103018899
    Singles MP2 correlation energy            =   -0.000000000000000
    MP2 correlation energy                    =   -0.409171641064738
      * MP2 total energy                      = -416.072876545680003

    Opposite-spin CCSD correlation energy     =   -0.317177410568379
    Same-spin CCSD correlation energy         =   -0.093399601351298
    Singles CCSD correlation energy           =    0.000000000000016
    CCSD correlation energy                   =   -0.410577011919662
      * CCSD total energy                     = -416.074281916534915

            **************************
            *                        *
            *        CCTRIPLES       *
            *                        *
            **************************


    Wave function   =    CCSD_T
    Reference wfn   =      UHF

    Nuclear Rep. energy (wfn)                =   40.934966824134904
    SCF energy          (wfn)                = -415.663704904610142
    Reference energy    (file100)            = -415.663704904615258
    CCSD energy         (file100)            =   -0.410577011919662
    Total CCSD energy   (file100)            = -416.074281916534915

    Number of ijk index combinations:
    Spin Case AAA:                                  35
    Spin Case BBB:                                  10
    Spin Case AAB:                                 105
    Spin Case ABB:                                  70
    AAA (T) energy                             =   -0.000629277584495
    BBB (T) energy                             =   -0.000642691086739
    AAB (T) energy                             =   -0.011238965612850
    ABB (T) energy                             =   -0.009728356115639
    (T) energy                                   =   -0.022239290399724
      * CCSD(T) total energy                     = -416.096521206934653


    Psi4 stopped on: Friday, 22 January 2021 07:11AM
    Psi4 wall time for execution: 0:21:47.08

*** Psi4 exiting successfully. Buy a developer a beer!
