
    -----------------------------------------------------------------------
          Psi4: An Open-Source Ab Initio Electronic Structure Package
                               Psi4 1.2a1.dev939 

                         Git: Rev {HEAD} fa1ec19 dirty


    R. M. Parrish, L. A. Burns, D. G. A. Smith, A. C. Simmonett,
    A. E. DePrince III, E. G. Hohenstein, U. Bozkaya, A. Yu. Sokolov,
    R. Di Remigio, R. M. Richard, J. F. Gonthier, A. M. James,
    H. R. McAlexander, A. Kumar, M. Saitow, X. Wang, B. P. Pritchard,
    P. Verma, H. F. Schaefer III, K. Patkowski, R. A. King, E. F. Valeev,
    F. A. Evangelista, J. M. Turney, T. D. Crawford, and C. D. Sherrill,
    J. Chem. Theory Comput. 13(7) pp 3185--3197 (2017).
    (doi: 10.1021/acs.jctc.7b00174)

    -----------------------------------------------------------------------


    Psi4 started on: Saturday, 31 October 2020 04:05AM

    Process ID: 374000
    PSIDATADIR: /home/fs71337/airmler/src/psi4_uhf/build/stage/usr/local/psi4/share/psi4
    Memory:     500.0 MiB
    Threads:    48
    
  ==> Input File <==

--------------------------------------------------------------------------
# Any line starting with the # character is a comment line
memory 250000 mb
molecule molecule{
1 2
O          0.0000000000        0.0000000000        0.5838312771
O          0.0000000000        0.0000000000       -0.5838312771
}

set {
  reference uhf
  basis aug-cc-pv(6+d)z
  scf_type OUT_OF_CORE
  freeze_core true
}

energy('ccsd')
--------------------------------------------------------------------------

  Memory set to 232.831 GiB by Python driver.

*** tstart() called on n412-050.vsc4.prov
*** at Sat Oct 31 04:05:40 2020

   => Loading Basis Set <=

    Name: AUG-CC-PV(6+D)Z
    Role: ORBITAL
    Keyword: BASIS
    atoms 1-2 entry O          line   459 file /home/fs71337/airmler/src/psi4_uhf/build/stage/usr/local/psi4/share/psi4/basis/aug-cc-pv_6pd_z.gbs 


         ---------------------------------------------------------
                                   SCF
            by Justin Turney, Rob Parrish, Andy Simmonett
                             and Daniel Smith
                              UHF Reference
                       48 Threads, 238418 MiB Core
         ---------------------------------------------------------

  ==> Geometry <==

    Molecular point group: d2h
    Full point group: D_inf_h

    Geometry (in Angstrom), charge = 1, multiplicity = 2:

       Center              X                  Y                   Z               Mass       
    ------------   -----------------  -----------------  -----------------  -----------------
           O          0.000000000000     0.000000000000     0.583831277100    15.994914619560
           O          0.000000000000     0.000000000000    -0.583831277100    15.994914619560

  Running in d2h symmetry.

  Rotational constants: A = ************  B =      1.54600  C =      1.54600 [cm^-1]
  Rotational constants: A = ************  B =  46347.95317  C =  46347.95317 [MHz]
  Nuclear repulsion =   29.004391061391456

  Charge       = 1
  Multiplicity = 2
  Electrons    = 15
  Nalpha       = 8
  Nbeta        = 7

  ==> Algorithm <==

  SCF Algorithm Type is OUT_OF_CORE.
  DIIS enabled.
  MOM disabled.
  Fractional occupation disabled.
  Guess Type is GWH.
  Energy threshold   = 1.00e-08
  Density threshold  = 1.00e-08
  Integral threshold = 0.00e+00

  ==> Primary Basis <==

  Basis Set: AUG-CC-PV(6+D)Z
    Blend: AUG-CC-PV(6+D)Z
    Number of shells: 70
    Number of basis function: 378
    Number of Cartesian functions: 588
    Spherical Harmonics?: true
    Max angular momentum: 6

  ==> Pre-Iterations <==

   -------------------------------------------------------
    Irrep   Nso     Nmo     Nalpha   Nbeta   Ndocc  Nsocc
   -------------------------------------------------------
     Ag        66      66       0       0       0       0
     B1g       31      31       0       0       0       0
     B2g       46      46       0       0       0       0
     B3g       46      46       0       0       0       0
     Au        31      31       0       0       0       0
     B1u       66      66       0       0       0       0
     B2u       46      46       0       0       0       0
     B3u       46      46       0       0       0       0
   -------------------------------------------------------
    Total     378     378       8       7       7       1
   -------------------------------------------------------

  ==> Integral Setup <==

  ==> DiskJK: Disk-Based J/K Matrices <==

    J tasked:                  Yes
    K tasked:                  Yes
    wK tasked:                  No
    Memory (MB):            178813
    Schwarz Cutoff:          1E-12

  Minimum eigenvalue in the overlap matrix is 2.9024659927E-06.
  Using Symmetric Orthogonalization.

  SCF Guess: Generalized Wolfsberg-Helmholtz.

  ==> Iterations <==

                        Total Energy        Delta E     RMS |[F,P]|

    Occupation by irrep:
             Ag   B1g   B2g   B3g    Au   B1u   B2u   B3u 
    DOCC [     3,    0,    0,    0,    0,    2,    1,    1 ]
    SOCC [     0,    0,    0,    1,    0,    0,    0,    0 ]

   @UHF iter   1:  -122.73804640588114   -1.22738e+02   3.84538e-01 
   @UHF iter   2:  -147.72828615802800   -2.49902e+01   5.58264e-02 DIIS
   @UHF iter   3:  -149.12571087778593   -1.39742e+00   1.40042e-02 DIIS
   @UHF iter   4:  -149.21857185153925   -9.28610e-02   1.35493e-03 DIIS
   @UHF iter   5:  -149.22077007995250   -2.19823e-03   3.21196e-04 DIIS
   @UHF iter   6:  -149.22091892817198   -1.48848e-04   6.88257e-05 DIIS
   @UHF iter   7:  -149.22092569793330   -6.76976e-06   1.47638e-05 DIIS
   @UHF iter   8:  -149.22092607031209   -3.72379e-07   2.11234e-06 DIIS
   @UHF iter   9:  -149.22092607742189   -7.10980e-09   3.94990e-07 DIIS
   @UHF iter  10:  -149.22092607756548   -1.43586e-10   7.18786e-08 DIIS
   @UHF iter  11:  -149.22092607757264   -7.16227e-12   1.47857e-08 DIIS
   @UHF iter  12:  -149.22092607757321   -5.68434e-13   1.86532e-09 DIIS

  ==> Post-Iterations <==

   @Spin Contamination Metric:   1.491943630E-02
   @S^2 Expected:                7.500000000E-01
   @S^2 Observed:                7.649194363E-01
   @S   Expected:                5.000000000E-01
   @S   Observed:                5.000000000E-01

    Orbital Energies (a.u.)
    -----------------------

    Alpha Occupied:                                                       

       1Ag   -21.289801     1B1u  -21.288590     2Ag    -2.203969  
       2B1u   -1.594722     1B2u   -1.327448     3Ag    -1.233106  
       1B3u   -1.142505     1B3g   -1.012222  

    Alpha Virtual:                                                        

       1B2g   -0.415478     4Ag    -0.121291     3B1u   -0.096623  
       2B2u   -0.090848     2B3u   -0.090690     5Ag    -0.043401  
       2B3g   -0.035964     2B2g   -0.034635     4B1u    0.007963  
       6Ag     0.078566     1B1g    0.078729     5B1u    0.100584  
       3B2u    0.102923     3B3u    0.106858     7Ag     0.126966  
       8Ag     0.157420     3B3g    0.170568     3B2g    0.180330  
       6B1u    0.202456     1Au     0.202748     4B3u    0.208341  
       4B2u    0.209367     7B1u    0.212187     4B2g    0.296749  
       8B1u    0.297026     4B3g    0.297264     9Ag     0.427242  
       5B2u    0.479772     5B3u    0.479772     2B1g    0.588578  
      10Ag     0.588855     6B2u    0.656723     9B1u    0.659880  
       6B3u    0.660414     2Au     0.663201    10B1u    0.664518  
       5B3g    0.676819     5B2g    0.676819    11Ag     0.692606  
       3B1g    0.706610    12Ag     0.706931    13Ag     0.742138  
       7B2u    0.745736     7B3u    0.758524    11B1u    0.771910  
       6B3g    0.780900     6B2g    0.782355     7B3g    0.834566  
       7B2g    0.854695     8B2u    0.959163     8B3u    0.968144  
      12B1u    1.043247     3Au     1.085321    13B1u    1.085483  
      14B1u    1.415583    14Ag     1.499091     8B2g    1.532277  
       8B3g    1.534219    15Ag     1.591393     4B1g    1.591393  
      16Ag     1.600433     9B3u    1.722225     9B2u    1.722225  
       5B1g    1.811684    17Ag     1.812134    10B3u    1.898853  
      10B2u    1.902820    11B2u    1.919426    11B3u    1.919430  
      15B1u    1.924838     4Au     1.936614    16B1u    1.936766  
       5Au     1.940069    17B1u    1.940722     9B2g    1.955427  
       9B3g    1.955428    12B2u    1.970204    12B3u    1.977210  
       6B1g    2.015358    18Ag     2.015374    19Ag     2.172646  
       6Au     2.208572    18B1u    2.208708    10B2g    2.232786  
      10B3g    2.238194    20Ag     2.321458    11B3g    2.410332  
      11B2g    2.423549    12B3g    2.440730    12B2g    2.441109  
       7B1g    2.472032    21Ag     2.472150    19B1u    2.480427  
      13B2u    2.508660    13B3u    2.528039    13B3g    2.694775  
      13B2g    2.702660    20B1u    2.707000    22Ag     2.787574  
      14B3u    3.130633    14B2u    3.137631    21B1u    3.292756  
       7Au     3.321540    22B1u    3.322955    23Ag     3.816940  
      15B2u    3.841246    15B3u    3.841246     8B1g    3.974592  
      24Ag     3.974592    14B3g    4.242573    14B2g    4.246445  
      15B3g    4.287106    15B2g    4.287106    16B3u    4.420061  
      16B2u    4.420062    25Ag     4.500588     9B1g    4.500653  
      17B3u    4.582957    17B2u    4.590413    23B1u    4.619684  
      26Ag     4.740101    24B1u    4.753577     8Au     4.772733  
      25B1u    4.774290    16B2g    4.823219    16B3g    4.823229  
       9Au     4.827296    26B1u    4.827298    27Ag     4.859058  
      10B1g    4.859061    28Ag     4.884152    11B1g    4.884573  
      17B2g    4.926467    17B3g    4.935711    18B3u    4.964027  
      18B2u    4.964052    29Ag     5.028260    19B3u    5.034031  
      19B2u    5.034034    10Au     5.055711    27B1u    5.055819  
      20B3u    5.065046    18B2g    5.072642    18B3g    5.072642  
      20B2u    5.077306    11Au     5.266842    28B1u    5.266842  
      21B3u    5.437556    21B2u    5.446192    12B1g    5.471934  
      30Ag     5.471979    19B2g    5.574297    19B3g    5.584501  
      29B1u    5.718193    31Ag     5.908333    30B1u    6.158334  
      12Au     6.158359    20B2g    6.245162    20B3g    6.247321  
      13B1g    6.337498    32Ag     6.337633    31B1u    6.453721  
      33Ag     6.563330    21B2g    6.619422    21B3g    6.619424  
      22B2u    6.706737    22B3u    6.709943    34Ag     6.986949  
      32B1u    7.388801    22B2g    8.035664    22B3g    8.038022  
      13Au     8.249298    33B1u    8.249397    23B3u    8.480723  
      23B2u    8.480723    24B3u    8.599092    24B2u    8.608338  
      35Ag     8.735254    14B1g    8.735254    34B1u    8.843241  
      23B2g    8.897626    23B3g    8.911729    15B1g    8.939350  
      36Ag     8.939350    35B1u    9.080185    14Au     9.080185  
      25B3u    9.748209    25B2u    9.748212    24B2g    9.797079  
      24B3g    9.797079    37Ag     9.947336    16B1g    9.948235  
      38Ag    10.001660    26B3u   10.120590    26B2u   10.137998  
      27B3u   10.183962    27B2u   10.183962    39Ag    10.225234  
      17B1g   10.225234    36B1u   10.383760    15Au    10.384966  
      25B2g   10.438822    25B3g   10.438822    37B1u   10.447351  
      26B2g   10.476007    26B3g   10.476012    16Au    10.624147  
      38B1u   10.624148    40Ag    10.672527    18B1g   10.695877  
      41Ag    10.698913    27B2g   10.701561    27B3g   10.717117  
      28B3u   10.730655    28B2u   10.747946    29B3u   10.788950  
      29B2u   10.789306    42Ag    10.873102    39B1u   10.935729  
      40B1u   11.310959    17Au    11.310973    41B1u   11.368566  
      18Au    11.368566    28B2g   11.622740    28B3g   11.622740  
      30B3u   11.653640    30B2u   11.653640    19B1g   12.191536  
      43Ag    12.191610    29B2g   12.273513    29B3g   12.292881  
      42B1u   12.303038    31B3u   12.306373    31B2u   12.327111  
      20B1g   12.369428    44Ag    12.369428    19Au    12.598180  
      43B1u   12.598180    32B3u   12.716299    32B2u   12.716308  
      30B2g   13.149046    30B3g   13.149049    44B1u   13.311811  
      20Au    13.312048    45Ag    13.355206    21B1g   13.356014  
      46Ag    13.393662    31B2g   13.846818    31B3g   13.869066  
      33B3u   14.002012    33B2u   14.017415    45B1u   14.053931  
      32B2g   14.108400    32B3g   14.108409    47Ag    14.295589  
      46B1u   14.995555    21Au    14.995568    22B1g   15.164530  
      48Ag    15.164653    33B2g   15.169210    33B3g   15.187444  
      47B1u   15.216557    49Ag    16.676882    22Au    16.685207  
      48B1u   16.685329    34B3u   17.516083    34B2u   17.532739  
      34B2g   17.774443    34B3g   17.794792    49B1u   18.160429  
      50Ag    21.543527    23B1g   21.616299    51Ag    21.618410  
      35B3u   21.880466    35B2u   21.880548    36B3u   22.018025  
      36B2u   22.018032    37B3u   22.042391    24B1g   22.050733  
      52Ag    22.050733    37B2u   22.065721    25B1g   22.098271  
      53Ag    22.098271    50B1u   22.232296    23Au    22.232296  
      35B2g   22.509266    35B3g   22.509266    51B1u   22.648562  
      38B3u   22.722014    38B2u   22.737859    54Ag    22.812559  
      52B1u   23.144095    24Au    23.144095    36B2g   23.190045  
      36B3g   23.203178    37B2g   23.971952    37B3g   23.971969  
      55Ag    24.009229    38B2g   24.250591    38B3g   24.273499  
      53B1u   24.801333    25Au    24.829152    54B1u   24.839694  
      56Ag    26.138634    26B1g   26.138634    39B3u   26.143583  
      39B2u   26.143583    39B2g   26.276887    39B3g   26.276887  
      40B3u   26.444155    40B2u   26.444167    55B1u   26.551431  
      26Au    26.551431    57Ag    26.774474    56B1u   26.814366  
      27Au    26.814764    41B3u   26.852033    41B2u   26.877137  
      27B1g   26.937164    58Ag    26.938731    40B2g   27.051390  
      40B3g   27.051398    57B1u   27.222209    41B2g   27.629560  
      41B3g   27.656705    58B1u   27.692061    42B3u   27.802650  
      42B2u   27.802651    42B2g   28.271246    42B3g   28.271247  
      28B1g   28.462735    59Ag    28.462766    60Ag    29.958577  
      59B1u   30.447970    28Au    30.448110    43B3u   30.716408  
      43B2u   30.742190    29B1g   30.803772    61Ag    30.803772  
      44B3u   30.869946    44B2u   30.870055    60B1u   30.933882  
      29Au    30.933882    43B2g   31.072243    43B3g   31.097683  
      61B1u   31.160093    30B1g   31.396296    62Ag    31.396339  
      44B2g   31.477543    44B3g   31.477543    45B3u   31.872604  
      45B2u   31.899923    62B1u   32.554262    30Au    32.554353  
      45B2g   33.282788    63B1u   33.299641    45B3g   33.309418  
      63Ag    34.047019    31B1g   34.047091    64Ag    34.414014  
      31Au    34.766533    64B1u   34.766576    65Ag    35.471669  
      46B3u   35.767222    46B2u   35.786896    46B2g   37.729636  
      46B3g   37.751115    65B1u   40.660580    66Ag   103.213035  
      66B1u  106.010343  

    Beta Occupied:                                                        

       1Ag   -21.260557     1B1u  -21.259015     2Ag    -2.141070  
       2B1u   -1.487195     3Ag    -1.199663     1B3u   -1.122221  
       1B2u   -1.068795  

    Beta Virtual:                                                         

       1B2g   -0.388934     1B3g   -0.332055     4Ag    -0.120301  
       3B1u   -0.093757     2B3u   -0.090352     2B2u   -0.087316  
       5Ag    -0.043700     2B2g   -0.034216     2B3g   -0.032273  
       4B1u    0.016096     6Ag     0.078527     1B1g    0.078576  
       3B3u    0.108042     3B2u    0.115241     5B1u    0.123242  
       7Ag     0.125981     8Ag     0.159694     3B2g    0.182392  
       3B3g    0.190090     6B1u    0.203550     1Au     0.203632  
       4B3u    0.208128     4B2u    0.212249     7B1u    0.219594  
       4B2g    0.296859     4B3g    0.298851     8B1u    0.305059  
       9Ag     0.428198     5B3u    0.479371     5B2u    0.479372  
       2B1g    0.590317    10Ag     0.590412     6B3u    0.659827  
       9B1u    0.664032     2Au     0.667976     6B2u    0.668230  
      10B1u    0.670489     5B2g    0.677282     5B3g    0.677285  
      11Ag     0.692900     3B1g    0.711000    12Ag     0.711829  
      13Ag     0.745622     7B3u    0.762064    11B1u    0.773634  
       7B2u    0.779383     6B2g    0.782890     6B3g    0.788695  
       7B2g    0.858896     7B3g    0.876173     8B3u    0.968753  
       8B2u    0.983552    12B1u    1.046955     3Au     1.097371  
      13B1u    1.097462    14B1u    1.423684    14Ag     1.504575  
       8B2g    1.532226     8B3g    1.542479    15Ag     1.591153  
       4B1g    1.591153    16Ag     1.604531     9B3u    1.722060  
       9B2u    1.722063     5B1g    1.814769    17Ag     1.814916  
      10B3u    1.898468    10B2u    1.905628    11B3u    1.922831  
      11B2u    1.922935    15B1u    1.926170     4Au     1.937679  
      16B1u    1.937890     5Au     1.941401    17B1u    1.942567  
       9B2g    1.959867     9B3g    1.959871    12B3u    1.979283  
      12B2u    2.003485    18Ag     2.030121     6B1g    2.030402  
      19Ag     2.177612    10B2g    2.232987    18B1u    2.239478  
       6Au     2.239503    10B3g    2.241972    20Ag     2.334410  
      11B2g    2.428271    11B3g    2.441280    12B2g    2.445224  
      12B3g    2.459103     7B1g    2.484618    21Ag     2.485024  
      19B1u    2.489735    13B3u    2.535634    13B2u    2.568234  
      13B2g    2.705767    20B1u    2.714379    13B3g    2.729770  
      22Ag     2.796595    14B3u    3.131180    14B2u    3.146426  
      21B1u    3.298521     7Au     3.336385    22B1u    3.339169  
      23Ag     3.835390    15B3u    3.841957    15B2u    3.841957  
       8B1g    3.974183    24Ag     3.974183    14B2g    4.251449  
      14B3g    4.278986    15B2g    4.289015    15B3g    4.289015  
      16B3u    4.422354    16B2u    4.422363    25Ag     4.506509  
       9B1g    4.506854    17B3u    4.584376    17B2u    4.604810  
      23B1u    4.625905    26Ag     4.746748    24B1u    4.755923  
       8Au     4.780834    25B1u    4.785141    16B2g    4.826989  
      16B3g    4.827020     9Au     4.830845    26B1u    4.830859  
      27Ag     4.865712    10B1g    4.865730    28Ag     4.887368  
      11B1g    4.887937    17B2g    4.926712    17B3g    4.942706  
      18B3u    4.969014    18B2u    4.969080    29Ag     5.034423  
      19B3u    5.049418    19B2u    5.049431    20B3u    5.065807  
      10Au     5.071038    27B1u    5.071289    20B2u    5.085452  
      18B2g    5.092453    18B3g    5.092471    11Au     5.273349  
      28B1u    5.273349    21B3u    5.440721    21B2u    5.468825  
      12B1g    5.514799    30Ag     5.515223    19B2g    5.577106  
      19B3g    5.600386    29B1u    5.734298    31Ag     5.913727  
      30B1u    6.186814    12Au     6.187736    20B2g    6.251059  
      20B3g    6.286917    13B1g    6.346031    32Ag     6.346381  
      31B1u    6.469188    33Ag     6.579970    21B2g    6.624492  
      21B3g    6.624501    22B3u    6.718977    22B2u    6.761707  
      34Ag     6.998762    32B1u    7.399098    22B2g    8.043813  
      22B3g    8.085342    13Au     8.265078    33B1u    8.265574  
      23B3u    8.482158    23B2u    8.482158    24B3u    8.605048  
      24B2u    8.641608    14B1g    8.738489    35Ag     8.738489  
      34B1u    8.853492    23B2g    8.901275    23B3g    8.931604  
      15B1g    8.940097    36Ag     8.940097    14Au     9.083998  
      35B1u    9.083998    25B3u    9.749915    25B2u    9.749921  
      24B2g    9.800038    24B3g    9.800038    37Ag     9.951262  
      16B1g    9.953653    38Ag    10.014686    26B3u   10.122576  
      26B2u   10.149025    27B3u   10.193005    27B2u   10.193005  
      39Ag    10.231517    17B1g   10.231517    36B1u   10.387004  
      15Au    10.388878    25B2g   10.447634    25B3g   10.447635  
      37B1u   10.450569    26B2g   10.482232    26B3g   10.482245  
      16Au    10.629794    38B1u   10.629795    40Ag    10.674253  
      18B1g   10.699806    27B2g   10.701787    41Ag    10.704496  
      27B3g   10.722899    28B3u   10.730737    28B2u   10.752481  
      29B3u   10.793484    29B2u   10.794127    42Ag    10.878816  
      39B1u   10.952447    40B1u   11.321253    17Au    11.321378  
      41B1u   11.373057    18Au    11.373057    28B2g   11.647815  
      28B3g   11.647817    30B3u   11.684478    30B2u   11.684482  
      19B1g   12.211244    43Ag    12.211538    29B2g   12.276326  
      29B3g   12.307936    31B3u   12.309361    42B1u   12.312065  
      31B2u   12.345125    20B1g   12.389536    44Ag    12.389536  
      43B1u   12.617811    19Au    12.617811    32B3u   12.730541  
      32B2u   12.730578    30B2g   13.161961    30B3g   13.161970  
      44B1u   13.332029    20Au    13.332820    45Ag    13.387068  
      21B1g   13.387783    46Ag    13.402962    31B2g   13.852224  
      31B3g   13.892828    33B3u   14.009088    33B2u   14.050451  
      45B1u   14.067018    32B2g   14.118616    32B3g   14.118659  
      47Ag    14.310362    46B1u   15.023809    21Au    15.023959  
      33B2g   15.173114    22B1g   15.180488    48Ag    15.180900  
      33B3g   15.208623    47B1u   15.227411    49Ag    16.689381  
      22Au    16.697084    48B1u   16.697390    34B3u   17.519957  
      34B2u   17.553582    34B2g   17.780205    34B3g   17.820816  
      49B1u   18.169731    50Ag    21.551619    23B1g   21.620756  
      51Ag    21.623881    35B3u   21.885208    35B2u   21.885370  
      36B3u   22.027223    36B2u   22.027251    37B3u   22.045576  
      24B1g   22.057488    52Ag    22.057488    37B2u   22.078504  
      25B1g   22.109966    53Ag    22.109966    50B1u   22.243661  
      23Au    22.243661    35B2g   22.518217    35B3g   22.518217  
      51B1u   22.662949    38B3u   22.730282    38B2u   22.776180  
      54Ag    22.824202    52B1u   23.151344    24Au    23.151344  
      36B2g   23.197045    36B3g   23.238027    37B2g   23.978165  
      37B3g   23.978206    55Ag    24.018748    38B2g   24.252755  
      38B3g   24.285025    53B1u   24.803224    25Au    24.834426  
      54B1u   24.848552    56Ag    26.153008    26B1g   26.153008  
      39B3u   26.161692    39B2u   26.161692    39B2g   26.295044  
      39B3g   26.295044    40B3u   26.455563    40B2u   26.455590  
      55B1u   26.565519    26Au    26.565520    57Ag    26.780777  
      56B1u   26.823877    27Au    26.824618    41B3u   26.854884  
      41B2u   26.890407    27B1g   26.947489    58Ag    26.950195  
      40B2g   27.063656    40B3g   27.063674    57B1u   27.229734  
      41B2g   27.633059    41B3g   27.668990    58B1u   27.703874  
      42B3u   27.830737    42B2u   27.830739    42B2g   28.297301  
      42B3g   28.297302    28B1g   28.480936    59Ag    28.480952  
      60Ag    29.969772    59B1u   30.464905    28Au    30.465286  
      43B3u   30.720869    43B2u   30.760901    29B1g   30.827149  
      61Ag    30.827149    44B3u   30.888328    44B2u   30.888659  
      60B1u   30.957269    29Au    30.957269    43B2g   31.077671  
      43B3g   31.119544    61B1u   31.171764    30B1g   31.410518  
      62Ag    31.410610    44B2g   31.495082    44B3g   31.495085  
      45B3u   31.877596    45B2u   31.919353    62B1u   32.568660  
      30Au    32.568861    45B2g   33.287627    63B1u   33.311262  
      45B3g   33.329874    63Ag    34.071283    31B1g   34.071617  
      64Ag    34.424695    31Au    34.789427    64B1u   34.789588  
      65Ag    35.481685    46B3u   35.771661    46B2u   35.808444  
      46B2g   37.733880    46B3g   37.769736    65B1u   40.667061  
      66Ag   103.220654    66B1u  106.017812  

    Final Occupation by Irrep:
             Ag   B1g   B2g   B3g    Au   B1u   B2u   B3u 
    DOCC [     3,    0,    0,    0,    0,    2,    1,    1 ]
    SOCC [     0,    0,    0,    1,    0,    0,    0,    0 ]

  Energy converged.

  @UHF Final Energy:  -149.22092607757321

   => Energetics <=

    Nuclear Repulsion Energy =             29.0043910613914555
    One-Electron Energy =                -255.8197548330279574
    Two-Electron Energy =                  77.5944376940632736
    Total Energy =                       -149.2209260775732105


  UHF NO Occupations:
  HONO-2 :    2B1u 1.9987619
  HONO-1 :    1B2u 1.9943921
  HONO-0 :    1B3g 1.0000000
  LUNO+0 :    2B2u 0.0056079
  LUNO+1 :    3B1u 0.0012381
  LUNO+2 :    4 Ag 0.0005109
  LUNO+3 :    2B3u 0.0000860



Properties will be evaluated at   0.000000,   0.000000,   0.000000 Bohr

Properties computed using the SCF density matrix

  Nuclear Dipole Moment: (a.u.)
     X:     0.0000      Y:     0.0000      Z:     0.0000

  Electronic Dipole Moment: (a.u.)
     X:     0.0000      Y:     0.0000      Z:     0.0000

  Dipole Moment: (a.u.)
     X:     0.0000      Y:     0.0000      Z:     0.0000     Total:     0.0000

  Dipole Moment: (Debye)
     X:     0.0000      Y:     0.0000      Z:     0.0000     Total:     0.0000


*** tstop() called on n412-050.vsc4.prov at Sat Oct 31 04:21:22 2020
Module time:
	user time   =     966.17 seconds =      16.10 minutes
	system time =      45.78 seconds =       0.76 minutes
	total time  =        942 seconds =      15.70 minutes
Total time:
	user time   =     966.17 seconds =      16.10 minutes
	system time =      45.78 seconds =       0.76 minutes
	total time  =        942 seconds =      15.70 minutes

*** tstart() called on n412-050.vsc4.prov
*** at Sat Oct 31 04:21:22 2020


	Wfn Parameters:
	--------------------
	Wavefunction         = CCSD
	Number of irreps     = 8
	Number of MOs        = 378
	Number of active MOs = 376
	AO-Basis             = NONE
	Semicanonical        = false
	Reference            = UHF
	Print Level          = 1

	IRREP	# MOs	# FZDC	# DOCC	# SOCC	# VIRT	# FZVR
	-----	-----	------	------	------	------	------
	 Ag	   66	    1	    2	    0	    63	    0
	 B1g	   31	    0	    0	    0	    31	    0
	 B2g	   46	    0	    0	    0	    46	    0
	 B3g	   46	    0	    0	    1	    45	    0
	 Au	   31	    0	    0	    0	    31	    0
	 B1u	   66	    1	    1	    0	    64	    0
	 B2u	   46	    0	    1	    0	    45	    0
	 B3u	   46	    0	    1	    0	    45	    0
	Transforming integrals...
	IWL integrals will be deleted.
	(OO|OO)...
	Presorting SO-basis two-electron integrals.
	Sorting File: SO Ints (nn|nn) nbuckets = 1
	Transforming the one-electron integrals and constructing Fock matrices
	Starting AA/AB first half-transformation.
	Sorting AA/AB half-transformed integrals.
	Starting BB first half-transformation.
	Sorting BB half-transformed integrals.
	First half integral transformation complete.
	Starting AA second half-transformation.
	Starting AB second half-transformation.
	Starting BB second half-transformation.
	Two-electron integral transformation complete.
	(OO|OV)...
	Starting AA second half-transformation.
	Starting AB second half-transformation.
	Starting BB second half-transformation.
	Two-electron integral transformation complete.
	(OO|VV)...
	Starting AA second half-transformation.
	Starting AB second half-transformation.
	Starting BB second half-transformation.
	Two-electron integral transformation complete.
	(OV|OO)...
	Starting AA/AB first half-transformation.
	Sorting AA/AB half-transformed integrals.
	Starting BB first half-transformation.
	Sorting BB half-transformed integrals.
	First half integral transformation complete.
	Starting AA second half-transformation.
	Starting AB second half-transformation.
	Starting BB second half-transformation.
	Two-electron integral transformation complete.
	(OV|OV)...
	Starting AA second half-transformation.
	Starting AB second half-transformation.
	Starting BB second half-transformation.
	Two-electron integral transformation complete.
	(OV|VV)...
	Starting AA second half-transformation.
	Starting AB second half-transformation.
	Starting BB second half-transformation.
	Two-electron integral transformation complete.
	(VV|OO)...
	Starting AA/AB first half-transformation.
	Sorting AA/AB half-transformed integrals.
	Starting BB first half-transformation.
	Sorting BB half-transformed integrals.
	First half integral transformation complete.
	Starting AA second half-transformation.
	Starting AB second half-transformation.
	Starting BB second half-transformation.
	Two-electron integral transformation complete.
	(VV|OV)...
	Starting AA second half-transformation.
	Starting AB second half-transformation.
	Starting BB second half-transformation.
	Two-electron integral transformation complete.
	(VV|VV)...
	Starting AA second half-transformation.
	Starting AB second half-transformation.
	Starting BB second half-transformation.
	Two-electron integral transformation complete.
	Frozen core energy     =   -130.90620386376321

	Size of irrep 0 of <AB|CD> integrals:     79.281 (MW) /    634.250 (MB)
	Size of irrep 1 of <AB|CD> integrals:     64.513 (MW) /    516.104 (MB)
	Size of irrep 2 of <AB|CD> integrals:     73.411 (MW) /    587.285 (MB)
	Size of irrep 3 of <AB|CD> integrals:     72.863 (MW) /    582.906 (MB)
	Size of irrep 4 of <AB|CD> integrals:     64.513 (MW) /    516.104 (MB)
	Size of irrep 5 of <AB|CD> integrals:     82.592 (MW) /    660.734 (MB)
	Size of irrep 6 of <AB|CD> integrals:     72.863 (MW) /    582.906 (MB)
	Size of irrep 7 of <AB|CD> integrals:     73.428 (MW) /    587.422 (MB)
	Total:                                   583.464 (MW) /   4667.712 (MB)

	Size of irrep 0 of <ab|cd> integrals:     80.085 (MW) /    640.677 (MB)
	Size of irrep 1 of <ab|cd> integrals:     65.254 (MW) /    522.033 (MB)
	Size of irrep 2 of <ab|cd> integrals:     73.943 (MW) /    591.542 (MB)
	Size of irrep 3 of <ab|cd> integrals:     73.943 (MW) /    591.542 (MB)
	Size of irrep 4 of <ab|cd> integrals:     65.238 (MW) /    521.903 (MB)
	Size of irrep 5 of <ab|cd> integrals:     83.412 (MW) /    667.294 (MB)
	Size of irrep 6 of <ab|cd> integrals:     73.960 (MW) /    591.680 (MB)
	Size of irrep 7 of <ab|cd> integrals:     73.960 (MW) /    591.680 (MB)
	Total:                                   589.794 (MW) /   4718.351 (MB)

	Size of irrep 0 of <Ab|Cd> integrals:    332.078 (MW) /   2656.622 (MB)
	Size of irrep 1 of <Ab|Cd> integrals:    259.532 (MW) /   2076.257 (MB)
	Size of irrep 2 of <Ab|Cd> integrals:    294.706 (MW) /   2357.647 (MB)
	Size of irrep 3 of <Ab|Cd> integrals:    293.608 (MW) /   2348.866 (MB)
	Size of irrep 4 of <Ab|Cd> integrals:    259.500 (MW) /   2075.999 (MB)
	Size of irrep 5 of <Ab|Cd> integrals:    332.005 (MW) /   2656.039 (MB)
	Size of irrep 6 of <Ab|Cd> integrals:    293.642 (MW) /   2349.140 (MB)
	Size of irrep 7 of <Ab|Cd> integrals:    294.775 (MW) /   2358.196 (MB)
	Total:                                  2359.846 (MW) /  18878.766 (MB)

	Size of irrep 0 of <IA|BC> integrals:      5.908 (MW) /     47.263 (MB)
	Size of irrep 1 of <IA|BC> integrals:      3.679 (MW) /     29.429 (MB)
	Size of irrep 2 of <IA|BC> integrals:      4.507 (MW) /     36.054 (MB)
	Size of irrep 3 of <IA|BC> integrals:      5.002 (MW) /     40.017 (MB)
	Size of irrep 4 of <IA|BC> integrals:      3.679 (MW) /     29.429 (MB)
	Size of irrep 5 of <IA|BC> integrals:      5.944 (MW) /     47.548 (MB)
	Size of irrep 6 of <IA|BC> integrals:      5.002 (MW) /     40.017 (MB)
	Size of irrep 7 of <IA|BC> integrals:      4.473 (MW) /     35.784 (MB)
	Total:                                    38.193 (MW) /    305.542 (MB)

	Size of irrep 0 of <ia|bc> integrals:      5.115 (MW) /     40.923 (MB)
	Size of irrep 1 of <ia|bc> integrals:      2.957 (MW) /     23.652 (MB)
	Size of irrep 2 of <ia|bc> integrals:      3.990 (MW) /     31.919 (MB)
	Size of irrep 3 of <ia|bc> integrals:      3.990 (MW) /     31.919 (MB)
	Size of irrep 4 of <ia|bc> integrals:      2.988 (MW) /     23.908 (MB)
	Size of irrep 5 of <ia|bc> integrals:      5.169 (MW) /     41.354 (MB)
	Size of irrep 6 of <ia|bc> integrals:      3.956 (MW) /     31.648 (MB)
	Size of irrep 7 of <ia|bc> integrals:      3.956 (MW) /     31.648 (MB)
	Total:                                    32.122 (MW) /    256.972 (MB)

	Size of irrep 0 of <Ia|Bc> integrals:      5.941 (MW) /     47.526 (MB)
	Size of irrep 1 of <Ia|Bc> integrals:      3.689 (MW) /     29.514 (MB)
	Size of irrep 2 of <Ia|Bc> integrals:      4.515 (MW) /     36.119 (MB)
	Size of irrep 3 of <Ia|Bc> integrals:      5.055 (MW) /     40.439 (MB)
	Size of irrep 4 of <Ia|Bc> integrals:      3.705 (MW) /     29.641 (MB)
	Size of irrep 5 of <Ia|Bc> integrals:      5.976 (MW) /     47.812 (MB)
	Size of irrep 6 of <Ia|Bc> integrals:      5.038 (MW) /     40.304 (MB)
	Size of irrep 7 of <Ia|Bc> integrals:      4.481 (MW) /     35.849 (MB)
	Total:                                    38.400 (MW) /    307.202 (MB)

	Size of irrep 0 of <iA|bC> integrals:      5.102 (MW) /     40.820 (MB)
	Size of irrep 1 of <iA|bC> integrals:      2.948 (MW) /     23.585 (MB)
	Size of irrep 2 of <iA|bC> integrals:      3.983 (MW) /     31.862 (MB)
	Size of irrep 3 of <iA|bC> integrals:      3.941 (MW) /     31.528 (MB)
	Size of irrep 4 of <iA|bC> integrals:      2.964 (MW) /     23.712 (MB)
	Size of irrep 5 of <iA|bC> integrals:      5.138 (MW) /     41.107 (MB)
	Size of irrep 6 of <iA|bC> integrals:      3.924 (MW) /     31.393 (MB)
	Size of irrep 7 of <iA|bC> integrals:      3.949 (MW) /     31.591 (MB)
	Total:                                    31.950 (MW) /    255.598 (MB)

	Size of irrep 0 of tIjAb amplitudes:       0.128 (MW) /      1.020 (MB)
	Size of irrep 1 of tIjAb amplitudes:       0.032 (MW) /      0.258 (MB)
	Size of irrep 2 of tIjAb amplitudes:       0.034 (MW) /      0.275 (MB)
	Size of irrep 3 of tIjAb amplitudes:       0.069 (MW) /      0.548 (MB)
	Size of irrep 4 of tIjAb amplitudes:       0.016 (MW) /      0.129 (MB)
	Size of irrep 5 of tIjAb amplitudes:       0.091 (MW) /      0.729 (MB)
	Size of irrep 6 of tIjAb amplitudes:       0.086 (MW) /      0.685 (MB)
	Size of irrep 7 of tIjAb amplitudes:       0.069 (MW) /      0.549 (MB)
	Total:                                     0.524 (MW) /      4.194 (MB)

	Nuclear Rep. energy          =     29.00439106139146
	SCF energy                   =   -149.22092607757321
	One-electron energy          =    -79.10531021731680
	Two-electron (AA) energy     =      7.97951067283357
	Two-electron (BB) energy     =      5.21292225075101
	Two-electron (AB) energy     =     18.59376401853071
	Two-electron energy          =     31.78619694211530
	Reference energy             =   -149.22092607757327

*** tstop() called on n412-050.vsc4.prov at Sat Oct 31 04:35:12 2020
Module time:
	user time   =    4689.69 seconds =      78.16 minutes
	system time =     197.05 seconds =       3.28 minutes
	total time  =        830 seconds =      13.83 minutes
Total time:
	user time   =    5655.86 seconds =      94.26 minutes
	system time =     242.83 seconds =       4.05 minutes
	total time  =       1772 seconds =      29.53 minutes

*** tstart() called on n412-050.vsc4.prov
*** at Sat Oct 31 04:35:12 2020

            **************************
            *                        *
            *        CCENERGY        *
            *                        *
            **************************

    Nuclear Rep. energy (wfn)     =   29.004391061391456
    SCF energy          (wfn)     = -149.220926077573210
    Reference energy    (file100) = -149.220926077573267

    Input parameters:
    -----------------
    Wave function   =     CCSD
    Reference wfn   =     UHF
    Brueckner       =     No
    Memory (Mbytes) =     250000.0
    Maxiter         =     50
    R_Convergence   =     1.0e-07
    E_Convergence   =     1.0e-06
    Restart         =     Yes
    DIIS            =     Yes
    AO Basis        =     NONE
    ABCD            =     NEW
    Cache Level     =     2
    Cache Type      =     LRU
    Print Level     =     1
    Num. of threads =     48
    # Amps to Print =     10
    Print MP2 Amps? =     No
    Analyze T2 Amps =     No
    Print Pair Ener =     No
    Local CC        =     No
    SCS-MP2         =     False
    SCSN-MP2        =     False
    SCS-CCSD        =     False

MP2 correlation energy -0.5281686009318274
                Solving CC Amplitude Equations
                ------------------------------
  Iter             Energy              RMS        T1Diag      D1Diag    New D1Diag    D2Diag
  ----     ---------------------    ---------   ----------  ----------  ----------   --------
     0        -0.528168600931827    0.000e+00    0.000000    0.000000    0.000000    0.000000
     1        -0.468927660683678    1.200e-01    0.022249    0.000000    0.000000    0.000000
     2        -0.495943805174450    4.565e-02    0.020109    0.000000    0.000000    0.000000
     3        -0.499229677644615    1.258e-02    0.023116    0.000000    0.000000    0.000000
     4        -0.499456520719105    3.101e-03    0.023274    0.000000    0.000000    0.000000
     5        -0.499483942834364    9.244e-04    0.023265    0.000000    0.000000    0.000000
     6        -0.499470005447771    2.668e-04    0.023223    0.000000    0.000000    0.000000
     7        -0.499481871251703    7.564e-05    0.023218    0.000000    0.000000    0.000000
     8        -0.499482637967563    2.425e-05    0.023217    0.000000    0.000000    0.000000
     9        -0.499481113390776    7.973e-06    0.023217    0.000000    0.000000    0.000000
    10        -0.499481260320711    2.822e-06    0.023217    0.000000    0.000000    0.000000
    11        -0.499481200756785    1.012e-06    0.023217    0.000000    0.000000    0.000000
    12        -0.499481263591851    2.789e-07    0.023217    0.000000    0.000000    0.000000
    13        -0.499481257469414    6.880e-08    0.023217    0.000000    0.000000    0.000000
    13        -0.499481257469414    6.880e-08    0.023217    0.000000    0.000000    0.000000

    Iterations converged.


    CCSD corr. energy   =   -0.499481257469414
    PPL corr. energy    =    0.135075485196601
    OS PPL corr. energy =    0.110746749323958
    SS PPL corr. energy =    0.024328735872644
    Largest TIA Amplitudes:
              5 330         0.0175887227
              5 326         0.0169756344
              5 331         0.0140956499
              5 325         0.0109149084
              4 281        -0.0108639547
              5 336         0.0108493125
              3 218         0.0097524622
              4 286        -0.0092262180
              5 329         0.0091665932
              4 284        -0.0090189839

    Largest Tia Amplitudes:
              2 219         0.0193362372
              4 331         0.0186344560
              4 327         0.0180149543
              3 286         0.0176171455
              3 282         0.0175362510
              3 287         0.0152212245
              4 332         0.0145389127
              2 222        -0.0116360902
              4 326         0.0115896542
              4 337         0.0114366088

    Largest TIJAB Amplitudes:
      5   1 218  94        -0.0392438894
      5   1 221  94         0.0237522006
      5   1 217  94         0.0194358012
      5   1 220  94        -0.0137841450
      5   2 286  94         0.0132892136
      5   2 284  94         0.0113815562
      2   1 286 218         0.0106222240
      5   1 225  94         0.0100220906
      2   1 290 218         0.0097769355
      5   2 290  94         0.0095587702

    Largest Tijab Amplitudes:
      4   3 140  94         0.0937221711
      3   1 219 140        -0.0427581716
      4   1 219  94        -0.0390260850
      3   1 222 140         0.0311252884
      4   1 222  94         0.0285630434
      3   1 221 140        -0.0193640410
      4   1 221  94        -0.0178342683
      4   3 142  94         0.0172169291
      4   3 140  96         0.0154855720
      3   1 218 140         0.0151770675

    Largest TIjAb Amplitudes:
      5   4  94  94        -0.2367559003
      5   3  94 140        -0.1425607304
      3   2  94  94        -0.0598787247
      1   3 218 140         0.0512385484
      1   4 218  94         0.0475103558
      1   1  94  94        -0.0472554229
      4   4  94 140        -0.0423777199
      5   1  94 219         0.0409241261
      5   4  94  96        -0.0384651307
      1   1 218 219        -0.0370265901

    SCF energy       (wfn)                    = -149.220926077573210
    Reference energy (file100)                = -149.220926077573267

    Opposite-spin MP2 correlation energy      =   -0.392141363898354
    Same-spin MP2 correlation energy          =   -0.136027237033472
    MP2 correlation energy                    =   -0.528168600931827
      * MP2 total energy                      = -149.749094678505088

    Opposite-spin CCSD correlation energy     =   -0.391720489161737
    Same-spin CCSD correlation energy         =   -0.107760768952927
    CCSD correlation energy                   =   -0.499481257469414
      * CCSD total energy                     = -149.720407335042694


*** tstop() called on n412-050.vsc4.prov at Sat Oct 31 04:48:48 2020
Module time:
	user time   =    7293.44 seconds =     121.56 minutes
	system time =     383.86 seconds =       6.40 minutes
	total time  =        816 seconds =      13.60 minutes
Total time:
	user time   =   12949.30 seconds =     215.82 minutes
	system time =     626.69 seconds =      10.44 minutes
	total time  =       2588 seconds =      43.13 minutes

*** Psi4 exiting successfully. Buy a developer a beer!
