
    -----------------------------------------------------------------------
          Psi4: An Open-Source Ab Initio Electronic Structure Package
                               Psi4 1.4a3.dev88 

                         Git: Rev {master} 262e345 


    D. G. A. Smith, L. A. Burns, A. C. Simmonett, R. M. Parrish,
    M. C. Schieber, R. Galvelis, P. Kraus, H. Kruse, R. Di Remigio,
    A. Alenaizan, A. M. James, S. Lehtola, J. P. Misiewicz, M. Scheurer,
    R. A. Shaw, J. B. Schriber, Y. Xie, Z. L. Glick, D. A. Sirianni,
    J. S. O'Brien, J. M. Waldrop, A. Kumar, E. G. Hohenstein,
    B. P. Pritchard, B. R. Brooks, H. F. Schaefer III, A. Yu. Sokolov,
    K. Patkowski, A. E. DePrince III, U. Bozkaya, R. A. King,
    F. A. Evangelista, J. M. Turney, T. D. Crawford, C. D. Sherrill,
    J. Chem. Phys. 152(18) 184108 (2020). https://doi.org/10.1063/5.0006002

                            Additional Code Authors
    E. T. Seidl, C. L. Janssen, E. F. Valeev, M. L. Leininger,
    J. F. Gonthier, R. M. Richard, H. R. McAlexander, M. Saitow, X. Wang,
    P. Verma, and M. H. Lechner

             Previous Authors, Complete List of Code Contributors,
                       and Citations for Specific Modules
    https://github.com/psi4/psi4/blob/master/codemeta.json
    https://github.com/psi4/psi4/graphs/contributors
    http://psicode.org/psi4manual/master/introduction.html#citing-psifour

    -----------------------------------------------------------------------


    Psi4 started on: Friday, 22 January 2021 04:31AM

    Process ID: 48931
    Host:       n412-045.vsc4.prov
    PSIDATADIR: /home/fs71337/gallo4/psi4/psi4/build/stage/share/psi4
    Memory:     500.0 MiB
    Threads:    48
    
  ==> Input File <==

--------------------------------------------------------------------------
# Any line starting with the # character is a comment line
memory 250000 mb
molecule molecule{
0 3
P          0.0000000000        0.0000000000        0.0446409825
H          0.0000000000        0.0000000000       -1.3718069306
}

set {
  reference uhf
  basis aug-cc-pV(5+d)Z
  scf_type OUT_OF_CORE
  freeze_core true
}

energy('ccsd(t)')
--------------------------------------------------------------------------

  Memory set to 232.831 GiB by Python driver.

Scratch directory: /binfl/lv71337/airmler/temp/

*** tstart() called on n412-045.vsc4.prov
*** at Fri Jan 22 04:31:02 2021

   => Loading Basis Set <=

    Name: AUG-CC-PV(5+D)Z
    Role: ORBITAL
    Keyword: BASIS
    atoms 1 entry P          line  1330 file /home/fs71337/gallo4/psi4/psi4/build/stage/share/psi4/basis/aug-cc-pv_5pd_z.gbs 
    atoms 2 entry H          line    69 file /home/fs71337/gallo4/psi4/psi4/build/stage/share/psi4/basis/aug-cc-pv_5pd_z.gbs 


         ---------------------------------------------------------
                                   SCF
               by Justin Turney, Rob Parrish, Andy Simmonett
                          and Daniel G. A. Smith
                              UHF Reference
                       48 Threads, 238418 MiB Core
         ---------------------------------------------------------

  ==> Geometry <==

    Molecular point group: c2v
    Full point group: C_inf_v

    Geometry (in Angstrom), charge = 0, multiplicity = 3:

       Center              X                  Y                   Z               Mass       
    ------------   -----------------  -----------------  -----------------  -----------------
         P            0.000000000000     0.000000000000     0.044636048308    30.973761998420
         H            0.000000000000     0.000000000000    -1.371811864792     1.007825032230

  Running in c2v symmetry.

  Rotational constants: A = ************  B =      8.60828  C =      8.60828 [cm^-1]
  Rotational constants: A = ************  B = 258069.62729  C = 258069.62729 [MHz]
  Nuclear repulsion =    5.603918143857372

  Charge       = 0
  Multiplicity = 3
  Electrons    = 16
  Nalpha       = 9
  Nbeta        = 7

  ==> Algorithm <==

  SCF Algorithm Type is OUT_OF_CORE.
  DIIS enabled.
  MOM disabled.
  Fractional occupation disabled.
  Guess Type is SAD.
  Energy threshold   = 1.00e-08
  Density threshold  = 1.00e-08
  Integral threshold = 1.00e-12

  ==> Primary Basis <==

  Basis Set: AUG-CC-PV(5+D)Z
    Blend: AUG-CC-PV(5+D)Z
    Number of shells: 50
    Number of basis function: 216
    Number of Cartesian functions: 297
    Spherical Harmonics?: true
    Max angular momentum: 5

  ==> Integral Setup <==

  ==> DiskJK: Disk-Based J/K Matrices <==

    J tasked:                  Yes
    K tasked:                  Yes
    wK tasked:                  No
    Memory [MiB]:           178813
    Schwarz Cutoff:          1E-12

  Minimum eigenvalue in the overlap matrix is 3.0325089219E-05.
  Reciprocal condition number of the overlap matrix is 4.6174698429E-06.
    Using symmetric orthogonalization.

  ==> Pre-Iterations <==

  SCF Guess: Superposition of Atomic Densities via on-the-fly atomic UHF (no occupation information).


 WARNING: Atomic UHF is not converging! Try casting from a smaller basis or call Rob at CCMST.

 WARNING: Atomic UHF is not converging! Try casting from a smaller basis or call Rob at CCMST.
   -------------------------
    Irrep   Nso     Nmo    
   -------------------------
     A1        81      81 
     A2        31      31 
     B1        52      52 
     B2        52      52 
   -------------------------
    Total     216     216
   -------------------------

  ==> Iterations <==

                        Total Energy        Delta E     RMS |[F,P]|

   @UHF iter SAD:   -61.46646053339779   -6.14665e+01   0.00000e+00 
    Occupation by irrep:
             A1    A2    B1    B2 
    DOCC [     5,    0,    1,    1 ]
    SOCC [     1,    0,    1,    0 ]

   @UHF iter   1:  -336.45389931738964   -2.74987e+02   4.82106e-02 DIIS
    Occupation by irrep:
             A1    A2    B1    B2 
    DOCC [     5,    0,    1,    1 ]
    SOCC [     0,    0,    1,    1 ]

   @UHF iter   2:  -338.91843834502464   -2.46454e+00   1.93695e-02 DIIS
   @UHF iter   3:  -341.14567450099747   -2.22724e+00   4.60366e-03 DIIS
   @UHF iter   4:  -341.29871338997219   -1.53039e-01   6.12259e-04 DIIS
   @UHF iter   5:  -341.30189313989251   -3.17975e-03   1.54034e-04 DIIS
   @UHF iter   6:  -341.30226044715323   -3.67307e-04   6.40562e-05 DIIS
   @UHF iter   7:  -341.30236421322792   -1.03766e-04   2.51892e-05 DIIS
   @UHF iter   8:  -341.30238489675685   -2.06835e-05   7.94554e-06 DIIS
   @UHF iter   9:  -341.30238731125195   -2.41450e-06   3.93115e-06 DIIS
   @UHF iter  10:  -341.30238799013216   -6.78880e-07   1.57915e-06 DIIS
   @UHF iter  11:  -341.30238809882707   -1.08695e-07   3.28155e-07 DIIS
   @UHF iter  12:  -341.30238810172239   -2.89532e-09   6.40807e-08 DIIS
   @UHF iter  13:  -341.30238810181294   -9.05516e-11   1.71926e-08 DIIS
   @UHF iter  14:  -341.30238810182050   -7.56017e-12   3.60314e-09 DIIS
  Energy and wave function converged.


  ==> Post-Iterations <==

   @Spin Contamination Metric:   2.921217303E-02
   @S^2 Expected:                2.000000000E+00
   @S^2 Observed:                2.029212173E+00
   @S   Expected:                1.000000000E+00
   @S   Observed:                1.000000000E+00

    Orbital Energies [Eh]
    ---------------------

    Alpha Occupied:                                                       

       1A1   -79.969386     2A1    -7.511521     1B1    -5.413966  
       1B2    -5.413966     3A1    -5.398204     4A1    -0.851255  
       5A1    -0.476879     2B1    -0.386273     2B2    -0.386273  

    Alpha Virtual:                                                        

       6A1     0.023989     7A1     0.058550     3B1     0.063382  
       3B2     0.063382     8A1     0.106085     9A1     0.124853  
       4B2     0.143862     4B1     0.143862     1A2     0.146724  
      10A1     0.146724    11A1     0.209162    12A1     0.218014  
       5B1     0.226291     5B2     0.226291    13A1     0.306587  
       6B1     0.309549     6B2     0.309549    14A1     0.351293  
       2A2     0.364741    15A1     0.364741     7B2     0.368721  
       7B1     0.368721     8B2     0.370287     8B1     0.370287  
       3A2     0.380442    16A1     0.380442    17A1     0.439984  
       9B1     0.475189     9B2     0.475189    18A1     0.548659  
      19A1     0.552261    10B1     0.606408    10B2     0.606408  
       4A2     0.622060    20A1     0.622060    21A1     0.721931  
       5A2     0.900714    22A1     0.900714    11B1     0.901544  
      11B2     0.901544    12B1     0.920763    12B2     0.920763  
      23A1     0.940423    24A1     0.957513     6A2     0.957513  
       7A2     0.975096    25A1     0.975096    13B1     0.975849  
      13B2     0.975849    26A1     0.977246    14B1     0.990030  
      14B2     0.990030    27A1     1.035250    15B2     1.036420  
      15B1     1.036420    16B1     1.064269    16B2     1.064269  
       8A2     1.070730    28A1     1.070730    29A1     1.167929  
      17B1     1.311424    17B2     1.311424    30A1     1.377536  
      18B2     1.392979    18B1     1.392979    31A1     1.457789  
      32A1     1.468386     9A2     1.468386    19B1     1.663849  
      19B2     1.663849    33A1     1.695285    34A1     1.905920  
      35A1     2.065900    10A2     2.065900    20B1     2.096907  
      20B2     2.096907    36A1     2.155752    11A2     2.155752  
      21B1     2.158045    21B2     2.158045    22B1     2.169622  
      22B2     2.169622    37A1     2.174819    23B1     2.176094  
      23B2     2.176094    12A2     2.208424    38A1     2.208424  
      13A2     2.316464    39A1     2.316464    40A1     2.320216  
      14A2     2.320216    24B2     2.322195    24B1     2.322195  
      25B1     2.383234    25B2     2.383234    26B2     2.391845  
      26B1     2.391845    41A1     2.397827    42A1     2.417952  
      15A2     2.417952    43A1     2.487424    27B1     2.546137  
      27B2     2.546137    44A1     2.785642    28B1     2.834019  
      28B2     2.834019    45A1     2.887614    46A1     3.002388  
      16A2     3.002388    47A1     3.138010    17A2     3.138010  
      48A1     3.192327    29B1     3.291545    29B2     3.291545  
      49A1     3.582630    18A2     3.582630    30B2     3.664643  
      30B1     3.664643    31B1     3.760546    31B2     3.760546  
      50A1     3.821506    51A1     3.986145    32B1     3.995158  
      32B2     3.995158    33B2     4.320281    33B1     4.320281  
      52A1     4.589744    53A1     4.601259    19A2     4.601259  
      34B1     4.606294    34B2     4.606294    35B2     4.684975  
      35B1     4.684975    54A1     4.706909    20A2     4.706909  
      55A1     4.858644    56A1     4.927874    21A2     4.927874  
      36B2     4.929447    36B1     4.929447    57A1     5.186644  
      37B1     5.203786    37B2     5.203786    58A1     5.213262  
      22A2     5.213262    38B2     5.252063    38B1     5.252063  
      59A1     5.290410    23A2     5.290410    39B1     5.296054  
      39B2     5.296054    60A1     5.383214    40B1     5.416277  
      40B2     5.416277    61A1     5.429124    24A2     5.429124  
      41B2     5.559682    41B1     5.559682    62A1     5.623432  
      63A1     5.785014    64A1     5.966221    25A2     5.966221  
      65A1     6.152126    66A1     6.279637    26A2     6.279637  
      42B2     6.322762    42B1     6.322762    43B2     6.644412  
      43B1     6.644412    67A1     7.376663    44B2     7.552971  
      44B1     7.552971    68A1     9.104456    45B1    12.982117  
      45B2    12.982117    69A1    13.127282    27A2    13.127282  
      28A2    13.172400    70A1    13.172400    71A1    13.296992  
      29A2    13.296992    46B2    13.326106    46B1    13.326106  
      47B2    13.327941    47B1    13.327941    48B2    13.455875  
      48B1    13.455875    72A1    13.492068    73A1    13.597329  
      74A1    13.643475    30A2    13.643475    75A1    13.737968  
      49B2    14.263348    49B1    14.263348    76A1    14.475107  
      31A2    14.475107    77A1    14.542419    50B2    14.920551  
      50B1    14.920551    78A1    16.014377    51B1    17.022745  
      51B2    17.022745    52B1    18.137947    52B2    18.137947  
      79A1    18.833763    80A1    20.148820    81A1    54.065157  

    Beta Occupied:                                                        

       1A1   -79.954509     2A1    -7.495825     3A1    -5.391195  
       1B2    -5.376073     1B1    -5.376073     4A1    -0.704354  
       5A1    -0.436220  

    Beta Virtual:                                                         

       2B1     0.024483     2B2     0.024483     6A1     0.025903  
       7A1     0.059877     3B1     0.091566     3B2     0.091566  
       8A1     0.113369     9A1     0.134740     4B1     0.151984  
       4B2     0.151984    10A1     0.163404     1A2     0.163404  
      11A1     0.210811     5B1     0.232268     5B2     0.232268  
      12A1     0.236156    13A1     0.314282     6B1     0.357471  
       6B2     0.357471    14A1     0.368456    15A1     0.370032  
       2A2     0.370032     7B1     0.376926     7B2     0.376926  
       8B1     0.404008     8B2     0.404008    16A1     0.444119  
      17A1     0.466543     3A2     0.466543     9B1     0.486731  
       9B2     0.486731    18A1     0.560169    19A1     0.567777  
      10B1     0.616401    10B2     0.616401    20A1     0.627327  
       4A2     0.627327    21A1     0.731672    11B1     0.911313  
      11B2     0.911313    22A1     0.913625     5A2     0.913625  
      12B1     0.946427    12B2     0.946427    23A1     0.952589  
      24A1     0.991060     6A2     0.991060    25A1     0.992662  
      13B1     1.009408    13B2     1.009408    14B1     1.016375  
      14B2     1.016375    26A1     1.029638     7A2     1.029638  
      27A1     1.041596    15B1     1.057047    15B2     1.057047  
      28A1     1.087963     8A2     1.087963    16B1     1.103933  
      16B2     1.103933    29A1     1.175045    17B1     1.319099  
      17B2     1.319099    30A1     1.392013    18B1     1.397263  
      18B2     1.397263    31A1     1.467086    32A1     1.470682  
       9A2     1.470682    19B1     1.679435    19B2     1.679435  
      33A1     1.700469    34A1     1.930625    35A1     2.081569  
      10A2     2.081569    20B2     2.115199    20B1     2.115199  
      36A1     2.172048    11A2     2.172048    21B1     2.178757  
      21B2     2.178757    22B2     2.186089    22B1     2.186089  
      37A1     2.194000    23B1     2.231819    23B2     2.231819  
      38A1     2.243023    12A2     2.243023    24B1     2.349418  
      24B2     2.349418    39A1     2.354653    13A2     2.354653  
      14A2     2.354778    40A1     2.354778    25B1     2.391420  
      25B2     2.391420    26B1     2.406006    26B2     2.406006  
      41A1     2.407462    42A1     2.430678    15A2     2.430678  
      43A1     2.492031    27B2     2.562234    27B1     2.562234  
      44A1     2.794645    28B1     2.847839    28B2     2.847839  
      45A1     2.896012    46A1     3.012054    16A2     3.012054  
      17A2     3.142776    47A1     3.142776    48A1     3.191952  
      29B1     3.302939    29B2     3.302939    49A1     3.586583  
      18A2     3.586583    30B2     3.668013    30B1     3.668013  
      31B2     3.775030    31B1     3.775030    50A1     3.826158  
      51A1     3.991749    32B2     4.018068    32B1     4.018068  
      33B1     4.327429    33B2     4.327429    52A1     4.607747  
      53A1     4.621213    19A2     4.621213    34B1     4.639186  
      34B2     4.639186    35B2     4.697747    35B1     4.697747  
      54A1     4.719510    20A2     4.719510    55A1     4.871363  
      36B2     4.936341    36B1     4.936341    56A1     4.951560  
      21A2     4.951560    57A1     5.193256    37B1     5.237064  
      37B2     5.237064    58A1     5.239735    22A2     5.239735  
      38B2     5.268653    38B1     5.268653    39B1     5.324435  
      39B2     5.324435    23A2     5.327812    59A1     5.327812  
      60A1     5.394970    40B1     5.435260    40B2     5.435260  
      61A1     5.444659    24A2     5.444659    41B2     5.569804  
      41B1     5.569804    62A1     5.633882    63A1     5.792790  
      64A1     5.968580    25A2     5.968580    65A1     6.154538  
      66A1     6.292592    26A2     6.292592    42B2     6.326834  
      42B1     6.326834    43B2     6.649359    43B1     6.649359  
      67A1     7.379831    44B2     7.559075    44B1     7.559075  
      68A1     9.108242    45B1    12.981802    45B2    12.981802  
      69A1    13.145363    27A2    13.145363    28A2    13.172536  
      70A1    13.172536    71A1    13.298191    29A2    13.298191  
      46B2    13.326496    46B1    13.326496    47B2    13.328018  
      47B1    13.328018    48B2    13.466232    48B1    13.466232  
      72A1    13.492018    73A1    13.603197    74A1    13.644062  
      30A2    13.644062    75A1    13.738704    49B2    14.263549  
      49B1    14.263549    76A1    14.474390    31A2    14.474390  
      77A1    14.541403    50B2    14.921044    50B1    14.921044  
      78A1    16.013829    51B2    17.037754    51B1    17.037754  
      52B2    18.147009    52B1    18.147009    79A1    18.833025  
      80A1    20.153333    81A1    54.075573  

    Final Occupation by Irrep:
             A1    A2    B1    B2 
    DOCC [     5,    0,    1,    1 ]
    SOCC [     0,    0,    1,    1 ]

  @UHF Final Energy:  -341.30238810182050

   => Energetics <=

    Nuclear Repulsion Energy =              5.6039181438573724
    One-Electron Energy =                -483.2706414985874517
    Two-Electron Energy =                 136.3643352529096262
    Total Energy =                       -341.3023881018204975

  UHF NO Occupations:
  HONO-2 :    5 A1 1.9861093
  HONO-1 :    2 B2 1.0000000
  HONO-0 :    2 B1 1.0000000
  LUNO+0 :    6 A1 0.0138907
  LUNO+1 :    7 A1 0.0008014
  LUNO+2 :    3 B1 0.0000050
  LUNO+3 :    3 B2 0.0000050


Computation Completed


Properties will be evaluated at   0.000000,   0.000000,   0.000000 [a0]

Properties computed using the SCF density matrix

  Nuclear Dipole Moment: [e a0]
     X:     0.0000      Y:     0.0000      Z:    -1.3271

  Electronic Dipole Moment: [e a0]
     X:     0.0000      Y:     0.0000      Z:     1.1219

  Dipole Moment: [e a0]
     X:     0.0000      Y:     0.0000      Z:    -0.2052     Total:     0.2052

  Dipole Moment: [D]
     X:     0.0000      Y:     0.0000      Z:    -0.5216     Total:     0.5216


*** tstop() called on n412-045.vsc4.prov at Fri Jan 22 04:32:43 2021
Module time:
	user time   =     155.49 seconds =       2.59 minutes
	system time =       9.41 seconds =       0.16 minutes
	total time  =        101 seconds =       1.68 minutes
Total time:
	user time   =     155.49 seconds =       2.59 minutes
	system time =       9.41 seconds =       0.16 minutes
	total time  =        101 seconds =       1.68 minutes

*** tstart() called on n412-045.vsc4.prov
*** at Fri Jan 22 04:32:43 2021


	Wfn Parameters:
	--------------------
	Wavefunction         = CCSD_T
	Number of irreps     = 4
	Number of MOs        = 216
	Number of active MOs = 211
	AO-Basis             = NONE
	Semicanonical        = false
	Reference            = UHF
	Print Level          = 1

	IRREP	# MOs	# FZDC	# DOCC	# SOCC	# VIRT	# FZVR
	-----	-----	------	------	------	------	------
	 A1	   81	    3	    2	    0	    76	    0
	 A2	   31	    0	    0	    0	    31	    0
	 B1	   52	    1	    0	    1	    50	    0
	 B2	   52	    1	    0	    1	    50	    0
	Transforming integrals...
	IWL integrals will be deleted.
	(OO|OO)...
	Presorting SO-basis two-electron integrals.
	Sorting File: SO Ints (nn|nn) nbuckets = 1
	Constructing frozen core operators
	Starting AA/AB first half-transformation.
	Sorting AA/AB half-transformed integrals.
	Starting BB first half-transformation.
	Sorting BB half-transformed integrals.
	First half integral transformation complete.
	Starting AA second half-transformation.
	Starting AB second half-transformation.
	Starting BB second half-transformation.
	Two-electron integral transformation complete.
	(OO|OV)...
	Starting AA second half-transformation.
	Starting AB second half-transformation.
	Starting BB second half-transformation.
	Two-electron integral transformation complete.
	(OO|VV)...
	Starting AA second half-transformation.
	Starting AB second half-transformation.
	Starting BB second half-transformation.
	Two-electron integral transformation complete.
	(OV|OO)...
	Starting AA/AB first half-transformation.
	Sorting AA/AB half-transformed integrals.
	Starting BB first half-transformation.
	Sorting BB half-transformed integrals.
	First half integral transformation complete.
	Starting AA second half-transformation.
	Starting AB second half-transformation.
	Starting BB second half-transformation.
	Two-electron integral transformation complete.
	(OV|OV)...
	Starting AA second half-transformation.
	Starting AB second half-transformation.
	Starting BB second half-transformation.
	Two-electron integral transformation complete.
	(OV|VV)...
	Starting AA second half-transformation.
	Starting AB second half-transformation.
	Starting BB second half-transformation.
	Two-electron integral transformation complete.
	(VV|OO)...
	Starting AA/AB first half-transformation.
	Sorting AA/AB half-transformed integrals.
	Starting BB first half-transformation.
	Sorting BB half-transformed integrals.
	First half integral transformation complete.
	Starting AA second half-transformation.
	Starting AB second half-transformation.
	Starting BB second half-transformation.
	Two-electron integral transformation complete.
	(VV|OV)...
	Starting AA second half-transformation.
	Starting AB second half-transformation.
	Starting BB second half-transformation.
	Two-electron integral transformation complete.
	(VV|VV)...
	Starting AA second half-transformation.
	Starting AB second half-transformation.
	Starting BB second half-transformation.
	Two-electron integral transformation complete.
	Frozen core energy     =   -338.09878637737972

	Size of irrep 0 of <AB|CD> integrals:     33.235 (MW) /    265.882 (MB)
	Size of irrep 1 of <AB|CD> integrals:     23.581 (MW) /    188.646 (MB)
	Size of irrep 2 of <AB|CD> integrals:     28.622 (MW) /    228.980 (MB)
	Size of irrep 3 of <AB|CD> integrals:     28.622 (MW) /    228.980 (MB)
	Total:                                   114.061 (MW) /    912.488 (MB)

	Size of irrep 0 of <ab|cd> integrals:     34.398 (MW) /    275.186 (MB)
	Size of irrep 1 of <ab|cd> integrals:     24.572 (MW) /    196.575 (MB)
	Size of irrep 2 of <ab|cd> integrals:     29.779 (MW) /    238.231 (MB)
	Size of irrep 3 of <ab|cd> integrals:     29.779 (MW) /    238.231 (MB)
	Total:                                   118.528 (MW) /    948.222 (MB)

	Size of irrep 0 of <Ab|Cd> integrals:    140.115 (MW) /   1120.917 (MB)
	Size of irrep 1 of <Ab|Cd> integrals:     96.275 (MW) /    770.203 (MB)
	Size of irrep 2 of <Ab|Cd> integrals:    116.791 (MW) /    934.330 (MB)
	Size of irrep 3 of <Ab|Cd> integrals:    116.791 (MW) /    934.330 (MB)
	Total:                                   469.972 (MW) /   3759.779 (MB)

	Size of irrep 0 of <IA|BC> integrals:      2.958 (MW) /     23.662 (MB)
	Size of irrep 1 of <IA|BC> integrals:      1.573 (MW) /     12.587 (MB)
	Size of irrep 2 of <IA|BC> integrals:      2.215 (MW) /     17.719 (MB)
	Size of irrep 3 of <IA|BC> integrals:      2.215 (MW) /     17.719 (MB)
	Total:                                     8.961 (MW) /     71.687 (MB)

	Size of irrep 0 of <ia|bc> integrals:      1.815 (MW) /     14.518 (MB)
	Size of irrep 1 of <ia|bc> integrals:      0.615 (MW) /      4.917 (MB)
	Size of irrep 2 of <ia|bc> integrals:      1.113 (MW) /      8.906 (MB)
	Size of irrep 3 of <ia|bc> integrals:      1.113 (MW) /      8.906 (MB)
	Total:                                     4.656 (MW) /     37.247 (MB)

	Size of irrep 0 of <Ia|Bc> integrals:      3.007 (MW) /     24.053 (MB)
	Size of irrep 1 of <Ia|Bc> integrals:      1.609 (MW) /     12.873 (MB)
	Size of irrep 2 of <Ia|Bc> integrals:      2.259 (MW) /     18.069 (MB)
	Size of irrep 3 of <Ia|Bc> integrals:      2.259 (MW) /     18.069 (MB)
	Total:                                     9.133 (MW) /     73.065 (MB)

	Size of irrep 0 of <iA|bC> integrals:      1.799 (MW) /     14.394 (MB)
	Size of irrep 1 of <iA|bC> integrals:      0.608 (MW) /      4.867 (MB)
	Size of irrep 2 of <iA|bC> integrals:      1.081 (MW) /      8.646 (MB)
	Size of irrep 3 of <iA|bC> integrals:      1.081 (MW) /      8.646 (MB)
	Total:                                     4.569 (MW) /     36.552 (MB)

	Size of irrep 0 of tIjAb amplitudes:       0.047 (MW) /      0.379 (MB)
	Size of irrep 1 of tIjAb amplitudes:       0.000 (MW) /      0.000 (MB)
	Size of irrep 2 of tIjAb amplitudes:       0.022 (MW) /      0.173 (MB)
	Size of irrep 3 of tIjAb amplitudes:       0.022 (MW) /      0.173 (MB)
	Total:                                     0.091 (MW) /      0.725 (MB)

	Nuclear Rep. energy          =      5.60391814385737
	SCF energy                   =   -341.30238810182050
	One-electron energy          =    -14.37378591206561
	Two-electron (AA) energy     =      1.99656312043555
	Two-electron (BB) energy     =      0.29949938575680
	Two-electron (AB) energy     =      3.27020353757510
	Two-electron energy          =      5.56626604376744
	Reference energy             =   -341.30238810182050

*** tstop() called on n412-045.vsc4.prov at Fri Jan 22 04:35:26 2021
Module time:
	user time   =      52.78 seconds =       0.88 minutes
	system time =      33.86 seconds =       0.56 minutes
	total time  =        163 seconds =       2.72 minutes
Total time:
	user time   =     208.27 seconds =       3.47 minutes
	system time =      43.27 seconds =       0.72 minutes
	total time  =        264 seconds =       4.40 minutes
            **************************
            *                        *
            *        CCENERGY        *
            *                        *
            **************************

    Nuclear Rep. energy (wfn)     =    5.603918143857372
    SCF energy          (wfn)     = -341.302388101820497
    Reference energy    (file100) = -341.302388101820497

    Input parameters:
    -----------------
    Wave function   =     CCSD_T
    Reference wfn   =     UHF
    Brueckner       =     No
    Memory (Mbytes) =     250000.0
    Maxiter         =     50
    R_Convergence   =     1.0e-07
    E_Convergence   =     1.0e-06
    Restart         =     Yes
    DIIS            =     Yes
    AO Basis        =     NONE
    ABCD            =     NEW
    Cache Level     =     2
    Cache Type      =     LRU
    Print Level     =     1
    Num. of threads =     48
    # Amps to Print =     10
    Print MP2 Amps? =     No
    Analyze T2 Amps =     No
    Print Pair Ener =     No
    Local CC        =     No
    SCS-MP2         =     False
    SCSN-MP2        =     False
    SCS-CCSD        =     False

MP2 correlation energy -0.1181846596670806
                Solving CC Amplitude Equations
                ------------------------------
  Iter             Energy              RMS        T1Diag      D1Diag    New D1Diag    D2Diag
  ----     ---------------------    ---------   ----------  ----------  ----------   --------
     0        -0.118184659667081    0.000e+00    0.000000    0.000000    0.000000    0.000000
     1        -0.131776319811737    5.347e-02    0.012844    0.000000    0.000000    0.000000
     2        -0.138473286497711    2.223e-02    0.021592    0.000000    0.000000    0.000000
     3        -0.138831603139651    6.835e-03    0.025168    0.000000    0.000000    0.000000
     4        -0.138857198835803    2.237e-03    0.026193    0.000000    0.000000    0.000000
     5        -0.138854197488444    8.602e-04    0.026499    0.000000    0.000000    0.000000
     6        -0.138850920895148    3.189e-04    0.026573    0.000000    0.000000    0.000000
     7        -0.138853843716947    1.163e-04    0.026583    0.000000    0.000000    0.000000
     8        -0.138854932161363    3.821e-05    0.026588    0.000000    0.000000    0.000000
     9        -0.138854315489337    1.518e-05    0.026588    0.000000    0.000000    0.000000
    10        -0.138854345004608    5.443e-06    0.026588    0.000000    0.000000    0.000000
    11        -0.138854348232940    1.809e-06    0.026588    0.000000    0.000000    0.000000
    12        -0.138854401689989    5.371e-07    0.026588    0.000000    0.000000    0.000000
    13        -0.138854413332670    1.770e-07    0.026588    0.000000    0.000000    0.000000
    14        -0.138854413365792    6.190e-08    0.026588    0.000000    0.000000    0.000000

    Iterations converged.


    Largest TIA Amplitudes:
              1   3        -0.0218397718
              1   8         0.0165943488
              1   6        -0.0123582964
              1  20        -0.0093451310
              0   8        -0.0089075359
              1   7         0.0085110656
              0   3         0.0067144135
              1  13         0.0062984469
              3 158        -0.0058610488
              2 108        -0.0058610463

    Largest Tia Amplitudes:
              0   6         0.0227501100
              0   3         0.0196073111
              1   6         0.0194253519
              1   3         0.0163148500
              0   8        -0.0160354200
              0   7        -0.0122334615
              1   8        -0.0116718622
              0  13         0.0092695903
              1  13         0.0073294928
              0  19         0.0070285910

    Largest TIJAB Amplitudes:
      3   2  78  10        -0.0319352834
      3   2  76  10        -0.0188283472
      3   2  78   4        -0.0188283472
      3   1 162   3         0.0178573701
      2   1 112   3         0.0178573698
      2   1 112   6         0.0167567232
      3   1 162   6         0.0167567226
      3   2 162 112        -0.0161533722
      3   1 162   8        -0.0159780557
      2   1 112   8        -0.0159780545

    Largest Tijab Amplitudes:
      1   0 113 107         0.0074795127
      1   0 164 158         0.0074795120
      1   0 164 159        -0.0066266350
      1   0 113 108        -0.0066266347
      1   0  13   7         0.0048218018
      1   0 113 111         0.0046277586
      1   0 164 162         0.0046277586
      1   0 117 107         0.0045647921
      1   0 168 158         0.0045647917
      1   0   7   6        -0.0045618102

    Largest TIjAb Amplitudes:
      1   1   6   6        -0.0270991302
      1   1   8   8        -0.0260406972
      1   1   3   8         0.0252454935
      2   0  10 107        -0.0243437297
      3   0  78 107        -0.0243437285
      2   0  78 158        -0.0243437274
      3   0  10 158         0.0243437262
      1   1   3   6        -0.0242323684
      1   1   3   3        -0.0241571968
      1   1   6   8         0.0214711274

    SCF energy       (wfn)                    = -341.302388101820497
    Reference energy (file100)                = -341.302388101820497

    Opposite-spin MP2 correlation energy      =   -0.094721453121310
    Same-spin MP2 correlation energy          =   -0.023463206545770
    Singles MP2 correlation energy            =   -0.000000000000000
    MP2 correlation energy                    =   -0.118184659667081
      * MP2 total energy                      = -341.420572761487563

    Opposite-spin CCSD correlation energy     =   -0.113441622715692
    Same-spin CCSD correlation energy         =   -0.025412790650107
    Singles CCSD correlation energy           =    0.000000000000008
    CCSD correlation energy                   =   -0.138854413365792
      * CCSD total energy                     = -341.441242515186275

            **************************
            *                        *
            *        CCTRIPLES       *
            *                        *
            **************************


    Wave function   =    CCSD_T
    Reference wfn   =      UHF

    Nuclear Rep. energy (wfn)                =    5.603918143857372
    SCF energy          (wfn)                = -341.302388101820497
    Reference energy    (file100)            = -341.302388101820497
    CCSD energy         (file100)            =   -0.138854413365792
    Total CCSD energy   (file100)            = -341.441242515186275

    Number of ijk index combinations:
    Spin Case AAA:                                   4
    Spin Case BBB:                                   0
    Spin Case AAB:                                  12
    Spin Case ABB:                                   4
    AAA (T) energy                             =   -0.000299692439625
    BBB (T) energy                             =    0.000000000000000
    AAB (T) energy                             =   -0.004290821887958
    ABB (T) energy                             =   -0.000933032630896
    (T) energy                                   =   -0.005523546958479
      * CCSD(T) total energy                     = -341.446766062144775


    Psi4 stopped on: Friday, 22 January 2021 04:38AM
    Psi4 wall time for execution: 0:07:04.38

*** Psi4 exiting successfully. Buy a developer a beer!
