
    -----------------------------------------------------------------------
          Psi4: An Open-Source Ab Initio Electronic Structure Package
                               Psi4 1.4a3.dev88 

                         Git: Rev {master} 262e345 


    D. G. A. Smith, L. A. Burns, A. C. Simmonett, R. M. Parrish,
    M. C. Schieber, R. Galvelis, P. Kraus, H. Kruse, R. Di Remigio,
    A. Alenaizan, A. M. James, S. Lehtola, J. P. Misiewicz, M. Scheurer,
    R. A. Shaw, J. B. Schriber, Y. Xie, Z. L. Glick, D. A. Sirianni,
    J. S. O'Brien, J. M. Waldrop, A. Kumar, E. G. Hohenstein,
    B. P. Pritchard, B. R. Brooks, H. F. Schaefer III, A. Yu. Sokolov,
    K. Patkowski, A. E. DePrince III, U. Bozkaya, R. A. King,
    F. A. Evangelista, J. M. Turney, T. D. Crawford, C. D. Sherrill,
    J. Chem. Phys. 152(18) 184108 (2020). https://doi.org/10.1063/5.0006002

                            Additional Code Authors
    E. T. Seidl, C. L. Janssen, E. F. Valeev, M. L. Leininger,
    J. F. Gonthier, R. M. Richard, H. R. McAlexander, M. Saitow, X. Wang,
    P. Verma, and M. H. Lechner

             Previous Authors, Complete List of Code Contributors,
                       and Citations for Specific Modules
    https://github.com/psi4/psi4/blob/master/codemeta.json
    https://github.com/psi4/psi4/graphs/contributors
    http://psicode.org/psi4manual/master/introduction.html#citing-psifour

    -----------------------------------------------------------------------


    Psi4 started on: Wednesday, 20 January 2021 09:19PM

    Process ID: 458651
    Host:       l43
    PSIDATADIR: /home/fs71337/gallo4/psi4/psi4/build/stage/share/psi4
    Memory:     500.0 MiB
    Threads:    48
    
  ==> Input File <==

--------------------------------------------------------------------------
# Any line starting with the # character is a comment line
memory 250000 mb
molecule molecule{
0 3
P          0.0000000000        0.0000000000        0.0446409825
H          0.0000000000        0.0000000000       -1.3718069306
}

set {
  reference uhf
  basis aug-cc-pV(Q+d)Z
  scf_type OUT_OF_CORE
  freeze_core true
}

energy('ccsd(t)')
--------------------------------------------------------------------------

  Memory set to 232.831 GiB by Python driver.

Scratch directory: /tmp/

*** tstart() called on l43
*** at Wed Jan 20 21:19:49 2021

   => Loading Basis Set <=

    Name: AUG-CC-PV(Q+D)Z
    Role: ORBITAL
    Keyword: BASIS
    atoms 1 entry P          line  1066 file /home/fs71337/gallo4/psi4/psi4/build/stage/share/psi4/basis/aug-cc-pv_qpd_z.gbs 
    atoms 2 entry H          line    68 file /home/fs71337/gallo4/psi4/psi4/build/stage/share/psi4/basis/aug-cc-pv_qpd_z.gbs 


         ---------------------------------------------------------
                                   SCF
               by Justin Turney, Rob Parrish, Andy Simmonett
                          and Daniel G. A. Smith
                              UHF Reference
                       48 Threads, 238418 MiB Core
         ---------------------------------------------------------

  ==> Geometry <==

    Molecular point group: c2v
    Full point group: C_inf_v

    Geometry (in Angstrom), charge = 0, multiplicity = 3:

       Center              X                  Y                   Z               Mass       
    ------------   -----------------  -----------------  -----------------  -----------------
         P            0.000000000000     0.000000000000     0.044636048308    30.973761998420
         H            0.000000000000     0.000000000000    -1.371811864792     1.007825032230

  Running in c2v symmetry.

  Rotational constants: A = ************  B =      8.60828  C =      8.60828 [cm^-1]
  Rotational constants: A = ************  B = 258069.62729  C = 258069.62729 [MHz]
  Nuclear repulsion =    5.603918143857372

  Charge       = 0
  Multiplicity = 3
  Electrons    = 16
  Nalpha       = 9
  Nbeta        = 7

  ==> Algorithm <==

  SCF Algorithm Type is OUT_OF_CORE.
  DIIS enabled.
  MOM disabled.
  Fractional occupation disabled.
  Guess Type is SAD.
  Energy threshold   = 1.00e-08
  Density threshold  = 1.00e-08
  Integral threshold = 1.00e-12

  ==> Primary Basis <==

  Basis Set: AUG-CC-PV(Q+D)Z
    Blend: AUG-CC-PV(Q+D)Z
    Number of shells: 37
    Number of basis function: 135
    Number of Cartesian functions: 170
    Spherical Harmonics?: true
    Max angular momentum: 4

  ==> Integral Setup <==

  ==> DiskJK: Disk-Based J/K Matrices <==

    J tasked:                  Yes
    K tasked:                  Yes
    wK tasked:                  No
    Memory [MiB]:           178813
    Schwarz Cutoff:          1E-12

  Minimum eigenvalue in the overlap matrix is 7.1086668389E-05.
  Reciprocal condition number of the overlap matrix is 1.2233578461E-05.
    Using symmetric orthogonalization.

  ==> Pre-Iterations <==

  SCF Guess: Superposition of Atomic Densities via on-the-fly atomic UHF (no occupation information).


 WARNING: Atomic UHF is not converging! Try casting from a smaller basis or call Rob at CCMST.
   -------------------------
    Irrep   Nso     Nmo    
   -------------------------
     A1        54      54 
     A2        17      17 
     B1        32      32 
     B2        32      32 
   -------------------------
    Total     135     135
   -------------------------

  ==> Iterations <==

                        Total Energy        Delta E     RMS |[F,P]|

   @UHF iter SAD:  -340.65690244386661   -3.40657e+02   0.00000e+00 
   @UHF iter   1:  -341.28579929924467   -6.28897e-01   1.79556e-03 DIIS
   @UHF iter   2:  -341.29889182219398   -1.30925e-02   5.90022e-04 DIIS
   @UHF iter   3:  -341.30116565163650   -2.27383e-03   2.58448e-04 DIIS
   @UHF iter   4:  -341.30179117539325   -6.25524e-04   7.89098e-05 DIIS
   @UHF iter   5:  -341.30186462658668   -7.34512e-05   2.86170e-05 DIIS
   @UHF iter   6:  -341.30187718347747   -1.25569e-05   1.47266e-05 DIIS
   @UHF iter   7:  -341.30188131312025   -4.12964e-06   5.46085e-06 DIIS
   @UHF iter   8:  -341.30188182641729   -5.13297e-07   1.38189e-06 DIIS
   @UHF iter   9:  -341.30188185147239   -2.50551e-08   4.00172e-07 DIIS
   @UHF iter  10:  -341.30188185348106   -2.00868e-09   6.73032e-08 DIIS
   @UHF iter  11:  -341.30188185353285   -5.17844e-11   1.38187e-08 DIIS
   @UHF iter  12:  -341.30188185353518   -2.33058e-12   2.91584e-09 DIIS
  Energy and wave function converged.


  ==> Post-Iterations <==

   @Spin Contamination Metric:   2.913993972E-02
   @S^2 Expected:                2.000000000E+00
   @S^2 Observed:                2.029139940E+00
   @S   Expected:                1.000000000E+00
   @S   Observed:                1.000000000E+00

    Orbital Energies [Eh]
    ---------------------

    Alpha Occupied:                                                       

       1A1   -79.968624     2A1    -7.511790     1B2    -5.413482  
       1B1    -5.413482     3A1    -5.398116     4A1    -0.851306  
       5A1    -0.476847     2B2    -0.386252     2B1    -0.386252  

    Alpha Virtual:                                                        

       6A1     0.028200     7A1     0.063887     3B2     0.070419  
       3B1     0.070419     8A1     0.124825     9A1     0.131247  
       4B1     0.152371     4B2     0.152371     1A2     0.154395  
      10A1     0.154395    11A1     0.229415    12A1     0.243381  
       5B2     0.262077     5B1     0.262077     6B2     0.356339  
       6B1     0.356339    13A1     0.373006     2A2     0.402439  
      14A1     0.402439     7B2     0.409293     7B1     0.409293  
      15A1     0.419086     3A2     0.429714    16A1     0.429714  
       8B2     0.432990     8B1     0.432990    17A1     0.510963  
       9B2     0.539784     9B1     0.539784    18A1     0.602145  
      19A1     0.713039    10B2     0.732746    10B1     0.732746  
       4A2     0.792621    20A1     0.792621    21A1     0.885354  
      11B2     1.041196    11B1     1.041196    22A1     1.045316  
       5A2     1.055267    23A1     1.055267    12B2     1.192996  
      12B1     1.192996    13B2     1.215571    13B1     1.215571  
       6A2     1.229474    24A1     1.229474    14B2     1.234648  
      14B1     1.234648     7A2     1.234799    25A1     1.234799  
      26A1     1.253403    15B2     1.312702    15B1     1.312702  
      27A1     1.376923    16B2     1.387022    16B1     1.387022  
       8A2     1.431596    28A1     1.431596    29A1     1.597177  
      17B2     1.674380    17B1     1.674380    30A1     1.759675  
      18B1     1.805773    18B2     1.805773    31A1     1.879942  
      32A1     2.100619     9A2     2.100619    19B2     2.119050  
      19B1     2.119050    33A1     2.144614    34A1     2.347905  
      10A2     2.488888    35A1     2.488888    20B2     2.570782  
      20B1     2.570782    11A2     2.780655    36A1     2.780655  
      21B1     2.823066    21B2     2.823066    37A1     2.879569  
      22B1     3.028884    22B2     3.028884    12A2     3.046796  
      38A1     3.046796    23B2     3.197911    23B1     3.197911  
      39A1     3.212311    40A1     3.302482    13A2     3.302482  
      24B1     3.310245    24B2     3.310245    41A1     3.388477  
      25B2     3.541278    25B1     3.541278    14A2     3.564017  
      42A1     3.564017    43A1     3.991810    26B2     4.179116  
      26B1     4.179116    44A1     4.253075    27B2     5.860904  
      27B1     5.860904    28B1     6.638081    28B2     6.638081  
      45A1     6.915754    15A2     6.915754    29B1     7.029088  
      29B2     7.029088    46A1     7.041472    47A1     7.243800  
      48A1     7.620293    16A2     7.620293    30B1     7.861117  
      30B2     7.861117    49A1     8.151304    50A1     8.295030  
      31B1     8.602953    31B2     8.602953    51A1     8.610433  
      17A2     8.610433    32B1     9.285617    32B2     9.285617  
      52A1     9.639296    53A1    10.492432    54A1    15.459199  

    Beta Occupied:                                                        

       1A1   -79.955273     2A1    -7.495766     3A1    -5.391324  
       1B1    -5.376812     1B2    -5.376812     4A1    -0.704459  
       5A1    -0.436212  

    Beta Virtual:                                                         

       2B1     0.025225     2B2     0.025225     6A1     0.030540  
       7A1     0.065573     3B1     0.101278     3B2     0.101278  
       8A1     0.134429     9A1     0.141771     4B1     0.162051  
       4B2     0.162051    10A1     0.173846     1A2     0.173846  
      11A1     0.239099    12A1     0.255549     5B1     0.268997  
       5B2     0.268997    13A1     0.380656     6B1     0.411988  
       6B2     0.411988    14A1     0.438114     2A2     0.438114  
      15A1     0.439827     7B2     0.446057     7B1     0.446057  
       8B1     0.448249     8B2     0.448249    16A1     0.494069  
       3A2     0.494069    17A1     0.517436     9B1     0.550746  
       9B2     0.550746    18A1     0.624101    19A1     0.719885  
      10B1     0.740931    10B2     0.740931    20A1     0.798516  
       4A2     0.798516    21A1     0.894305    22A1     1.061789  
      11B1     1.068884    11B2     1.068884    23A1     1.127081  
       5A2     1.127081    12B1     1.218386    12B2     1.218386  
      13B1     1.246003    13B2     1.246003     6A2     1.253241  
      24A1     1.253241    25A1     1.268307     7A2     1.268307  
      26A1     1.271884    14B1     1.277427    14B2     1.277427  
      15B1     1.367426    15B2     1.367426    27A1     1.385626  
      16B1     1.400129    16B2     1.400129    28A1     1.448049  
       8A2     1.448049    29A1     1.609790    17B1     1.683911  
      17B2     1.683911    30A1     1.766959    18B1     1.812411  
      18B2     1.812411    31A1     1.895361    32A1     2.103143  
       9A2     2.103143    19B1     2.133021    19B2     2.133021  
      33A1     2.158165    34A1     2.362852    35A1     2.517586  
      10A2     2.517586    20B1     2.586718    20B2     2.586718  
      36A1     2.793968    11A2     2.793968    21B1     2.834996  
      21B2     2.834996    37A1     2.887779    38A1     3.082176  
      12A2     3.082176    22B1     3.083467    22B2     3.083467  
      23B1     3.210596    23B2     3.210596    39A1     3.217308  
      24B1     3.344879    24B2     3.344879    13A2     3.349377  
      40A1     3.349377    41A1     3.406208    25B1     3.552808  
      25B2     3.552808    42A1     3.586298    14A2     3.586298  
      43A1     3.995896    26B1     4.194304    26B2     4.194304  
      44A1     4.260296    27B1     5.892129    27B2     5.892129  
      28B1     6.639299    28B2     6.639299    45A1     6.918529  
      15A2     6.918529    29B1     7.033843    29B2     7.033843  
      46A1     7.043098    47A1     7.246599    48A1     7.638271  
      16A2     7.638271    30B1     7.868622    30B2     7.868622  
      49A1     8.150904    50A1     8.302074    31B1     8.603499  
      31B2     8.603499    51A1     8.609903    17A2     8.609903  
      32B1     9.285423    32B2     9.285423    52A1     9.638800  
      53A1    10.495904    54A1    15.474496  

    Final Occupation by Irrep:
             A1    A2    B1    B2 
    DOCC [     5,    0,    1,    1 ]
    SOCC [     0,    0,    1,    1 ]

  @UHF Final Energy:  -341.30188185353518

   => Energetics <=

    Nuclear Repulsion Energy =              5.6039181438573724
    One-Electron Energy =                -483.2687946873322744
    Two-Electron Energy =                 136.3629946899397964
    Total Energy =                       -341.3018818535351215

  UHF NO Occupations:
  HONO-2 :    5 A1 1.9861396
  HONO-1 :    2 B1 1.0000000
  HONO-0 :    2 B2 1.0000000
  LUNO+0 :    6 A1 0.0138604
  LUNO+1 :    7 A1 0.0007995
  LUNO+2 :    3 B2 0.0000029
  LUNO+3 :    3 B1 0.0000029


Computation Completed


Properties will be evaluated at   0.000000,   0.000000,   0.000000 [a0]

Properties computed using the SCF density matrix

  Nuclear Dipole Moment: [e a0]
     X:     0.0000      Y:     0.0000      Z:    -1.3271

  Electronic Dipole Moment: [e a0]
     X:     0.0000      Y:     0.0000      Z:     1.1216

  Dipole Moment: [e a0]
     X:     0.0000      Y:     0.0000      Z:    -0.2055     Total:     0.2055

  Dipole Moment: [D]
     X:     0.0000      Y:     0.0000      Z:    -0.5224     Total:     0.5224


*** tstop() called on l43 at Wed Jan 20 21:20:06 2021
Module time:
	user time   =      19.90 seconds =       0.33 minutes
	system time =       5.16 seconds =       0.09 minutes
	total time  =         17 seconds =       0.28 minutes
Total time:
	user time   =      19.90 seconds =       0.33 minutes
	system time =       5.16 seconds =       0.09 minutes
	total time  =         17 seconds =       0.28 minutes

*** tstart() called on l43
*** at Wed Jan 20 21:20:06 2021


	Wfn Parameters:
	--------------------
	Wavefunction         = CCSD_T
	Number of irreps     = 4
	Number of MOs        = 135
	Number of active MOs = 130
	AO-Basis             = NONE
	Semicanonical        = false
	Reference            = UHF
	Print Level          = 1

	IRREP	# MOs	# FZDC	# DOCC	# SOCC	# VIRT	# FZVR
	-----	-----	------	------	------	------	------
	 A1	   54	    3	    2	    0	    49	    0
	 A2	   17	    0	    0	    0	    17	    0
	 B1	   32	    1	    0	    1	    30	    0
	 B2	   32	    1	    0	    1	    30	    0
	Transforming integrals...
	IWL integrals will be deleted.
	(OO|OO)...
	Presorting SO-basis two-electron integrals.
	Sorting File: SO Ints (nn|nn) nbuckets = 1
	Constructing frozen core operators
	Starting AA/AB first half-transformation.
	Sorting AA/AB half-transformed integrals.
	Starting BB first half-transformation.
	Sorting BB half-transformed integrals.
	First half integral transformation complete.
	Starting AA second half-transformation.
	Starting AB second half-transformation.
	Starting BB second half-transformation.
	Two-electron integral transformation complete.
	(OO|OV)...
	Starting AA second half-transformation.
	Starting AB second half-transformation.
	Starting BB second half-transformation.
	Two-electron integral transformation complete.
	(OO|VV)...
	Starting AA second half-transformation.
	Starting AB second half-transformation.
	Starting BB second half-transformation.
	Two-electron integral transformation complete.
	(OV|OO)...
	Starting AA/AB first half-transformation.
	Sorting AA/AB half-transformed integrals.
	Starting BB first half-transformation.
	Sorting BB half-transformed integrals.
	First half integral transformation complete.
	Starting AA second half-transformation.
	Starting AB second half-transformation.
	Starting BB second half-transformation.
	Two-electron integral transformation complete.
	(OV|OV)...
	Starting AA second half-transformation.
	Starting AB second half-transformation.
	Starting BB second half-transformation.
	Two-electron integral transformation complete.
	(OV|VV)...
	Starting AA second half-transformation.
	Starting AB second half-transformation.
	Starting BB second half-transformation.
	Two-electron integral transformation complete.
	(VV|OO)...
	Starting AA/AB first half-transformation.
	Sorting AA/AB half-transformed integrals.
	Starting BB first half-transformation.
	Sorting BB half-transformed integrals.
	First half integral transformation complete.
	Starting AA second half-transformation.
	Starting AB second half-transformation.
	Starting BB second half-transformation.
	Two-electron integral transformation complete.
	(VV|OV)...
	Starting AA second half-transformation.
	Starting AB second half-transformation.
	Starting BB second half-transformation.
	Two-electron integral transformation complete.
	(VV|VV)...
	Starting AA second half-transformation.
	Starting AB second half-transformation.
	Starting BB second half-transformation.
	Two-electron integral transformation complete.
	Frozen core energy     =   -338.09853625203192

	Size of irrep 0 of <AB|CD> integrals:      4.761 (MW) /     38.089 (MB)
	Size of irrep 1 of <AB|CD> integrals:      3.003 (MW) /     24.026 (MB)
	Size of irrep 2 of <AB|CD> integrals:      3.920 (MW) /     31.363 (MB)
	Size of irrep 3 of <AB|CD> integrals:      3.920 (MW) /     31.363 (MB)
	Total:                                    15.605 (MW) /    124.842 (MB)

	Size of irrep 0 of <ab|cd> integrals:      5.027 (MW) /     40.213 (MB)
	Size of irrep 1 of <ab|cd> integrals:      3.218 (MW) /     25.747 (MB)
	Size of irrep 2 of <ab|cd> integrals:      4.186 (MW) /     33.489 (MB)
	Size of irrep 3 of <ab|cd> integrals:      4.186 (MW) /     33.489 (MB)
	Total:                                    16.617 (MW) /    132.938 (MB)

	Size of irrep 0 of <Ab|Cd> integrals:     20.703 (MW) /    165.620 (MB)
	Size of irrep 1 of <Ab|Cd> integrals:     12.433 (MW) /     99.461 (MB)
	Size of irrep 2 of <Ab|Cd> integrals:     16.209 (MW) /    129.669 (MB)
	Size of irrep 3 of <Ab|Cd> integrals:     16.209 (MW) /    129.669 (MB)
	Total:                                    65.553 (MW) /    524.420 (MB)

	Size of irrep 0 of <IA|BC> integrals:      0.709 (MW) /      5.675 (MB)
	Size of irrep 1 of <IA|BC> integrals:      0.326 (MW) /      2.606 (MB)
	Size of irrep 2 of <IA|BC> integrals:      0.499 (MW) /      3.992 (MB)
	Size of irrep 3 of <IA|BC> integrals:      0.499 (MW) /      3.992 (MB)
	Total:                                     2.033 (MW) /     16.265 (MB)

	Size of irrep 0 of <ia|bc> integrals:      0.452 (MW) /      3.616 (MB)
	Size of irrep 1 of <ia|bc> integrals:      0.122 (MW) /      0.976 (MB)
	Size of irrep 2 of <ia|bc> integrals:      0.254 (MW) /      2.030 (MB)
	Size of irrep 3 of <ia|bc> integrals:      0.254 (MW) /      2.030 (MB)
	Total:                                     1.081 (MW) /      8.651 (MB)

	Size of irrep 0 of <Ia|Bc> integrals:      0.728 (MW) /      5.824 (MB)
	Size of irrep 1 of <Ia|Bc> integrals:      0.338 (MW) /      2.708 (MB)
	Size of irrep 2 of <Ia|Bc> integrals:      0.515 (MW) /      4.123 (MB)
	Size of irrep 3 of <Ia|Bc> integrals:      0.515 (MW) /      4.123 (MB)
	Total:                                     2.097 (MW) /     16.777 (MB)

	Size of irrep 0 of <iA|bC> integrals:      0.446 (MW) /      3.567 (MB)
	Size of irrep 1 of <iA|bC> integrals:      0.120 (MW) /      0.959 (MB)
	Size of irrep 2 of <iA|bC> integrals:      0.242 (MW) /      1.932 (MB)
	Size of irrep 3 of <iA|bC> integrals:      0.242 (MW) /      1.932 (MB)
	Total:                                     1.049 (MW) /      8.391 (MB)

	Size of irrep 0 of tIjAb amplitudes:       0.018 (MW) /      0.146 (MB)
	Size of irrep 1 of tIjAb amplitudes:       0.000 (MW) /      0.000 (MB)
	Size of irrep 2 of tIjAb amplitudes:       0.008 (MW) /      0.064 (MB)
	Size of irrep 3 of tIjAb amplitudes:       0.008 (MW) /      0.064 (MB)
	Total:                                     0.034 (MW) /      0.274 (MB)

	Nuclear Rep. energy          =      5.60391814385737
	SCF energy                   =   -341.30188185353518
	One-electron energy          =    -14.37320146369978
	Two-electron (AA) energy     =      1.99640188321987
	Two-electron (BB) energy     =      0.29950987542693
	Two-electron (AB) energy     =      3.27002595969215
	Two-electron energy          =      5.56593771833895
	Reference energy             =   -341.30188185353535

*** tstop() called on l43 at Wed Jan 20 21:20:20 2021
Module time:
	user time   =       9.65 seconds =       0.16 minutes
	system time =       4.50 seconds =       0.07 minutes
	total time  =         14 seconds =       0.23 minutes
Total time:
	user time   =      29.55 seconds =       0.49 minutes
	system time =       9.66 seconds =       0.16 minutes
	total time  =         31 seconds =       0.52 minutes
            **************************
            *                        *
            *        CCENERGY        *
            *                        *
            **************************

    Nuclear Rep. energy (wfn)     =    5.603918143857372
    SCF energy          (wfn)     = -341.301881853535178
    Reference energy    (file100) = -341.301881853535349

    Input parameters:
    -----------------
    Wave function   =     CCSD_T
    Reference wfn   =     UHF
    Brueckner       =     No
    Memory (Mbytes) =     250000.0
    Maxiter         =     50
    R_Convergence   =     1.0e-07
    E_Convergence   =     1.0e-06
    Restart         =     Yes
    DIIS            =     Yes
    AO Basis        =     NONE
    ABCD            =     NEW
    Cache Level     =     2
    Cache Type      =     LRU
    Print Level     =     1
    Num. of threads =     48
    # Amps to Print =     10
    Print MP2 Amps? =     No
    Analyze T2 Amps =     No
    Print Pair Ener =     No
    Local CC        =     No
    SCS-MP2         =     False
    SCSN-MP2        =     False
    SCS-CCSD        =     False

MP2 correlation energy -0.1150127474878228
                Solving CC Amplitude Equations
                ------------------------------
  Iter             Energy              RMS        T1Diag      D1Diag    New D1Diag    D2Diag
  ----     ---------------------    ---------   ----------  ----------  ----------   --------
     0        -0.115012747487823    0.000e+00    0.000000    0.000000    0.000000    0.000000
     1        -0.130051632836389    5.374e-02    0.012496    0.000000    0.000000    0.000000
     2        -0.136633203197158    2.228e-02    0.021405    0.000000    0.000000    0.000000
     3        -0.137060769737375    6.786e-03    0.025094    0.000000    0.000000    0.000000
     4        -0.137072531277661    2.081e-03    0.026001    0.000000    0.000000    0.000000
     5        -0.137063297205980    8.463e-04    0.026307    0.000000    0.000000    0.000000
     6        -0.137063861358278    3.044e-04    0.026376    0.000000    0.000000    0.000000
     7        -0.137066683616522    1.043e-04    0.026385    0.000000    0.000000    0.000000
     8        -0.137067155178228    3.715e-05    0.026390    0.000000    0.000000    0.000000
     9        -0.137066729820385    1.399e-05    0.026390    0.000000    0.000000    0.000000
    10        -0.137066746502719    4.837e-06    0.026390    0.000000    0.000000    0.000000
    11        -0.137066743971295    1.563e-06    0.026390    0.000000    0.000000    0.000000
    12        -0.137066778378415    4.715e-07    0.026390    0.000000    0.000000    0.000000
    13        -0.137066784566123    1.477e-07    0.026390    0.000000    0.000000    0.000000
    14        -0.137066784825695    5.280e-08    0.026390    0.000000    0.000000    0.000000

    Iterations converged.


    Largest TIA Amplitudes:
              1   3         0.0216072018
              1   7        -0.0146356940
              1   5         0.0103957254
              1   9        -0.0095596612
              0   9        -0.0084225994
              1   6        -0.0073451576
              1  16         0.0072546025
              1   2         0.0070847661
              2  67        -0.0061417524
              3  97        -0.0061417524

    Largest Tia Amplitudes:
              0   6        -0.0223938345
              0   3         0.0215860992
              1   3        -0.0180661878
              1   6         0.0175613055
              0   7        -0.0153329725
              1   5        -0.0100904076
              0  12         0.0096494342
              1   7         0.0090025916
              0   9        -0.0088821519
              0   5         0.0082833624

    Largest TIJAB Amplitudes:
      3   2  50   8        -0.0318951582
      3   2  49   8        -0.0198996656
      3   2  50   4        -0.0198996656
      3   1 100   3         0.0178497204
      2   1  70   3         0.0178497203
      3   2 100  70        -0.0165468423
      3   2  99  69        -0.0151655841
      3   1 100   5         0.0147414270
      2   1  70   5         0.0147414270
      3   2  49   4        -0.0141830113

    Largest Tijab Amplitudes:
      1   0  72  66        -0.0080419101
      1   0 103  97        -0.0080419099
      1   0 103  98         0.0070325606
      1   0  72  67         0.0070325606
      1   0  12   7        -0.0056083806
      1   0  72  70        -0.0049862868
      1   0 103 101        -0.0049862868
      1   0  68  66         0.0046334667
      1   0  99  97         0.0046334666
      1   0  15  12        -0.0045867268

    Largest TIjAb Amplitudes:
      1   1   3   6         0.0288512208
      1   1   3   3        -0.0287380876
      1   1   3   7         0.0262196373
      2   0   8  66         0.0251642974
      3   0  50  66         0.0251642973
      2   0  50  97         0.0251642970
      3   0   8  97        -0.0251642970
      1   1   7   7        -0.0238535320
      1   1   5   6         0.0229735936
      2   0  50  98        -0.0213278868

    SCF energy       (wfn)                    = -341.301881853535178
    Reference energy (file100)                = -341.301881853535349

    Opposite-spin MP2 correlation energy      =   -0.091871119098813
    Same-spin MP2 correlation energy          =   -0.023141628389010
    Singles MP2 correlation energy            =   -0.000000000000000
    MP2 correlation energy                    =   -0.115012747487823
      * MP2 total energy                      = -341.416894601023159

    Opposite-spin CCSD correlation energy     =   -0.111900132870939
    Same-spin CCSD correlation energy         =   -0.025166651954757
    Singles CCSD correlation energy           =   -0.000000000000000
    CCSD correlation energy                   =   -0.137066784825695
      * CCSD total energy                     = -341.438948638361069

            **************************
            *                        *
            *        CCTRIPLES       *
            *                        *
            **************************


    Wave function   =    CCSD_T
    Reference wfn   =      UHF

    Nuclear Rep. energy (wfn)                =    5.603918143857372
    SCF energy          (wfn)                = -341.301881853535178
    Reference energy    (file100)            = -341.301881853535349
    CCSD energy         (file100)            =   -0.137066784825695
    Total CCSD energy   (file100)            = -341.438948638361069

    Number of ijk index combinations:
    Spin Case AAA:                                   4
    Spin Case BBB:                                   0
    Spin Case AAB:                                  12
    Spin Case ABB:                                   4
    AAA (T) energy                             =   -0.000291276251260
    BBB (T) energy                             =    0.000000000000000
    AAB (T) energy                             =   -0.004143783524779
    ABB (T) energy                             =   -0.000911144629503
    (T) energy                                   =   -0.005346204405542
      * CCSD(T) total energy                     = -341.444294842766567


    Psi4 stopped on: Wednesday, 20 January 2021 09:20PM
    Psi4 wall time for execution: 0:00:44.73

*** Psi4 exiting successfully. Buy a developer a beer!
