
    -----------------------------------------------------------------------
          Psi4: An Open-Source Ab Initio Electronic Structure Package
                               Psi4 1.2a1.dev939 

                         Git: Rev {HEAD} fa1ec19 


    R. M. Parrish, L. A. Burns, D. G. A. Smith, A. C. Simmonett,
    A. E. DePrince III, E. G. Hohenstein, U. Bozkaya, A. Yu. Sokolov,
    R. Di Remigio, R. M. Richard, J. F. Gonthier, A. M. James,
    H. R. McAlexander, A. Kumar, M. Saitow, X. Wang, B. P. Pritchard,
    P. Verma, H. F. Schaefer III, K. Patkowski, R. A. King, E. F. Valeev,
    F. A. Evangelista, J. M. Turney, T. D. Crawford, and C. D. Sherrill,
    J. Chem. Theory Comput. 13(7) pp 3185--3197 (2017).
    (doi: 10.1021/acs.jctc.7b00174)

    -----------------------------------------------------------------------


    Psi4 started on: Tuesday, 04 August 2020 05:51PM

    Process ID:  14341
    PSIDATADIR: /home/grueneis/src/psi4/objdir/stage/usr/local/psi4/share/psi4
    Memory:     500.0 MiB
    Threads:    1
    
  ==> Input File <==

--------------------------------------------------------------------------
# Any line starting with the # character is a comment line

memory 32000 mb

molecule molecule {
0 1
Cl         0.0000000000        0.0000000000       -0.5693634997
F          0.0000000000        0.0000000000        1.0624916292
}

set {
  reference rhf


  basis aug-cc-pv(6+d)z
  scf_type OUT_OF_CORE
  freeze_core true
}

energy('ccsd')
--------------------------------------------------------------------------

  Memory set to  29.802 GiB by Python driver.

*** tstart() called on cqc05
*** at Tue Aug  4 17:51:42 2020

   => Loading Basis Set <=

    Name: AUG-CC-PV(6+D)Z
    Role: ORBITAL
    Keyword: BASIS
    atoms 1 entry CL         line  1303 file /home/grueneis/src/psi4/objdir/stage/usr/local/psi4/share/psi4/basis/aug-cc-pv_6pd_z.gbs 
    atoms 2 entry F          line   555 file /home/grueneis/src/psi4/objdir/stage/usr/local/psi4/share/psi4/basis/aug-cc-pv_6pd_z.gbs 


         ---------------------------------------------------------
                                   SCF
            by Justin Turney, Rob Parrish, Andy Simmonett
                             and Daniel Smith
                              RHF Reference
                        1 Threads,  30517 MiB Core
         ---------------------------------------------------------

  ==> Geometry <==

    Molecular point group: c2v
    Full point group: C_inf_v

    Geometry (in Angstrom), charge = 0, multiplicity = 1:

       Center              X                  Y                   Z               Mass       
    ------------   -----------------  -----------------  -----------------  -----------------
          CL          0.000000000000     0.000000000000    -0.574471338620    34.968852682000
           F          0.000000000000     0.000000000000     1.057383790280    18.998403224000

  Running in c2v symmetry.

  Rotational constants: A = ************  B =      0.51424  C =      0.51424 [cm^-1]
  Rotational constants: A = ************  B =  15416.50208  C =  15416.50208 [MHz]
  Nuclear repulsion =   49.614767561411064

  Charge       = 0
  Multiplicity = 1
  Electrons    = 26
  Nalpha       = 13
  Nbeta        = 13

  ==> Algorithm <==

  SCF Algorithm Type is OUT_OF_CORE.
  DIIS enabled.
  MOM disabled.
  Fractional occupation disabled.
  Guess Type is SAD.
  Energy threshold   = 1.00e-08
  Density threshold  = 1.00e-08
  Integral threshold = 0.00e+00

  ==> Primary Basis <==

  Basis Set: AUG-CC-PV(6+D)Z
    Blend: AUG-CC-PV(6+D)Z
    Number of shells: 73
    Number of basis function: 387
    Number of Cartesian functions: 598
    Spherical Harmonics?: true
    Max angular momentum: 6

  ==> Pre-Iterations <==

   -------------------------------------------------------
    Irrep   Nso     Nmo     Nalpha   Nbeta   Ndocc  Nsocc
   -------------------------------------------------------
     A1       136     136       0       0       0       0
     A2        63      63       0       0       0       0
     B1        94      94       0       0       0       0
     B2        94      94       0       0       0       0
   -------------------------------------------------------
    Total     387     387      13      13      13       0
   -------------------------------------------------------

  ==> Integral Setup <==

  ==> DiskJK: Disk-Based J/K Matrices <==

    J tasked:                  Yes
    K tasked:                  Yes
    wK tasked:                  No
    Memory (MB):             22888
    Schwarz Cutoff:          1E-12

  Minimum eigenvalue in the overlap matrix is 1.0334889070E-05.
  Using Symmetric Orthogonalization.

  SCF Guess: Superposition of Atomic Densities via on-the-fly atomic UHF.

  ==> Iterations <==

                        Total Energy        Delta E     RMS |[F,P]|

   @RHF iter   0:  -558.85914817555977   -5.58859e+02   7.06092e-03 
   @RHF iter   1:  -558.90074147032180   -4.15933e-02   1.11103e-03 
   @RHF iter   2:  -558.91653543867710   -1.57940e-02   4.10366e-04 DIIS
   @RHF iter   3:  -558.91898144403547   -2.44601e-03   1.39486e-04 DIIS
   @RHF iter   4:  -558.91963690684508   -6.55463e-04   7.78139e-05 DIIS
   @RHF iter   5:  -558.91984293575786   -2.06029e-04   2.14207e-05 DIIS
   @RHF iter   6:  -558.91986890846238   -2.59727e-05   7.92113e-06 DIIS
   @RHF iter   7:  -558.91987185405219   -2.94559e-06   1.09181e-06 DIIS
   @RHF iter   8:  -558.91987188575331   -3.17011e-08   1.64414e-07 DIIS
   @RHF iter   9:  -558.91987188647920   -7.25890e-10   3.71173e-08 DIIS
   @RHF iter  10:  -558.91987188651979   -4.05862e-11   7.21800e-09 DIIS

  ==> Post-Iterations <==

    Orbital Energies (a.u.)
    -----------------------

    Doubly Occupied:                                                      

       1A1  -104.937039     2A1   -26.354738     3A1   -10.655074  
       4A1    -8.122149     1B1    -8.119142     1B2    -8.119142  
       5A1    -1.638305     6A1    -1.105439     2B1    -0.725607  
       2B2    -0.725607     7A1    -0.700276     3B1    -0.493793  
       3B2    -0.493793  

    Virtual:                                                              

       8A1     0.032698     9A1     0.055298     4B1     0.071464  
       4B2     0.071464    10A1     0.095065    11A1     0.137875  
       5B1     0.141261     5B2     0.141261     1A2     0.215056  
      12A1     0.215056    13A1     0.231976     6B1     0.255488  
       6B2     0.255488    14A1     0.265770     7B1     0.303600  
       7B2     0.303600    15A1     0.328413    16A1     0.461678  
       8B1     0.477706     8B2     0.477706     2A2     0.486542  
      17A1     0.486542     9B2     0.531819     9B1     0.531819  
       3A2     0.539097    18A1     0.539097    10B2     0.550317  
      10B1     0.550317    19A1     0.567142    20A1     0.616962  
      21A1     0.627078    11B1     0.636423    11B2     0.636423  
       4A2     0.662304    22A1     0.662304    12B1     0.764296  
      12B2     0.764296    23A1     0.809952    13B2     1.002007  
      13B1     1.002007    24A1     1.015093    25A1     1.025370  
       5A2     1.025370    14B1     1.027105    14B2     1.027105  
      26A1     1.122840     6A2     1.122840    15B1     1.155650  
      15B2     1.155650    27A1     1.169923     7A2     1.261521  
      28A1     1.261521    29A1     1.274785    16B2     1.288386  
      16B1     1.288386    17B2     1.304614    17B1     1.304614  
      30A1     1.330897     8A2     1.330897    31A1     1.348078  
      18B2     1.396787    18B1     1.396787    32A1     1.398595  
      19B1     1.404842    19B2     1.404842    33A1     1.419057  
       9A2     1.419057    34A1     1.476455    20B1     1.530076  
      20B2     1.530076    21B1     1.665677    21B2     1.665677  
      35A1     1.700318    36A1     1.773368    10A2     1.773368  
      22B1     2.178447    22B2     2.178447    37A1     2.184297  
      11A2     2.341710    38A1     2.341710    23B2     2.395482  
      23B1     2.395482    24B1     2.419102    24B2     2.419102  
      39A1     2.439922    40A1     2.454945    12A2     2.454945  
      41A1     2.491860    13A2     2.491860    25B1     2.524106  
      25B2     2.524106    26B1     2.552988    26B2     2.552988  
      42A1     2.650665    43A1     2.789880    14A2     2.789880  
      15A2     2.799386    44A1     2.799386    45A1     2.855941  
      27B1     2.858976    27B2     2.858976    46A1     2.899729  
      47A1     2.901188    16A2     2.901188    28B2     2.907945  
      28B1     2.907945    29B1     2.928719    29B2     2.928719  
      30B2     2.930079    30B1     2.930079    48A1     2.965485  
      17A2     2.965485    49A1     2.996171    31B1     3.169506  
      31B2     3.169506    32B1     3.182316    32B2     3.182316  
      50A1     3.257271    51A1     3.265005    18A2     3.265005  
      33B1     3.337021    33B2     3.337021    52A1     3.460177  
      53A1     3.524713    19A2     3.524713    34B1     3.541928  
      34B2     3.541928    54A1     3.591881    35B1     3.687937  
      35B2     3.687937    55A1     4.015133    56A1     4.210678  
      20A2     4.210678    36B1     4.215856    36B2     4.215856  
      57A1     4.534187    37B2     4.667629    37B1     4.667629  
      58A1     4.919780    38B1     4.975145    38B2     4.975145  
      59A1     4.975819    21A2     4.975819    22A2     5.021872  
      60A1     5.021872    23A2     5.098315    61A1     5.098315  
      39B1     5.152348    39B2     5.152348    62A1     5.201023  
      24A2     5.201023    40B2     5.271487    40B1     5.271487  
      41B1     5.289991    41B2     5.289991    42B1     5.377540  
      42B2     5.377540    25A2     5.384732    63A1     5.384732  
      64A1     5.581546    26A2     5.581546    65A1     5.586334  
      43B2     5.669149    43B1     5.669149    44B1     5.680635  
      44B2     5.680635    66A1     5.819207    45B2     5.846077  
      45B1     5.846077    67A1     5.933987    27A2     5.933987  
      46B1     6.012426    46B2     6.012426    68A1     6.033485  
      47B1     6.117173    47B2     6.117173    69A1     6.148951  
      28A2     6.148951    70A1     6.259851    29A2     6.263024  
      71A1     6.263024    48B2     6.404780    48B1     6.404780  
      72A1     6.572171    30A2     6.572171    73A1     6.686030  
      49B2     6.842219    49B1     6.842219    31A2     6.907365  
      74A1     6.907365    75A1     6.909298    50B2     7.008608  
      50B1     7.008608    76A1     7.099577    32A2     7.099577  
      51B2     7.160583    51B1     7.160583    52B1     7.297197  
      52B2     7.297197    77A1     7.397479    78A1     7.475394  
      33A2     7.475394    53B2     7.548464    53B1     7.548464  
      54B2     7.578280    54B1     7.578280    79A1     7.716373  
      80A1     8.136825    34A2     8.136825    81A1     8.160595  
      55B2     8.455939    55B1     8.455939    82A1     8.711717  
      35A2     8.711717    56B2     8.905708    56B1     8.905708  
      83A1     9.096646    57B2     9.101722    57B1     9.101722  
      84A1     9.704583    58B2     9.878342    58B1     9.878342  
      36A2     9.886801    85A1     9.886801    86A1     9.896459  
      59B2     9.951441    59B1     9.951441    87A1    10.163611  
      37A2    10.163611    60B2    10.684779    60B1    10.684779  
      88A1    10.767281    89A1    10.960346    38A2    10.960346  
      61B2    10.960914    61B1    10.960914    90A1    10.986877  
      39A2    10.986877    91A1    10.995654    92A1    11.029860  
      40A2    11.029860    62B2    11.097135    62B1    11.097135  
      41A2    11.223739    93A1    11.223739    63B1    11.244095  
      63B2    11.244095    64B1    11.328069    64B2    11.328069  
      65B2    11.416502    65B1    11.416502    94A1    11.605584  
      42A2    11.605584    95A1    11.948908    66B2    11.962071  
      66B1    11.962071    43A2    12.096783    96A1    12.096783  
      67B2    12.096979    67B1    12.096979    97A1    12.213060  
      44A2    12.213060    68B2    12.376496    68B1    12.376496  
      98A1    12.501330    45A2    12.501330    69B2    12.662642  
      69B1    12.662642    99A1    12.721819    70B2    12.968275  
      70B1    12.968275   100A1    13.200395   101A1    13.296151  
      46A2    13.296151    71B2    13.483420    71B1    13.483420  
     102A1    13.641569    47A2    13.641569   103A1    13.749084  
      72B2    14.015855    72B1    14.015855    48A2    14.146093  
     104A1    14.146093    73B1    14.574966    73B2    14.574966  
      74B2    14.582390    74B1    14.582390   105A1    14.758270  
     106A1    15.015742    49A2    15.015742   107A1    15.101571  
      75B2    15.167344    75B1    15.167344    50A2    16.463993  
     108A1    16.463993    76B1    16.600665    76B2    16.600665  
     109A1    16.738027    77B2    16.814387    77B1    16.814387  
     110A1    16.960122    51A2    16.960122    78B2    17.261053  
      78B1    17.261053   111A1    17.431140    52A2    17.431140  
     112A1    17.432311    79B2    18.169085    79B1    18.169085  
     113A1    18.437522    53A2    18.437522   114A1    18.478682  
      80B2    19.710412    80B1    19.710412   115A1    20.700491  
     116A1    26.591921    81B2    28.355992    81B1    28.355992  
      82B2    29.306974    82B1    29.306974    54A2    29.324275  
     117A1    29.324275   118A1    29.349416    55A2    29.349416  
      83B2    29.523078    83B1    29.523078   119A1    29.844531  
      56A2    29.844531   120A1    29.884150    84B2    29.961374  
      84B1    29.961374   121A1    30.195161    85B2    34.995708  
      85B1    34.995708   122A1    35.036195    57A2    35.036195  
      86B1    35.223362    86B2    35.223362    87B2    35.390021  
      87B1    35.390021   123A1    35.412754    58A2    35.412754  
     124A1    35.438337    88B2    35.562298    88B1    35.562298  
     125A1    38.348855   126A1    39.111999    59A2    39.111999  
      89B1    39.269327    89B2    39.269327    90B2    39.573412  
      90B1    39.573412   127A1    39.633659    60A2    39.633659  
      91B2    40.023769    91B1    40.023769   128A1    40.095488  
      61A2    40.274810   129A1    40.274810    92B2    40.343657  
      92B1    40.343657   130A1    40.452862   131A1    40.576601  
      62A2    40.576601    93B2    41.024433    93B1    41.024433  
     132A1    41.772345   133A1    44.133704    63A2    44.133704  
      94B2    44.886211    94B1    44.886211   134A1    45.603945  
     135A1   129.990363   136A1   286.695972  

    Final Occupation by Irrep:
             A1    A2    B1    B2 
    DOCC [     7,    0,    3,    3 ]

  Energy converged.

  @RHF Final Energy:  -558.91987188651979

   => Energetics <=

    Nuclear Repulsion Energy =             49.6147675614110639
    One-Electron Energy =                -872.6890704256984463
    Two-Electron Energy =                 264.1544309777675039
    Total Energy =                       -558.9198718865197861



Properties will be evaluated at   0.000000,   0.000000,   0.000000 Bohr

Properties computed using the SCF density matrix

  Nuclear Dipole Moment: (a.u.)
     X:     0.0000      Y:     0.0000      Z:    -0.4716

  Electronic Dipole Moment: (a.u.)
     X:     0.0000      Y:     0.0000      Z:     0.0307

  Dipole Moment: (a.u.)
     X:     0.0000      Y:     0.0000      Z:    -0.4409     Total:     0.4409

  Dipole Moment: (Debye)
     X:     0.0000      Y:     0.0000      Z:    -1.1208     Total:     1.1208


*** tstop() called on cqc05 at Tue Aug  4 17:59:57 2020
Module time:
	user time   =     463.24 seconds =       7.72 minutes
	system time =      31.66 seconds =       0.53 minutes
	total time  =        495 seconds =       8.25 minutes
Total time:
	user time   =     463.24 seconds =       7.72 minutes
	system time =      31.66 seconds =       0.53 minutes
	total time  =        495 seconds =       8.25 minutes

*** tstart() called on cqc05
*** at Tue Aug  4 17:59:57 2020


	Wfn Parameters:
	--------------------
	Wavefunction         = CCSD
	Number of irreps     = 4
	Number of MOs        = 387
	Number of active MOs = 381
	AO-Basis             = NONE
	Semicanonical        = false
	Reference            = RHF
	Print Level          = 1

	IRREP	# MOs	# FZDC	# DOCC	# SOCC	# VIRT	# FZVR
	-----	-----	------	------	------	------	------
	 A1	   136	    4	    3	    0	    129	    0
	 A2	   63	    0	    0	    0	    63	    0
	 B1	   94	    1	    2	    0	    91	    0
	 B2	   94	    1	    2	    0	    91	    0
	Transforming integrals...
	IWL integrals will be deleted.
	(OO|OO)...
	Presorting SO-basis two-electron integrals.
	Sorting File: SO Ints (nn|nn) nbuckets = 1
	Transforming the one-electron integrals and constructing Fock matrices
	Starting first half-transformation.
	Sorting half-transformed integrals.
	First half integral transformation complete.
	Starting second half-transformation.
	Two-electron integral transformation complete.
	(OO|OV)...
	Starting second half-transformation.
	Two-electron integral transformation complete.
	(OO|VV)...
	Starting second half-transformation.
	Two-electron integral transformation complete.
	(OV|OO)...
	Starting first half-transformation.
	Sorting half-transformed integrals.
	First half integral transformation complete.
	Starting second half-transformation.
	Two-electron integral transformation complete.
	(OV|OV)...
	Starting second half-transformation.
	Two-electron integral transformation complete.
	(OV|VV)...
	Starting second half-transformation.
	Two-electron integral transformation complete.
	(VV|OO)...
	Starting first half-transformation.
	Sorting half-transformed integrals.
	First half integral transformation complete.
	Starting second half-transformation.
	Two-electron integral transformation complete.
	(VV|OV)...
	Starting second half-transformation.
	Two-electron integral transformation complete.
	(VV|VV)...
	Starting second half-transformation.
	Two-electron integral transformation complete.
	Frozen core energy     =   -553.95614369147916

	Size of irrep 0 of <ab|cd> integrals:   1381.758 (MW) /  11054.061 (MB)
	Size of irrep 1 of <ab|cd> integrals:   1076.890 (MW) /   8615.119 (MB)
	Size of irrep 2 of <ab|cd> integrals:   1221.083 (MW) /   9768.665 (MB)
	Size of irrep 3 of <ab|cd> integrals:   1221.083 (MW) /   9768.665 (MB)
	Total:                                  4900.814 (MW) /  39206.510 (MB)

	Size of irrep 0 of <ia|bc> integrals:     27.916 (MW) /    223.329 (MB)
	Size of irrep 1 of <ia|bc> integrals:     18.147 (MW) /    145.178 (MB)
	Size of irrep 2 of <ia|bc> integrals:     22.958 (MW) /    183.666 (MB)
	Size of irrep 3 of <ia|bc> integrals:     22.958 (MW) /    183.666 (MB)
	Total:                                    91.980 (MW) /    735.839 (MB)

	Size of irrep 0 of tijab amplitudes:       0.632 (MW) /      5.055 (MB)
	Size of irrep 1 of tijab amplitudes:       0.263 (MW) /      2.100 (MB)
	Size of irrep 2 of tijab amplitudes:       0.419 (MW) /      3.355 (MB)
	Size of irrep 3 of tijab amplitudes:       0.419 (MW) /      3.355 (MB)
	Total:                                     1.733 (MW) /     13.865 (MB)

	Nuclear Rep. energy          =     49.61476756141106
	SCF energy                   =   -558.91987188651979
	One-electron energy          =    -97.39135209301203
	Two-electron energy          =     42.81285633655971
	Reference energy             =   -558.91987188652047

*** tstop() called on cqc05 at Tue Aug  4 18:20:53 2020
Module time:
	user time   =     395.77 seconds =       6.60 minutes
	system time =     151.99 seconds =       2.53 minutes
	total time  =       1256 seconds =      20.93 minutes
Total time:
	user time   =     859.01 seconds =      14.32 minutes
	system time =     183.65 seconds =       3.06 minutes
	total time  =       1751 seconds =      29.18 minutes

*** tstart() called on cqc05
*** at Tue Aug  4 18:20:53 2020

            **************************
            *                        *
            *        CCENERGY        *
            *                        *
            **************************

    Nuclear Rep. energy (wfn)     =   49.614767561411064
    SCF energy          (wfn)     = -558.919871886519786
    Reference energy    (file100) = -558.919871886520468

    Input parameters:
    -----------------
    Wave function   =     CCSD
    Reference wfn   =     RHF
    Brueckner       =     No
    Memory (Mbytes) =     32000.0
    Maxiter         =     50
    R_Convergence   =     1.0e-07
    E_Convergence   =     1.0e-06
    Restart         =     Yes
    DIIS            =     Yes
    AO Basis        =     NONE
    ABCD            =     NEW
    Cache Level     =     2
    Cache Type      =     LOW
    Print Level     =     1
    Num. of threads =     1
    # Amps to Print =     10
    Print MP2 Amps? =     No
    Analyze T2 Amps =     No
    Print Pair Ener =     No
    Local CC        =     No
    SCS-MP2         =     False
    SCSN-MP2        =     False
    SCS-CCSD        =     False

MP2 correlation energy -0.5186453446436091
                Solving CC Amplitude Equations
                ------------------------------
  Iter             Energy              RMS        T1Diag      D1Diag    New D1Diag    D2Diag
  ----     ---------------------    ---------   ----------  ----------  ----------   --------
     0        -0.518645344643403    0.000e+00    0.000000    0.000000    0.000000    0.153059
     1        -0.534734904150516    2.887e-01    0.021547    0.052211    0.052211    0.181592
     2        -0.535803714953206    5.799e-02    0.011625    0.027524    0.027524    0.182875
     3        -0.527366519244492    1.932e-02    0.012791    0.031412    0.031412    0.175038
     4        -0.525866949588064    4.026e-03    0.012227    0.029888    0.029888    0.173413
     5        -0.525973525498845    8.957e-04    0.012090    0.029697    0.029697    0.173023
     6        -0.525921924017871    3.076e-04    0.012050    0.029603    0.029603    0.172836
     7        -0.525909079861118    1.009e-04    0.012038    0.029580    0.029580    0.172790
     8        -0.525914297863297    3.832e-05    0.012037    0.029578    0.029578    0.172792
     9        -0.525915264478345    1.436e-05    0.012037    0.029577    0.029577    0.172795
    10        -0.525914665522862    5.674e-06    0.012037    0.029576    0.029576    0.172795
    11        -0.525914788065608    1.897e-06    0.012037    0.029577    0.029577    0.172796
    12        -0.525914922739573    6.739e-07    0.012037    0.029577    0.029577    0.172796
    13        -0.525914927768770    2.572e-07    0.012037    0.029577    0.029577    0.172796
    14        -0.525914930349039    8.621e-08    0.012037    0.029577    0.029577    0.172796
    14        -0.525914930349039    8.621e-08    0.012037    0.029577    0.029577    0.172796

    Iterations converged.


    CCSD corr. energy   =   -0.525914930349039
    PPL corr. energy    =    0.121645093466666
    OS PPL corr. energy =    0.102429925173481
    SS PPL corr. energy =    0.019215168293183
    Largest TIA Amplitudes:
              2   0        -0.0166726365
              5 287        -0.0144398659
              3 196        -0.0144397457
              2   2        -0.0140182551
              5 284         0.0080323907
              3 193         0.0080323170
              5 285         0.0077040842
              3 194         0.0077040557
              2  19        -0.0073653804
              2  12         0.0069015367

    Largest TIjAb Amplitudes:
      2   2   0   0        -0.0625421684
      2   2   0   2        -0.0564385474
      2   2   2   0        -0.0564385474
      2   2   2   2        -0.0517182426
      4   4   0   0        -0.0326555953
      6   6   0   0        -0.0326555913
      2   2   0   7        -0.0322875099
      2   2   7   0        -0.0322875099
      2   2   2   7        -0.0307848334
      2   2   7   2        -0.0307848334

    SCF energy       (wfn)                    = -558.919871886519786
    Reference energy (file100)                = -558.919871886520468

    Opposite-spin MP2 correlation energy      =   -0.397497252367033
    Same-spin MP2 correlation energy          =   -0.121148092276370
    MP2 correlation energy                    =   -0.518645344643609
      * MP2 total energy                      = -559.438517231164042

    Opposite-spin CCSD correlation energy     =   -0.416040447412894
    Same-spin CCSD correlation energy         =   -0.109874483156977
    CCSD correlation energy                   =   -0.525914930349039
      * CCSD total energy                     = -559.445786816869486


*** tstop() called on cqc05 at Tue Aug  4 18:23:56 2020
Module time:
	user time   =      75.68 seconds =       1.26 minutes
	system time =     102.85 seconds =       1.71 minutes
	total time  =        183 seconds =       3.05 minutes
Total time:
	user time   =     934.69 seconds =      15.58 minutes
	system time =     286.51 seconds =       4.78 minutes
	total time  =       1934 seconds =      32.23 minutes

*** Psi4 exiting successfully. Buy a developer a beer!
