
    -----------------------------------------------------------------------
          Psi4: An Open-Source Ab Initio Electronic Structure Package
                               Psi4 1.2a1.dev939 

                         Git: Rev {HEAD} fa1ec19 dirty


    R. M. Parrish, L. A. Burns, D. G. A. Smith, A. C. Simmonett,
    A. E. DePrince III, E. G. Hohenstein, U. Bozkaya, A. Yu. Sokolov,
    R. Di Remigio, R. M. Richard, J. F. Gonthier, A. M. James,
    H. R. McAlexander, A. Kumar, M. Saitow, X. Wang, B. P. Pritchard,
    P. Verma, H. F. Schaefer III, K. Patkowski, R. A. King, E. F. Valeev,
    F. A. Evangelista, J. M. Turney, T. D. Crawford, and C. D. Sherrill,
    J. Chem. Theory Comput. 13(7) pp 3185--3197 (2017).
    (doi: 10.1021/acs.jctc.7b00174)

    -----------------------------------------------------------------------


    Psi4 started on: Friday, 30 October 2020 03:21PM

    Process ID: 268084
    PSIDATADIR: /home/fs71337/airmler/src/psi4_uhf/build/stage/usr/local/psi4/share/psi4
    Memory:     500.0 MiB
    Threads:    48
    
  ==> Input File <==

--------------------------------------------------------------------------
# Any line starting with the # character is a comment line
memory 250000 mb
molecule molecule{
1 2
Cl         0.0000000000        0.0000000000        0.9507745411
Cl         0.0000000000        0.0000000000       -0.9507745411
}

set {
  reference uhf
  basis aug-cc-pv(6+d)z
  scf_type OUT_OF_CORE
  freeze_core true
}

energy('ccsd')
--------------------------------------------------------------------------

  Memory set to 232.831 GiB by Python driver.

*** tstart() called on n412-050.vsc4.prov
*** at Fri Oct 30 15:21:13 2020

   => Loading Basis Set <=

    Name: AUG-CC-PV(6+D)Z
    Role: ORBITAL
    Keyword: BASIS
    atoms 1-2 entry CL         line  1303 file /home/fs71337/airmler/src/psi4_uhf/build/stage/usr/local/psi4/share/psi4/basis/aug-cc-pv_6pd_z.gbs 


         ---------------------------------------------------------
                                   SCF
            by Justin Turney, Rob Parrish, Andy Simmonett
                             and Daniel Smith
                              UHF Reference
                       48 Threads, 238418 MiB Core
         ---------------------------------------------------------

  ==> Geometry <==

    Molecular point group: d2h
    Full point group: D_inf_h

    Geometry (in Angstrom), charge = 1, multiplicity = 2:

       Center              X                  Y                   Z               Mass       
    ------------   -----------------  -----------------  -----------------  -----------------
          CL          0.000000000000     0.000000000000     0.950774541100    34.968852682000
          CL          0.000000000000     0.000000000000    -0.950774541100    34.968852682000

  Running in d2h symmetry.

  Rotational constants: A = ************  B =      0.26664  C =      0.26664 [cm^-1]
  Rotational constants: A = ************  B =   7993.75307  C =   7993.75307 [MHz]
  Nuclear repulsion =   80.425067495799155

  Charge       = 1
  Multiplicity = 2
  Electrons    = 33
  Nalpha       = 17
  Nbeta        = 16

  ==> Algorithm <==

  SCF Algorithm Type is OUT_OF_CORE.
  DIIS enabled.
  MOM disabled.
  Fractional occupation disabled.
  Guess Type is GWH.
  Energy threshold   = 1.00e-08
  Density threshold  = 1.00e-08
  Integral threshold = 0.00e+00

  ==> Primary Basis <==

  Basis Set: AUG-CC-PV(6+D)Z
    Blend: AUG-CC-PV(6+D)Z
    Number of shells: 76
    Number of basis function: 396
    Number of Cartesian functions: 608
    Spherical Harmonics?: true
    Max angular momentum: 6

  ==> Pre-Iterations <==

   -------------------------------------------------------
    Irrep   Nso     Nmo     Nalpha   Nbeta   Ndocc  Nsocc
   -------------------------------------------------------
     Ag        70      70       0       0       0       0
     B1g       32      32       0       0       0       0
     B2g       48      48       0       0       0       0
     B3g       48      48       0       0       0       0
     Au        32      32       0       0       0       0
     B1u       70      70       0       0       0       0
     B2u       48      48       0       0       0       0
     B3u       48      48       0       0       0       0
   -------------------------------------------------------
    Total     396     396      17      16      16       1
   -------------------------------------------------------

  ==> Integral Setup <==

  ==> DiskJK: Disk-Based J/K Matrices <==

    J tasked:                  Yes
    K tasked:                  Yes
    wK tasked:                  No
    Memory (MB):            178813
    Schwarz Cutoff:          1E-12

  Minimum eigenvalue in the overlap matrix is 6.3918633024E-06.
  Using Symmetric Orthogonalization.

  SCF Guess: Generalized Wolfsberg-Helmholtz.

  ==> Iterations <==

                        Total Energy        Delta E     RMS |[F,P]|

    Occupation by irrep:
             Ag   B1g   B2g   B3g    Au   B1u   B2u   B3u 
    DOCC [     5,    0,    1,    2,    0,    4,    2,    2 ]
    SOCC [     0,    0,    1,    0,    0,    0,    0,    0 ]

   @UHF iter   1:  -903.28455559140207   -9.03285e+02   2.80468e-01 
   @UHF iter   2:  -917.93081879519650   -1.46463e+01   3.12248e-02 DIIS
   @UHF iter   3:  -918.52609892726809   -5.95280e-01   1.74455e-02 DIIS
   @UHF iter   4:  -918.61039341429955   -8.42945e-02   1.32707e-03 DIIS
   @UHF iter   5:  -918.61212424753205   -1.73083e-03   4.55532e-04 DIIS
   @UHF iter   6:  -918.61247796287626   -3.53715e-04   1.44993e-04 DIIS
   @UHF iter   7:  -918.61252856319379   -5.06003e-05   2.98240e-05 DIIS
   @UHF iter   8:  -918.61253084071348   -2.27752e-06   6.92469e-06 DIIS
   @UHF iter   9:  -918.61253096933137   -1.28618e-07   2.29309e-06 DIIS
   @UHF iter  10:  -918.61253098484144   -1.55101e-08   9.87901e-07 DIIS
   @UHF iter  11:  -918.61253098769328   -2.85183e-09   2.52792e-07 DIIS
   @UHF iter  12:  -918.61253098786074   -1.67461e-10   3.85191e-08 DIIS
   @UHF iter  13:  -918.61253098786528   -4.54747e-12   7.78627e-09 DIIS

  ==> Post-Iterations <==

   @Spin Contamination Metric:   2.715966451E-02
   @S^2 Expected:                7.500000000E-01
   @S^2 Observed:                7.771596645E-01
   @S   Expected:                5.000000000E-01
   @S   Observed:                5.000000000E-01

    Orbital Energies (a.u.)
    -----------------------

    Alpha Occupied:                                                       

       1Ag  -105.253436     1B1u -105.253434     2Ag   -10.970544  
       2B1u  -10.970309     1B3u   -8.447627     1B2g   -8.447614  
       3Ag    -8.434344     3B1u   -8.433907     1B2u   -8.432045  
       1B3g   -8.432030     4Ag    -1.584021     4B1u   -1.351421  
       2B3u   -0.935668     5Ag    -0.932753     2B2u   -0.894941  
       2B2g   -0.798900     2B3g   -0.749491  

    Alpha Virtual:                                                        

       5B1u   -0.225949     6Ag    -0.102595     3B3u   -0.074339  
       6B1u   -0.071106     3B2u   -0.070646     7Ag    -0.054397  
       3B2g   -0.036228     3B3g   -0.033534     1B1g   -0.012089  
       8Ag    -0.011802     7B1u    0.022200     4B3u    0.028217  
       4B2u    0.041200     9Ag     0.068169     1Au     0.084588  
       8B1u    0.084609     9B1u    0.109587     5B3u    0.112357  
       5B2u    0.119910     4B2g    0.123956     4B3g    0.129203  
      10Ag     0.179074     5B2g    0.195300     5B3g    0.200974  
       6B3u    0.204016    11Ag     0.211453     6B2u    0.217674  
      10B1u    0.224216     2B1g    0.238279    12Ag     0.238361  
       2Au     0.305512    11B1u    0.305578     7B3u    0.306333  
       7B2u    0.306336    13Ag     0.343105     3B1g    0.402886  
      14Ag     0.403229     6B2g    0.411308    12B1u    0.423362  
       6B3g    0.425247     7B2g    0.432888     7B3g    0.432966  
       8B3u    0.539440     8B2u    0.546045    15Ag     0.557292  
      13B1u    0.558809     3Au     0.572468    14B1u    0.572833  
       8B2g    0.635153     8B3g    0.649265     9B3u    0.673443  
       9B2u    0.686034    15B1u    0.717001     4B1g    0.750198  
      16Ag     0.750198    17Ag     0.814879    10B3u    0.827837  
      10B2u    0.828170    11B3u    0.839998    11B2u    0.857194  
       9B2g    0.866523     9B3g    0.887938    16B1u    0.889696  
       4Au     0.891200    17B1u    0.904710     5Au     0.904818  
      18B1u    0.914472    18Ag     0.948144     5B1g    0.948272  
      19Ag     0.971521    10B2g    1.008873    10B3g    1.015813  
       6B1g    1.031309    20Ag     1.031852    12B3u    1.092601  
      12B2u    1.092615    11B2g    1.094284    11B3g    1.094294  
      21Ag     1.134861     7B1g    1.143233    22Ag     1.143822  
      13B3u    1.215046    12B2g    1.215700    12B3g    1.215798  
      13B2u    1.228627    19B1u    1.238096    13B2g    1.248758  
      23Ag     1.257784    13B3g    1.262590    20B1u    1.281492  
       6Au     1.281977    21B1u    1.350073    14B3u    1.471804  
      22B1u    1.482635    14B2u    1.487301     7Au     1.590931  
      23B1u    1.591906    24Ag     1.853349    14B2g    1.943506  
      14B3g    1.957799     8B1g    2.026184    25Ag     2.026184  
      15B3u    2.048198    15B2u    2.048207    16B3u    2.089359  
      16B2u    2.089359    26Ag     2.152313     9B1g    2.152340  
      10B1g    2.161494    27Ag     2.161494    17B3u    2.234896  
      15B2g    2.243725    15B3g    2.243725    17B2u    2.251446  
      24B1u    2.254295     8Au     2.254296    16B2g    2.352033  
      25B1u    2.361803    16B3g    2.368916    18B3u    2.386147  
      18B2u    2.386207    26B1u    2.410603     9Au     2.411559  
      17B2g    2.427532    17B3g    2.427701    28Ag     2.445006  
      19B3u    2.452101    19B2u    2.469219    27B1u    2.509246  
      10Au     2.509247    11B1g    2.524854    29Ag     2.524861  
      28B1u    2.560626    20B3u    2.573879    30Ag     2.594919  
      18B2g    2.596844    20B2u    2.601385    21B3u    2.613919  
      21B2u    2.615842    12B1g    2.623645    31Ag     2.624636  
      18B3g    2.625350    19B2g    2.669715    19B3g    2.669921  
      32Ag     2.736372    29B1u    2.759025    11Au     2.761362  
      20B2g    2.765540    30B1u    2.767458    20B3g    2.780791  
      31B1u    2.848334    12Au     2.849874    22B3u    2.862704  
      22B2u    2.879424    33Ag     2.880041    32B1u    2.918267  
      21B2g    2.989738    21B3g    2.989754    13B1g    3.010779  
      34Ag     3.011342    22B2g    3.202189    22B3g    3.224278  
      35Ag     3.226726    33B1u    3.453399    13Au     3.615841  
      34B1u    3.616607    23B3u    3.820576    23B2u    3.840385  
      23B2g    4.227535    23B3g    4.245079    36Ag     4.463477  
      14B1g    4.464474    24B3u    4.506659    24B2u    4.506708  
      37Ag     4.557069    25B3u    4.590555    25B2u    4.605032  
      15B1g    4.621106    38Ag     4.621106    16B1g    4.689113  
      39Ag     4.689113    26B3u    4.723583    26B2u    4.723583  
      35B1u    4.757814    14Au     4.757828    36B1u    4.821781  
      27B3u    4.871643    27B2u    4.871652    40Ag     4.879619  
      17B1g    4.879619    24B2g    4.884457    24B3g    4.884998  
      15Au     4.892049    37B1u    4.895274    25B2g    4.930985  
      16Au     4.938151    38B1u    4.938151    25B3g    4.955285  
      41Ag     5.044135    18B1g    5.044136    28B3u    5.044254  
      28B2u    5.044254    26B2g    5.073110    26B3g    5.073110  
      27B2g    5.162980    27B3g    5.162980    42Ag     5.209543  
      19B1g    5.245671    43Ag     5.251189    29B3u    5.253858  
      39B1u    5.262925    17Au     5.262925    29B2u    5.277194  
      40B1u    5.402145    30B3u    5.425812    30B2u    5.425843  
      41B1u    5.482287    28B2g    5.550714    28B3g    5.550756  
      42B1u    5.616516    18Au     5.616523    43B1u    5.624306  
      19Au     5.625117    44Ag     5.664201    20B1g    5.664712  
      45Ag     5.689077    31B3u    5.695242    31B2u    5.695267  
      29B2g    5.735512    29B3g    5.758540    30B2g    5.764987  
      30B3g    5.765454    44B1u    5.772297    20Au     5.796165  
      45B1u    5.798737    32B3u    5.861363    32B2u    5.885029  
      46Ag     5.971416    47Ag     6.046403    21B1g    6.051579  
      31B2g    6.056564    48Ag     6.056579    31B3g    6.076027  
      33B3u    6.080368    33B2u    6.102201    22B1g    6.297407  
      49Ag     6.298289    21Au     6.308019    46B1u    6.308181  
      47B1u    6.405636    32B2g    6.416305    32B3g    6.416317  
      48B1u    6.712523    33B2g    6.866920    33B3g    6.888078  
      50Ag     7.106752    34B3u    7.232988    34B2u    7.252775  
      34B2g    7.358222    34B3g    7.385283    49B1u    7.470571  
      22Au     7.470708    35B3u    7.872823    50B1u    7.876304  
      35B2u    7.900142    35B2g    8.805139    35B3g    8.831028  
      51Ag     9.066067    36B3u    9.529528    36B2u    9.529560  
      23B1g    9.540891    52Ag     9.540892    51B1u    9.599074  
      23Au     9.599074    24B1g    9.605941    53Ag     9.606000  
      36B2g    9.709543    36B3g    9.709546    52B1u    9.758627  
      37B3u    9.762431    37B2u    9.785852    24Au     9.973732  
      53B1u    9.974767    54Ag    10.143723    38B3u   10.574506  
      38B2u   10.574506    55Ag    10.618178    25B1g   10.618178  
      37B2g   10.618353    37B3g   10.637812    56Ag    10.648218  
      26B1g   10.648218    54B1u   10.681928    25Au    10.681928  
      38B2g   10.757381    38B3g   10.757381    57Ag    10.762009  
      39B3u   10.830056    39B2u   10.830444    58Ag    10.860170  
      27B1g   10.860170    40B3u   10.889769    40B2u   10.893241  
      41B3u   10.893329    41B2u   10.911467    55B1u   10.920863  
      26Au    10.920865    39B2g   10.953111    39B3g   10.953111  
      42B3u   10.964542    42B2u   10.964585    28B1g   11.021217  
      59Ag    11.021753    56B1u   11.038392    40B2g   11.086835  
      27Au    11.090792    57B1u   11.090806    40B3g   11.109584  
      28Au    11.129342    58B1u   11.131376    41B2g   11.173775  
      41B3g   11.174171    60Ag    11.239138    29B1g   11.240431  
      43B3u   11.335295    43B2u   11.361266    61Ag    11.366909  
      42B2g   11.385160    42B3g   11.385171    59B1u   11.479284  
      29Au    11.774678    60B1u   11.775362    43B2g   12.009036  
      43B3g   12.033398    44B3u   12.040525    44B2u   12.040528  
      30B1g   12.089972    62Ag    12.090013    44B2g   12.107114  
      44B3g   12.107165    61B1u   12.345773    45B3u   12.462062  
      45B2u   12.479901    30Au    12.513223    62B1u   12.513940  
      63Ag    12.784306    31B1g   13.054044    64Ag    13.054215  
      63B1u   13.231501    64B1u   13.561288    31Au    13.561382  
      45B2g   13.582342    45B3g   13.599249    46B3u   13.649851  
      46B2u   13.668493    65B1u   14.073820    65Ag    14.251770  
      46B2g   14.456653    46B3g   14.477907    66Ag    16.299048  
      66B1u   16.913645    47B3u   34.871050    47B2u   34.887528  
      47B2g   35.474073    47B3g   35.490249    67Ag    36.613959  
      67B1u   38.766530    68Ag    38.778847    32B1g   38.778861  
      32Au    39.035847    68B1u   39.035974    48B3u   39.037315  
      48B2u   39.049047    69Ag    39.647562    48B2g   39.691948  
      48B3g   39.703939    69B1u   40.735928    70Ag   286.070691  
      70B1u  286.388042  

    Beta Occupied:                                                        

       1Ag  -105.245411     1B1u -105.245407     2Ag   -10.962986  
       2B1u  -10.962687     3Ag    -8.430858     3B1u   -8.430400  
       1B2u   -8.427874     1B3g   -8.427858     1B3u   -8.414612  
       1B2g   -8.414574     4Ag    -1.540375     4B1u   -1.270225  
       5Ag    -0.913577     2B2u   -0.885208     2B3u   -0.782169  
       2B3g   -0.735080  

    Beta Virtual:                                                         

       2B2g   -0.360482     5B1u   -0.210690     6Ag    -0.102898  
       3B3u   -0.072369     3B2u   -0.070508     6B1u   -0.070117  
       7Ag    -0.053454     3B3g   -0.033315     3B2g   -0.032440  
       1B1g   -0.005783     8Ag    -0.005672     7B1u    0.023533  
       4B2u    0.040300     4B3u    0.049952     9Ag     0.071602  
       1Au     0.091783     8B1u    0.091873     9B1u    0.111186  
       5B3u    0.120123     5B2u    0.120457     4B3g    0.129780  
       4B2g    0.133140    10Ag     0.178747     5B3g    0.201546  
       5B2g    0.203215    11Ag     0.213639     6B2u    0.217814  
      10B1u    0.226519     6B3u    0.232878    12Ag     0.254558  
       2B1g    0.254882     7B2u    0.306914     7B3u    0.306922  
       2Au     0.335736    11B1u    0.336034    13Ag     0.355395  
       3B1g    0.407461    14Ag     0.407570     6B3g    0.425547  
      12B1u    0.429037     6B2g    0.431031     7B3g    0.434741  
       7B2g    0.434924     8B3u    0.542459     8B2u    0.546234  
      15Ag     0.559100    13B1u    0.560547     3Au     0.580349  
      14B1u    0.580723     8B3g    0.651361     8B2g    0.658266  
       9B3u    0.685689     9B2u    0.686974    15B1u    0.723244  
      16Ag     0.750540     4B1g    0.750540    17Ag     0.820674  
      10B2u    0.827935    10B3u    0.827972    11B2u    0.858695  
      11B3u    0.864794     9B3g    0.889936     9B2g    0.899302  
       4Au     0.902548    16B1u    0.902654     5Au     0.908177  
      17B1u    0.908267    18B1u    0.918019    18Ag     0.958333  
       5B1g    0.958358    19Ag     0.973578    10B2g    1.010378  
      10B3g    1.015714     6B1g    1.046679    20Ag     1.046775  
      11B2g    1.095492    11B3g    1.095496    12B2u    1.101361  
      12B3u    1.101364    21Ag     1.139109     7B1g    1.146068  
      22Ag     1.147037    13B3u    1.223951    12B2g    1.227218  
      12B3g    1.227220    13B2u    1.228955    19B1u    1.243927  
      13B2g    1.260689    23Ag     1.262037    13B3g    1.263782  
      20B1u    1.292413     6Au     1.292417    21B1u    1.356384  
      14B3u    1.482985    22B1u    1.487079    14B2u    1.487630  
       7Au     1.598199    23B1u    1.598409    24Ag     1.855726  
      14B2g    1.953021    14B3g    1.958362     8B1g    2.026178  
      25Ag     2.026178    15B3u    2.049684    15B2u    2.049686  
      16B3u    2.091137    16B2u    2.091137     9B1g    2.154805  
      26Ag     2.154862    10B1g    2.167698    27Ag     2.167698  
      17B3u    2.242886    15B2g    2.246359    15B3g    2.246359  
      17B2u    2.252635    24B1u    2.261698     8Au     2.261698  
      16B2g    2.360706    25B1u    2.367458    16B3g    2.370371  
      18B3u    2.388664    18B2u    2.388680    26B1u    2.417222  
       9Au     2.417345    17B2g    2.432287    17B3g    2.432326  
      28Ag     2.453602    19B3u    2.463116    19B2u    2.470094  
      27B1u    2.511237    10Au     2.511237    11B1g    2.531482  
      29Ag     2.531607    28B1u    2.568653    30Ag     2.602724  
      20B3u    2.605864    20B2u    2.607102    18B2g    2.628919  
      18B3g    2.629238    21B3u    2.633381    21B2u    2.633400  
      31Ag     2.635491    12B1g    2.635544    19B2g    2.688105  
      19B3g    2.688106    32Ag     2.741758    29B1u    2.765363  
      11Au     2.770526    20B2g    2.771283    30B1u    2.771313  
      20B3g    2.781206    31B1u    2.859663    12Au     2.859877  
      22B3u    2.870997    22B2u    2.879820    33Ag     2.882040  
      32B1u    2.923270    21B2g    2.993139    21B3g    2.993144  
      13B1g    3.017524    34Ag     3.017645    22B2g    3.218919  
      22B3g    3.226146    35Ag     3.228517    33B1u    3.456809  
      13Au     3.619546    34B1u    3.619939    23B3u    3.830285  
      23B2u    3.841582    23B2g    4.234641    23B3g    4.245935  
      36Ag     4.466232    14B1g    4.466725    24B3u    4.509202  
      24B2u    4.509223    37Ag     4.559794    25B3u    4.593431  
      25B2u    4.605188    15B1g    4.622216    38Ag     4.622217  
      16B1g    4.703387    39Ag     4.703387    26B3u    4.726679  
      26B2u    4.726679    35B1u    4.772140    14Au     4.772142  
      36B1u    4.829726    27B3u    4.880238    27B2u    4.880240  
      40Ag     4.884254    17B1g    4.884254    24B2g    4.894946  
      24B3g    4.895042    15Au     4.900857    37B1u    4.901929  
      25B2g    4.942169    16Au     4.943019    38B1u    4.943019  
      25B3g    4.956201    41Ag     5.051010    18B1g    5.051010  
      28B3u    5.053093    28B2u    5.053093    26B2g    5.078131  
      26B3g    5.078131    27B2g    5.170614    27B3g    5.170614  
      42Ag     5.216809    19B1g    5.251542    43Ag     5.254012  
      29B3u    5.262834    39B1u    5.269444    17Au     5.269444  
      29B2u    5.278126    40B1u    5.410077    30B3u    5.430375  
      30B2u    5.430386    41B1u    5.490268    28B2g    5.557054  
      28B3g    5.557067    42B1u    5.620073    18Au     5.620074  
      43B1u    5.632259    19Au     5.632629    44Ag     5.674788  
      20B1g    5.674936    45Ag     5.701134    31B3u    5.711474  
      31B2u    5.711477    29B2g    5.744753    29B3g    5.760346  
      44B1u    5.777226    30B2g    5.779852    30B3g    5.779855  
      20Au     5.800751    45B1u    5.802146    32B3u    5.873805  
      32B2u    5.886306    46Ag     5.976368    47Ag     6.053434  
      21B1g    6.061187    31B2g    6.061849    48Ag     6.062483  
      31B3g    6.076475    33B3u    6.090381    33B2u    6.103563  
      22B1g    6.301455    49Ag     6.301930    21Au     6.315835  
      46B1u    6.315876    47B1u    6.408137    32B2g    6.419605  
      32B3g    6.419611    48B1u    6.715303    33B2g    6.877808  
      33B3g    6.888897    50Ag     7.109745    34B3u    7.239251  
      34B2u    7.253468    34B2g    7.377665    34B3g    7.388053  
      49B1u    7.476683    22Au     7.476756    50B1u    7.880580  
      35B3u    7.898261    35B2u    7.903696    35B2g    8.820785  
      35B3g    8.833662    51Ag     9.070405    36B3u    9.538809  
      36B2u    9.538817    23B1g    9.554169    52Ag     9.554169  
      51B1u    9.611876    23Au     9.611876    24B1g    9.612020  
      53Ag     9.612054    36B2g    9.718283    36B3g    9.718283  
      52B1u    9.764368    37B3u    9.771538    37B2u    9.786865  
      24Au     9.979942    53B1u    9.980377    54Ag    10.147095  
      38B3u   10.582196    38B2u   10.582196    37B2g   10.624304  
      55Ag    10.624490    25B1g   10.624491    37B3g   10.638122  
      56Ag    10.657358    26B1g   10.657358    54B1u   10.691598  
      25Au    10.691598    38B2g   10.764679    38B3g   10.764679  
      57Ag    10.765951    39B3u   10.835461    39B2u   10.835640  
      27B1g   10.869796    58Ag    10.869796    40B3u   10.895458  
      40B2u   10.905492    41B3u   10.905507    41B2u   10.912324  
      55B1u   10.926855    26Au    10.926855    39B2g   10.965424  
      39B3g   10.965424    42B3u   10.971677    42B2u   10.971692  
      28B1g   11.025328    59Ag    11.025685    56B1u   11.042880  
      40B2g   11.095342    27Au    11.099970    57B1u   11.099974  
      40B3g   11.111913    28Au    11.133771    58B1u   11.134950  
      41B2g   11.178562    41B3g   11.178710    60Ag    11.245421  
      29B1g   11.246036    43B3u   11.344302    43B2u   11.362518  
      61Ag    11.370972    42B2g   11.391574    42B3g   11.391578  
      59B1u   11.483677    29Au    11.780170    60B1u   11.780524  
      43B2g   12.016671    43B3g   12.034749    44B3u   12.047165  
      44B2u   12.047166    30B1g   12.094082    62Ag    12.094105  
      44B2g   12.113560    44B3g   12.113580    61B1u   12.349290  
      45B3u   12.467192    45B2u   12.480284    30Au    12.517312  
      62B1u   12.517719    63Ag    12.787008    31B1g   13.063365  
      64Ag    13.063402    63B1u   13.235374    64B1u   13.569793  
      31Au    13.569809    45B2g   13.587298    45B3g   13.599558  
      46B3u   13.657784    46B2u   13.669739    65B1u   14.077195  
      65Ag    14.256349    46B2g   14.465531    46B3g   14.479449  
      66Ag    16.304925    66B1u   16.919423    47B2u   34.890386  
      47B3u   34.891206    47B3g   35.493045    47B2g   35.493539  
      67Ag    36.616673    67B1u   38.770641    32B1g   38.789955  
      68Ag    38.789970    32Au    39.046847    68B1u   39.046870  
      48B3u   39.048065    48B2u   39.051009    69Ag    39.651852  
      48B2g   39.702768    48B3g   39.705887    69B1u   40.739004  
      70Ag   286.073816    70B1u  286.391162  

    Final Occupation by Irrep:
             Ag   B1g   B2g   B3g    Au   B1u   B2u   B3u 
    DOCC [     5,    0,    1,    2,    0,    4,    2,    2 ]
    SOCC [     0,    0,    1,    0,    0,    0,    0,    0 ]

  Energy converged.

  @UHF Final Energy:  -918.61253098786528

   => Energetics <=

    Nuclear Repulsion Energy =             80.4250674957991549
    One-Electron Energy =               -1418.6634117416929257
    Two-Electron Energy =                 419.6258132580285860
    Total Energy =                       -918.6125309878652843


  UHF NO Occupations:
  HONO-2 :    4B1u 1.9978312
  HONO-1 :    2B3u 1.9907346
  HONO-0 :    2B2g 1.0000000
  LUNO+0 :    3B3u 0.0092654
  LUNO+1 :    5B1u 0.0021688
  LUNO+2 :    6 Ag 0.0019035
  LUNO+3 :    3B3g 0.0001239



Properties will be evaluated at   0.000000,   0.000000,   0.000000 Bohr

Properties computed using the SCF density matrix

  Nuclear Dipole Moment: (a.u.)
     X:     0.0000      Y:     0.0000      Z:     0.0000

  Electronic Dipole Moment: (a.u.)
     X:     0.0000      Y:     0.0000      Z:     0.0000

  Dipole Moment: (a.u.)
     X:     0.0000      Y:     0.0000      Z:     0.0000     Total:     0.0000

  Dipole Moment: (Debye)
     X:     0.0000      Y:     0.0000      Z:     0.0000     Total:     0.0000


*** tstop() called on n412-050.vsc4.prov at Fri Oct 30 15:40:11 2020
Module time:
	user time   =    1154.62 seconds =      19.24 minutes
	system time =      45.64 seconds =       0.76 minutes
	total time  =       1138 seconds =      18.97 minutes
Total time:
	user time   =    1154.62 seconds =      19.24 minutes
	system time =      45.64 seconds =       0.76 minutes
	total time  =       1138 seconds =      18.97 minutes

*** tstart() called on n412-050.vsc4.prov
*** at Fri Oct 30 15:40:11 2020


	Wfn Parameters:
	--------------------
	Wavefunction         = CCSD
	Number of irreps     = 8
	Number of MOs        = 396
	Number of active MOs = 386
	AO-Basis             = NONE
	Semicanonical        = false
	Reference            = UHF
	Print Level          = 1

	IRREP	# MOs	# FZDC	# DOCC	# SOCC	# VIRT	# FZVR
	-----	-----	------	------	------	------	------
	 Ag	   70	    3	    2	    0	    65	    0
	 B1g	   32	    0	    0	    0	    32	    0
	 B2g	   48	    1	    0	    1	    46	    0
	 B3g	   48	    1	    1	    0	    46	    0
	 Au	   32	    0	    0	    0	    32	    0
	 B1u	   70	    3	    1	    0	    66	    0
	 B2u	   48	    1	    1	    0	    46	    0
	 B3u	   48	    1	    1	    0	    46	    0
	Transforming integrals...
	IWL integrals will be deleted.
	(OO|OO)...
	Presorting SO-basis two-electron integrals.
	Sorting File: SO Ints (nn|nn) nbuckets = 1
	Transforming the one-electron integrals and constructing Fock matrices
	Starting AA/AB first half-transformation.
	Sorting AA/AB half-transformed integrals.
	Starting BB first half-transformation.
	Sorting BB half-transformed integrals.
	First half integral transformation complete.
	Starting AA second half-transformation.
	Starting AB second half-transformation.
	Starting BB second half-transformation.
	Two-electron integral transformation complete.
	(OO|OV)...
	Starting AA second half-transformation.
	Starting AB second half-transformation.
	Starting BB second half-transformation.
	Two-electron integral transformation complete.
	(OO|VV)...
	Starting AA second half-transformation.
	Starting AB second half-transformation.
	Starting BB second half-transformation.
	Two-electron integral transformation complete.
	(OV|OO)...
	Starting AA/AB first half-transformation.
	Sorting AA/AB half-transformed integrals.
	Starting BB first half-transformation.
	Sorting BB half-transformed integrals.
	First half integral transformation complete.
	Starting AA second half-transformation.
	Starting AB second half-transformation.
	Starting BB second half-transformation.
	Two-electron integral transformation complete.
	(OV|OV)...
	Starting AA second half-transformation.
	Starting AB second half-transformation.
	Starting BB second half-transformation.
	Two-electron integral transformation complete.
	(OV|VV)...
	Starting AA second half-transformation.
	Starting AB second half-transformation.
	Starting BB second half-transformation.
	Two-electron integral transformation complete.
	(VV|OO)...
	Starting AA/AB first half-transformation.
	Sorting AA/AB half-transformed integrals.
	Starting BB first half-transformation.
	Sorting BB half-transformed integrals.
	First half integral transformation complete.
	Starting AA second half-transformation.
	Starting AB second half-transformation.
	Starting BB second half-transformation.
	Two-electron integral transformation complete.
	(VV|OV)...
	Starting AA second half-transformation.
	Starting AB second half-transformation.
	Starting BB second half-transformation.
	Two-electron integral transformation complete.
	(VV|VV)...
	Starting AA second half-transformation.
	Starting AB second half-transformation.
	Starting BB second half-transformation.
	Two-electron integral transformation complete.
	Frozen core energy     =   -956.28852903662346

	Size of irrep 0 of <AB|CD> integrals:     87.553 (MW) /    700.428 (MB)
	Size of irrep 1 of <AB|CD> integrals:     70.964 (MW) /    567.710 (MB)
	Size of irrep 2 of <AB|CD> integrals:     80.461 (MW) /    643.687 (MB)
	Size of irrep 3 of <AB|CD> integrals:     80.461 (MW) /    643.687 (MB)
	Size of irrep 4 of <AB|CD> integrals:     70.964 (MW) /    567.710 (MB)
	Size of irrep 5 of <AB|CD> integrals:     91.126 (MW) /    729.009 (MB)
	Size of irrep 6 of <AB|CD> integrals:     80.461 (MW) /    643.687 (MB)
	Size of irrep 7 of <AB|CD> integrals:     80.461 (MW) /    643.687 (MB)
	Total:                                   642.451 (MW) /   5139.606 (MB)

	Size of irrep 0 of <ab|cd> integrals:     88.416 (MW) /    707.331 (MB)
	Size of irrep 1 of <ab|cd> integrals:     71.741 (MW) /    573.927 (MB)
	Size of irrep 2 of <ab|cd> integrals:     81.631 (MW) /    653.050 (MB)
	Size of irrep 3 of <ab|cd> integrals:     81.036 (MW) /    648.288 (MB)
	Size of irrep 4 of <ab|cd> integrals:     71.741 (MW) /    573.927 (MB)
	Size of irrep 5 of <ab|cd> integrals:     92.006 (MW) /    736.052 (MB)
	Size of irrep 6 of <ab|cd> integrals:     81.036 (MW) /    648.288 (MB)
	Size of irrep 7 of <ab|cd> integrals:     81.649 (MW) /    653.194 (MB)
	Total:                                   649.257 (MW) /   5194.058 (MB)

	Size of irrep 0 of <Ab|Cd> integrals:    366.301 (MW) /   2930.411 (MB)
	Size of irrep 1 of <Ab|Cd> integrals:    285.407 (MW) /   2283.258 (MB)
	Size of irrep 2 of <Ab|Cd> integrals:    324.180 (MW) /   2593.440 (MB)
	Size of irrep 3 of <Ab|Cd> integrals:    322.993 (MW) /   2583.942 (MB)
	Size of irrep 4 of <Ab|Cd> integrals:    285.407 (MW) /   2283.258 (MB)
	Size of irrep 5 of <Ab|Cd> integrals:    366.263 (MW) /   2930.104 (MB)
	Size of irrep 6 of <Ab|Cd> integrals:    322.993 (MW) /   2583.942 (MB)
	Size of irrep 7 of <Ab|Cd> integrals:    324.216 (MW) /   2593.728 (MB)
	Total:                                  2597.760 (MW) /  20782.084 (MB)

	Size of irrep 0 of <IA|BC> integrals:      7.255 (MW) /     58.043 (MB)
	Size of irrep 1 of <IA|BC> integrals:      4.717 (MW) /     37.740 (MB)
	Size of irrep 2 of <IA|BC> integrals:      5.974 (MW) /     47.792 (MB)
	Size of irrep 3 of <IA|BC> integrals:      5.974 (MW) /     47.792 (MB)
	Size of irrep 4 of <IA|BC> integrals:      4.717 (MW) /     37.740 (MB)
	Size of irrep 5 of <IA|BC> integrals:      7.274 (MW) /     58.192 (MB)
	Size of irrep 6 of <IA|BC> integrals:      5.974 (MW) /     47.792 (MB)
	Size of irrep 7 of <IA|BC> integrals:      5.974 (MW) /     47.792 (MB)
	Total:                                    47.860 (MW) /    382.883 (MB)

	Size of irrep 0 of <ia|bc> integrals:      6.408 (MW) /     51.265 (MB)
	Size of irrep 1 of <ia|bc> integrals:      3.981 (MW) /     31.847 (MB)
	Size of irrep 2 of <ia|bc> integrals:      4.879 (MW) /     39.031 (MB)
	Size of irrep 3 of <ia|bc> integrals:      5.419 (MW) /     43.354 (MB)
	Size of irrep 4 of <ia|bc> integrals:      3.981 (MW) /     31.847 (MB)
	Size of irrep 5 of <ia|bc> integrals:      6.446 (MW) /     51.567 (MB)
	Size of irrep 6 of <ia|bc> integrals:      5.419 (MW) /     43.354 (MB)
	Size of irrep 7 of <ia|bc> integrals:      4.843 (MW) /     38.746 (MB)
	Total:                                    41.376 (MW) /    331.011 (MB)

	Size of irrep 0 of <Ia|Bc> integrals:      7.292 (MW) /     58.336 (MB)
	Size of irrep 1 of <Ia|Bc> integrals:      4.747 (MW) /     37.978 (MB)
	Size of irrep 2 of <Ia|Bc> integrals:      6.032 (MW) /     48.253 (MB)
	Size of irrep 3 of <Ia|Bc> integrals:      5.985 (MW) /     47.877 (MB)
	Size of irrep 4 of <Ia|Bc> integrals:      4.747 (MW) /     37.978 (MB)
	Size of irrep 5 of <Ia|Bc> integrals:      7.311 (MW) /     58.486 (MB)
	Size of irrep 6 of <Ia|Bc> integrals:      5.985 (MW) /     47.877 (MB)
	Size of irrep 7 of <Ia|Bc> integrals:      6.014 (MW) /     48.112 (MB)
	Total:                                    48.112 (MW) /    384.897 (MB)

	Size of irrep 0 of <iA|bC> integrals:      6.392 (MW) /     51.139 (MB)
	Size of irrep 1 of <iA|bC> integrals:      3.953 (MW) /     31.626 (MB)
	Size of irrep 2 of <iA|bC> integrals:      4.825 (MW) /     38.603 (MB)
	Size of irrep 3 of <iA|bC> integrals:      5.410 (MW) /     43.277 (MB)
	Size of irrep 4 of <iA|bC> integrals:      3.953 (MW) /     31.626 (MB)
	Size of irrep 5 of <iA|bC> integrals:      6.411 (MW) /     51.290 (MB)
	Size of irrep 6 of <iA|bC> integrals:      5.410 (MW) /     43.277 (MB)
	Size of irrep 7 of <iA|bC> integrals:      4.808 (MW) /     38.461 (MB)
	Total:                                    41.162 (MW) /    329.297 (MB)

	Size of irrep 0 of tIjAb amplitudes:       0.153 (MW) /      1.225 (MB)
	Size of irrep 1 of tIjAb amplitudes:       0.051 (MW) /      0.405 (MB)
	Size of irrep 2 of tIjAb amplitudes:       0.072 (MW) /      0.576 (MB)
	Size of irrep 3 of tIjAb amplitudes:       0.108 (MW) /      0.863 (MB)
	Size of irrep 4 of tIjAb amplitudes:       0.051 (MW) /      0.405 (MB)
	Size of irrep 5 of tIjAb amplitudes:       0.134 (MW) /      1.072 (MB)
	Size of irrep 6 of tIjAb amplitudes:       0.108 (MW) /      0.863 (MB)
	Size of irrep 7 of tIjAb amplitudes:       0.090 (MW) /      0.720 (MB)
	Total:                                     0.766 (MW) /      6.129 (MB)

	Nuclear Rep. energy          =     80.42506749579915
	SCF energy                   =   -918.61253098786528
	One-electron energy          =    -72.12431007435548
	Two-electron (AA) energy     =      7.19555390508023
	Two-electron (BB) energy     =      5.13139479213933
	Two-electron (AB) energy     =     17.04829193009774
	Two-electron energy          =     29.37524062731730
	Reference energy             =   -918.61253098786256

*** tstop() called on n412-050.vsc4.prov at Fri Oct 30 15:56:42 2020
Module time:
	user time   =    5623.63 seconds =      93.73 minutes
	system time =     224.04 seconds =       3.73 minutes
	total time  =        991 seconds =      16.52 minutes
Total time:
	user time   =    6778.25 seconds =     112.97 minutes
	system time =     269.68 seconds =       4.49 minutes
	total time  =       2129 seconds =      35.48 minutes

*** tstart() called on n412-050.vsc4.prov
*** at Fri Oct 30 15:56:42 2020

            **************************
            *                        *
            *        CCENERGY        *
            *                        *
            **************************

    Nuclear Rep. energy (wfn)     =   80.425067495799155
    SCF energy          (wfn)     = -918.612530987865284
    Reference energy    (file100) = -918.612530987862556

    Input parameters:
    -----------------
    Wave function   =     CCSD
    Reference wfn   =     UHF
    Brueckner       =     No
    Memory (Mbytes) =     250000.0
    Maxiter         =     50
    R_Convergence   =     1.0e-07
    E_Convergence   =     1.0e-06
    Restart         =     Yes
    DIIS            =     Yes
    AO Basis        =     NONE
    ABCD            =     NEW
    Cache Level     =     2
    Cache Type      =     LRU
    Print Level     =     1
    Num. of threads =     48
    # Amps to Print =     10
    Print MP2 Amps? =     No
    Analyze T2 Amps =     No
    Print Pair Ener =     No
    Local CC        =     No
    SCS-MP2         =     False
    SCSN-MP2        =     False
    SCS-CCSD        =     False

MP2 correlation energy -0.4193005048580024
                Solving CC Amplitude Equations
                ------------------------------
  Iter             Energy              RMS        T1Diag      D1Diag    New D1Diag    D2Diag
  ----     ---------------------    ---------   ----------  ----------  ----------   --------
     0        -0.419300504858003    0.000e+00    0.000000    0.000000    0.000000    0.000000
     1        -0.427872537069833    7.272e-02    0.014324    0.000000    0.000000    0.000000
     2        -0.439183245150177    2.296e-02    0.016083    0.000000    0.000000    0.000000
     3        -0.441453790548674    1.016e-02    0.018901    0.000000    0.000000    0.000000
     4        -0.441254246433093    2.243e-03    0.019502    0.000000    0.000000    0.000000
     5        -0.441249547636758    6.961e-04    0.019665    0.000000    0.000000    0.000000
     6        -0.441247203418162    1.882e-04    0.019695    0.000000    0.000000    0.000000
     7        -0.441245696008463    4.418e-05    0.019696    0.000000    0.000000    0.000000
     8        -0.441246619055212    1.443e-05    0.019696    0.000000    0.000000    0.000000
     9        -0.441246717390222    4.270e-06    0.019696    0.000000    0.000000    0.000000
    10        -0.441246636043998    1.510e-06    0.019696    0.000000    0.000000    0.000000
    11        -0.441246668747866    4.837e-07    0.019696    0.000000    0.000000    0.000000
    12        -0.441246671774842    1.433e-07    0.019696    0.000000    0.000000    0.000000
    13        -0.441246677812074    4.800e-08    0.019696    0.000000    0.000000    0.000000
    13        -0.441246677812074    4.800e-08    0.019696    0.000000    0.000000    0.000000

    Iterations converged.


    CCSD corr. energy   =   -0.441246677812074
    PPL corr. energy    =    0.123747651140864
    OS PPL corr. energy =    0.102651862293964
    SS PPL corr. energy =    0.021095788846899
    Largest TIA Amplitudes:
              6 334        -0.0231395290
              6 336         0.0166118337
              1   7        -0.0146633579
              5 288        -0.0136750424
              1  11         0.0099735951
              5 290         0.0099186739
              1   3         0.0081610374
              4 228         0.0065423170
              1  13        -0.0063436126
              1   0        -0.0062008937

    Largest Tia Amplitudes:
              5 337        -0.0239571859
              5 335         0.0207862233
              3 222         0.0183485237
              5 336        -0.0152187574
              4 289        -0.0144654193
              5 342         0.0121636333
              3 228         0.0111715635
              5 340         0.0105331911
              4 291         0.0103263665
              1   6         0.0091149401

    Largest TIJAB Amplitudes:
      2   1 334 221         0.0268469241
      3   1 288 221         0.0264957042
      3   1 290 221        -0.0251335082
      2   1 336 221        -0.0229979896
      3   2 227 190        -0.0178460654
      6   5  66   6         0.0157247566
      5   2 190   6        -0.0139334630
      6   3 227  66         0.0138415161
      5   2 227  66        -0.0135802700
      6   3 190   6         0.0134322293

    Largest Tijab Amplitudes:
      5   1 222  97        -0.0869017973
      5   2 289  97         0.0316275694
      5   2 291  97        -0.0286622177
      2   1 289 222         0.0269803894
      2   1 291 222        -0.0253315625
      5   1 223  97        -0.0219669043
      5   1 226  97         0.0172078652
      5   4  66   6         0.0163740802
      5   1 232  97         0.0151125115
      5   0 222  97        -0.0136701209

    Largest TIjAb Amplitudes:
      1   5 221  97         0.1008282294
      1   1 221 222        -0.0990877790
      3   2 221 222        -0.0456648128
      2   5 334  97        -0.0439702738
      2   5 336  97         0.0380698901
      6   5 221 222        -0.0366539897
      3   5 288  97        -0.0319835889
      4   3 221 222        -0.0319172071
      3   5 290  97         0.0302541633
      1   2 221 289         0.0274254592

    SCF energy       (wfn)                    = -918.612530987865284
    Reference energy (file100)                = -918.612530987862556

    Opposite-spin MP2 correlation energy      =   -0.322012295208245
    Same-spin MP2 correlation energy          =   -0.097288209649740
    MP2 correlation energy                    =   -0.419300504858002
      * MP2 total energy                      = -919.031831492720585

    Opposite-spin CCSD correlation energy     =   -0.349414061053874
    Same-spin CCSD correlation energy         =   -0.091832617842317
    CCSD correlation energy                   =   -0.441246677812074
      * CCSD total energy                     = -919.053777665674602


*** tstop() called on n412-050.vsc4.prov at Fri Oct 30 16:12:17 2020
Module time:
	user time   =    9043.52 seconds =     150.73 minutes
	system time =     355.71 seconds =       5.93 minutes
	total time  =        935 seconds =      15.58 minutes
Total time:
	user time   =   15821.77 seconds =     263.70 minutes
	system time =     625.39 seconds =      10.42 minutes
	total time  =       3064 seconds =      51.07 minutes

*** Psi4 exiting successfully. Buy a developer a beer!
