
    -----------------------------------------------------------------------
          Psi4: An Open-Source Ab Initio Electronic Structure Package
                               Psi4 1.4a3.dev88 

                         Git: Rev {master} 262e345 


    D. G. A. Smith, L. A. Burns, A. C. Simmonett, R. M. Parrish,
    M. C. Schieber, R. Galvelis, P. Kraus, H. Kruse, R. Di Remigio,
    A. Alenaizan, A. M. James, S. Lehtola, J. P. Misiewicz, M. Scheurer,
    R. A. Shaw, J. B. Schriber, Y. Xie, Z. L. Glick, D. A. Sirianni,
    J. S. O'Brien, J. M. Waldrop, A. Kumar, E. G. Hohenstein,
    B. P. Pritchard, B. R. Brooks, H. F. Schaefer III, A. Yu. Sokolov,
    K. Patkowski, A. E. DePrince III, U. Bozkaya, R. A. King,
    F. A. Evangelista, J. M. Turney, T. D. Crawford, C. D. Sherrill,
    J. Chem. Phys. 152(18) 184108 (2020). https://doi.org/10.1063/5.0006002

                            Additional Code Authors
    E. T. Seidl, C. L. Janssen, E. F. Valeev, M. L. Leininger,
    J. F. Gonthier, R. M. Richard, H. R. McAlexander, M. Saitow, X. Wang,
    P. Verma, and M. H. Lechner

             Previous Authors, Complete List of Code Contributors,
                       and Citations for Specific Modules
    https://github.com/psi4/psi4/blob/master/codemeta.json
    https://github.com/psi4/psi4/graphs/contributors
    http://psicode.org/psi4manual/master/introduction.html#citing-psifour

    -----------------------------------------------------------------------


    Psi4 started on: Tuesday, 26 January 2021 06:13PM

    Process ID: 398684
    Host:       n412-039.vsc4.prov
    PSIDATADIR: /home/fs71337/gallo4/psi4/eri-6/psi4/build/stage/share/psi4
    Memory:     500.0 MiB
    Threads:    48
    
  ==> Input File <==

--------------------------------------------------------------------------
# Any line starting with the # character is a comment line
memory 250000 mb
molecule molecule{
-1 3
P          0.0000000000        0.0000000000        0.0000000000
}

set {
  reference uhf
  basis aug-cc-pV(d+d)Z
  scf_type OUT_OF_CORE
  freeze_core true
}

energy('ccsd(t)')
--------------------------------------------------------------------------

  Memory set to 232.831 GiB by Python driver.

Scratch directory: /binfl/lv71337/airmler/temp/

*** tstart() called on n412-039.vsc4.prov
*** at Tue Jan 26 18:13:43 2021

   => Loading Basis Set <=

    Name: AUG-CC-PV(D+D)Z
    Role: ORBITAL
    Keyword: BASIS
    atoms 1 entry P          line   672 file /home/fs71337/gallo4/psi4/eri-6/psi4/build/stage/share/psi4/basis/aug-cc-pv_dpd_z.gbs 


         ---------------------------------------------------------
                                   SCF
               by Justin Turney, Rob Parrish, Andy Simmonett
                          and Daniel G. A. Smith
                              UHF Reference
                       48 Threads, 238418 MiB Core
         ---------------------------------------------------------

  ==> Geometry <==

    Molecular point group: d2h
    Geometry (in Angstrom), charge = -1, multiplicity = 3:

       Center              X                  Y                   Z               Mass       
    ------------   -----------------  -----------------  -----------------  -----------------
         P            0.000000000000     0.000000000000     0.000000000000    30.973761998420

  Running in d2h symmetry.

  Rotational constants: A = ************  B = ************  C = ************ [cm^-1]
  Rotational constants: A = ************  B = ************  C = ************ [MHz]
  Nuclear repulsion =    0.000000000000000

  Charge       = -1
  Multiplicity = 3
  Electrons    = 16
  Nalpha       = 9
  Nbeta        = 7

  ==> Algorithm <==

  SCF Algorithm Type is OUT_OF_CORE.
  DIIS enabled.
  MOM disabled.
  Fractional occupation disabled.
  Guess Type is CORE.
  Energy threshold   = 1.00e-08
  Density threshold  = 1.00e-08
  Integral threshold = 1.00e-12

  ==> Primary Basis <==

  Basis Set: AUG-CC-PV(D+D)Z
    Blend: AUG-CC-PV(D+D)Z
    Number of shells: 12
    Number of basis function: 32
    Number of Cartesian functions: 35
    Spherical Harmonics?: true
    Max angular momentum: 2

  ==> Integral Setup <==

  ==> DiskJK: Disk-Based J/K Matrices <==

    J tasked:                  Yes
    K tasked:                  Yes
    wK tasked:                  No
    Memory [MiB]:           178813
    Schwarz Cutoff:          1E-12

  Minimum eigenvalue in the overlap matrix is 4.4370143584E-02.
  Reciprocal condition number of the overlap matrix is 1.9244024350E-02.
    Using symmetric orthogonalization.

  ==> Pre-Iterations <==

  SCF Guess: Core (One-Electron) Hamiltonian.

   -------------------------------------------------------
    Irrep   Nso     Nmo     Nalpha   Nbeta   Ndocc  Nsocc
   -------------------------------------------------------
     Ag        11      11       3       2       2       1
     B1g        3       3       1       1       1       0
     B2g        3       3       1       1       1       0
     B3g        3       3       1       0       0       1
     Au         0       0       0       0       0       0
     B1u        4       4       1       1       1       0
     B2u        4       4       1       1       1       0
     B3u        4       4       1       1       1       0
   -------------------------------------------------------
    Total      32      32       9       7       7       2
   -------------------------------------------------------

  ==> Iterations <==

                        Total Energy        Delta E     RMS |[F,P]|

    Occupation by irrep:
             Ag   B1g   B2g   B3g    Au   B1u   B2u   B3u 
    DOCC [     2,    0,    0,    0,    0,    1,    2,    2 ]
    SOCC [     1,    0,    0,    0,    0,    1,    0,    0 ]

   @UHF iter   1:  -311.07725009809297   -3.11077e+02   3.71140e-01 DIIS
    Occupation by irrep:
             Ag   B1g   B2g   B3g    Au   B1u   B2u   B3u 
    DOCC [     3,    0,    0,    0,    0,    1,    2,    1 ]
    SOCC [     0,    0,    0,    0,    0,    1,    0,    1 ]

   @UHF iter   2:  -335.61055106965756   -2.45333e+01   2.30133e-01 DIIS
   @UHF iter   3:  -340.66759483194687   -5.05704e+00   2.11844e-02 DIIS
   @UHF iter   4:  -340.68910616503098   -2.15113e-02   5.95737e-03 DIIS
   @UHF iter   5:  -340.69539341525257   -6.28725e-03   1.65553e-03 DIIS
   @UHF iter   6:  -340.69608218867944   -6.88773e-04   6.38183e-04 DIIS
   @UHF iter   7:  -340.69646422074118   -3.82032e-04   2.94933e-04 DIIS
   @UHF iter   8:  -340.69657019213247   -1.05971e-04   1.37321e-04 DIIS
   @UHF iter   9:  -340.69660105466858   -3.08625e-05   6.40529e-05 DIIS
   @UHF iter  10:  -340.69660889260854   -7.83794e-06   6.05252e-06 DIIS
   @UHF iter  11:  -340.69660893418506   -4.15765e-08   7.66046e-07 DIIS
   @UHF iter  12:  -340.69660893437060   -1.85537e-10   6.73258e-08 DIIS
   @UHF iter  13:  -340.69660893437180   -1.19371e-12   9.03306e-09 DIIS
  Energy and wave function converged.


  ==> Post-Iterations <==

   @Spin Contamination Metric:   2.347162098E-02
   @S^2 Expected:                2.000000000E+00
   @S^2 Observed:                2.023471621E+00
   @S   Expected:                1.000000000E+00
   @S   Observed:                1.000000000E+00

    Orbital Energies [Eh]
    ---------------------

    Alpha Occupied:                                                       

       1Ag   -79.705346     2Ag    -7.243924     1B3u   -5.144735  
       1B1u   -5.144735     1B2u   -5.131596     3Ag    -0.530633  
       2B3u   -0.121695     2B1u   -0.121695     2B2u   -0.066893  

    Alpha Virtual:                                                        

       3B3u    0.258301     3B1u    0.258301     4Ag     0.265788  
       3B2u    0.274866     1B2g    0.474014     5Ag     0.474014  
       1B3g    0.496634     1B1g    0.496634     6Ag     0.504707  
       4B3u    0.921544     4B1u    0.921544     7Ag     0.953179  
       4B2u    0.958578     2B2g    1.073650     8Ag     1.073650  
       2B1g    1.104623     2B3g    1.104623     9Ag     1.116366  
       3B2g    4.590930    10Ag     4.590930     3B3g    4.606389  
       3B1g    4.606389    11Ag     4.611561  

    Beta Occupied:                                                        

       1Ag   -79.693718     2Ag    -7.230679     1B2u   -5.122144  
       1B1u   -5.114375     1B3u   -5.114375     3Ag    -0.351152  
       2B2u   -0.020764  

    Beta Virtual:                                                         

       2B3u    0.215119     2B1u    0.215119     4Ag     0.279686  
       3B2u    0.285098     3B1u    0.350104     3B3u    0.350104  
       5Ag     0.533487     1B1g    0.535821     1B3g    0.535821  
       1B2g    0.547164     6Ag     0.547164     4B2u    0.980098  
       7Ag     0.993374     4B1u    0.999435     4B3u    0.999435  
       8Ag     1.157412     2B3g    1.158761     2B1g    1.158761  
       2B2g    1.164826     9Ag     1.164826     3B2g    4.603929  
      10Ag     4.603929     3B3g    4.614372     3B1g    4.614372  
      11Ag     4.617842  

    Final Occupation by Irrep:
             Ag   B1g   B2g   B3g    Au   B1u   B2u   B3u 
    DOCC [     3,    0,    0,    0,    0,    1,    2,    1 ]
    SOCC [     0,    0,    0,    0,    0,    1,    0,    1 ]

  @UHF Final Energy:  -340.69660893437180

   => Energetics <=

    Nuclear Repulsion Energy =              0.0000000000000000
    One-Electron Energy =                -475.5347571661604889
    Two-Electron Energy =                 134.8381482317886935
    Total Energy =                       -340.6966089343717954

  UHF NO Occupations:
  HONO-2 :    2B2u 1.9929263
  HONO-1 :    2B1u 1.0000000
  HONO-0 :    2B3u 1.0000000
  LUNO+0 :    3B2u 0.0070737
  LUNO+1 :    4 Ag 0.0046969
  LUNO+2 :    3B3u 0.0000006
  LUNO+3 :    3B1u 0.0000006


Computation Completed


Properties will be evaluated at   0.000000,   0.000000,   0.000000 [a0]

Properties computed using the SCF density matrix

  Nuclear Dipole Moment: [e a0]
     X:     0.0000      Y:     0.0000      Z:     0.0000

  Electronic Dipole Moment: [e a0]
     X:     0.0000      Y:     0.0000      Z:     0.0000

  Dipole Moment: [e a0]
     X:     0.0000      Y:     0.0000      Z:     0.0000     Total:     0.0000

  Dipole Moment: [D]
     X:     0.0000      Y:     0.0000      Z:     0.0000     Total:     0.0000


*** tstop() called on n412-039.vsc4.prov at Tue Jan 26 18:13:45 2021
Module time:
	user time   =       7.77 seconds =       0.13 minutes
	system time =       0.58 seconds =       0.01 minutes
	total time  =          2 seconds =       0.03 minutes
Total time:
	user time   =       7.77 seconds =       0.13 minutes
	system time =       0.58 seconds =       0.01 minutes
	total time  =          2 seconds =       0.03 minutes

*** tstart() called on n412-039.vsc4.prov
*** at Tue Jan 26 18:13:45 2021


	Wfn Parameters:
	--------------------
	Wavefunction         = CCSD_T
	Number of irreps     = 8
	Number of MOs        = 32
	Number of active MOs = 27
	AO-Basis             = NONE
	Semicanonical        = false
	Reference            = UHF
	Print Level          = 1

	IRREP	# MOs	# FZDC	# DOCC	# SOCC	# VIRT	# FZVR
	-----	-----	------	------	------	------	------
	 Ag	   11	    2	    1	    0	    8	    0
	 B1g	   3	    0	    0	    0	    3	    0
	 B2g	   3	    0	    0	    0	    3	    0
	 B3g	   3	    0	    0	    0	    3	    0
	 Au	   0	    0	    0	    0	    0	    0
	 B1u	   4	    1	    0	    1	    2	    0
	 B2u	   4	    1	    1	    0	    2	    0
	 B3u	   4	    1	    0	    1	    2	    0
	Transforming integrals...
	IWL integrals will be deleted.
	(OO|OO)...
	Presorting SO-basis two-electron integrals.
	Sorting File: SO Ints (nn|nn) nbuckets = 1
	Constructing frozen core operators
	Starting AA/AB first half-transformation.
	Sorting AA/AB half-transformed integrals.
	Starting BB first half-transformation.
	Sorting BB half-transformed integrals.
	First half integral transformation complete.
	Starting AA second half-transformation.
	Starting AB second half-transformation.
	Starting BB second half-transformation.
	Two-electron integral transformation complete.
	(OO|OV)...
	Starting AA second half-transformation.
	Starting AB second half-transformation.
	Starting BB second half-transformation.
	Two-electron integral transformation complete.
	(OO|VV)...
	Starting AA second half-transformation.
	Starting AB second half-transformation.
	Starting BB second half-transformation.
	Two-electron integral transformation complete.
	(OV|OO)...
	Starting AA/AB first half-transformation.
	Sorting AA/AB half-transformed integrals.
	Starting BB first half-transformation.
	Sorting BB half-transformed integrals.
	First half integral transformation complete.
	Starting AA second half-transformation.
	Starting AB second half-transformation.
	Starting BB second half-transformation.
	Two-electron integral transformation complete.
	(OV|OV)...
	Starting AA second half-transformation.
	Starting AB second half-transformation.
	Starting BB second half-transformation.
	Two-electron integral transformation complete.
	(OV|VV)...
	Starting AA second half-transformation.
	Starting AB second half-transformation.
	Starting BB second half-transformation.
	Two-electron integral transformation complete.
	(VV|OO)...
	Starting AA/AB first half-transformation.
	Sorting AA/AB half-transformed integrals.
	Starting BB first half-transformation.
	Sorting BB half-transformed integrals.
	First half integral transformation complete.
	Starting AA second half-transformation.
	Starting AB second half-transformation.
	Starting BB second half-transformation.
	Two-electron integral transformation complete.
	(VV|OV)...
	Starting AA second half-transformation.
	Starting AB second half-transformation.
	Starting BB second half-transformation.
	Two-electron integral transformation complete.
	(VV|VV)...
	Starting AA second half-transformation.
	Starting AB second half-transformation.
	Starting BB second half-transformation.
	Two-electron integral transformation complete.
	Frozen core energy     =   -334.35619020436957

	Size of irrep 0 of <AB|CD> integrals:      0.002 (MW) /      0.013 (MB)
	Size of irrep 1 of <AB|CD> integrals:      0.001 (MW) /      0.011 (MB)
	Size of irrep 2 of <AB|CD> integrals:      0.001 (MW) /      0.011 (MB)
	Size of irrep 3 of <AB|CD> integrals:      0.001 (MW) /      0.011 (MB)
	Size of irrep 4 of <AB|CD> integrals:      0.000 (MW) /      0.003 (MB)
	Size of irrep 5 of <AB|CD> integrals:      0.001 (MW) /      0.006 (MB)
	Size of irrep 6 of <AB|CD> integrals:      0.001 (MW) /      0.006 (MB)
	Size of irrep 7 of <AB|CD> integrals:      0.001 (MW) /      0.006 (MB)
	Total:                                     0.008 (MW) /      0.067 (MB)

	Size of irrep 0 of <ab|cd> integrals:      0.002 (MW) /      0.015 (MB)
	Size of irrep 1 of <ab|cd> integrals:      0.002 (MW) /      0.012 (MB)
	Size of irrep 2 of <ab|cd> integrals:      0.002 (MW) /      0.014 (MB)
	Size of irrep 3 of <ab|cd> integrals:      0.002 (MW) /      0.012 (MB)
	Size of irrep 4 of <ab|cd> integrals:      0.001 (MW) /      0.005 (MB)
	Size of irrep 5 of <ab|cd> integrals:      0.002 (MW) /      0.012 (MB)
	Size of irrep 6 of <ab|cd> integrals:      0.001 (MW) /      0.009 (MB)
	Size of irrep 7 of <ab|cd> integrals:      0.002 (MW) /      0.012 (MB)
	Total:                                     0.012 (MW) /      0.092 (MB)

	Size of irrep 0 of <Ab|Cd> integrals:      0.011 (MW) /      0.092 (MB)
	Size of irrep 1 of <Ab|Cd> integrals:      0.006 (MW) /      0.046 (MB)
	Size of irrep 2 of <Ab|Cd> integrals:      0.006 (MW) /      0.049 (MB)
	Size of irrep 3 of <Ab|Cd> integrals:      0.006 (MW) /      0.046 (MB)
	Size of irrep 4 of <Ab|Cd> integrals:      0.002 (MW) /      0.014 (MB)
	Size of irrep 5 of <Ab|Cd> integrals:      0.004 (MW) /      0.036 (MB)
	Size of irrep 6 of <Ab|Cd> integrals:      0.004 (MW) /      0.031 (MB)
	Size of irrep 7 of <Ab|Cd> integrals:      0.004 (MW) /      0.036 (MB)
	Total:                                     0.044 (MW) /      0.349 (MB)

	Size of irrep 0 of <IA|BC> integrals:      0.001 (MW) /      0.012 (MB)
	Size of irrep 1 of <IA|BC> integrals:      0.001 (MW) /      0.004 (MB)
	Size of irrep 2 of <IA|BC> integrals:      0.001 (MW) /      0.004 (MB)
	Size of irrep 3 of <IA|BC> integrals:      0.001 (MW) /      0.004 (MB)
	Size of irrep 4 of <IA|BC> integrals:      0.000 (MW) /      0.003 (MB)
	Size of irrep 5 of <IA|BC> integrals:      0.001 (MW) /      0.007 (MB)
	Size of irrep 6 of <IA|BC> integrals:      0.001 (MW) /      0.007 (MB)
	Size of irrep 7 of <IA|BC> integrals:      0.001 (MW) /      0.007 (MB)
	Total:                                     0.006 (MW) /      0.048 (MB)

	Size of irrep 0 of <ia|bc> integrals:      0.001 (MW) /      0.009 (MB)
	Size of irrep 1 of <ia|bc> integrals:      0.000 (MW) /      0.004 (MB)
	Size of irrep 2 of <ia|bc> integrals:      0.000 (MW) /      0.002 (MB)
	Size of irrep 3 of <ia|bc> integrals:      0.000 (MW) /      0.004 (MB)
	Size of irrep 4 of <ia|bc> integrals:      0.000 (MW) /      0.001 (MB)
	Size of irrep 5 of <ia|bc> integrals:      0.000 (MW) /      0.004 (MB)
	Size of irrep 6 of <ia|bc> integrals:      0.001 (MW) /      0.005 (MB)
	Size of irrep 7 of <ia|bc> integrals:      0.000 (MW) /      0.004 (MB)
	Total:                                     0.004 (MW) /      0.033 (MB)

	Size of irrep 0 of <Ia|Bc> integrals:      0.002 (MW) /      0.014 (MB)
	Size of irrep 1 of <Ia|Bc> integrals:      0.001 (MW) /      0.005 (MB)
	Size of irrep 2 of <Ia|Bc> integrals:      0.001 (MW) /      0.006 (MB)
	Size of irrep 3 of <Ia|Bc> integrals:      0.001 (MW) /      0.005 (MB)
	Size of irrep 4 of <Ia|Bc> integrals:      0.000 (MW) /      0.003 (MB)
	Size of irrep 5 of <Ia|Bc> integrals:      0.001 (MW) /      0.009 (MB)
	Size of irrep 6 of <Ia|Bc> integrals:      0.001 (MW) /      0.008 (MB)
	Size of irrep 7 of <Ia|Bc> integrals:      0.001 (MW) /      0.009 (MB)
	Total:                                     0.007 (MW) /      0.058 (MB)

	Size of irrep 0 of <iA|bC> integrals:      0.001 (MW) /      0.009 (MB)
	Size of irrep 1 of <iA|bC> integrals:      0.000 (MW) /      0.003 (MB)
	Size of irrep 2 of <iA|bC> integrals:      0.000 (MW) /      0.002 (MB)
	Size of irrep 3 of <iA|bC> integrals:      0.000 (MW) /      0.003 (MB)
	Size of irrep 4 of <iA|bC> integrals:      0.000 (MW) /      0.001 (MB)
	Size of irrep 5 of <iA|bC> integrals:      0.000 (MW) /      0.003 (MB)
	Size of irrep 6 of <iA|bC> integrals:      0.001 (MW) /      0.005 (MB)
	Size of irrep 7 of <iA|bC> integrals:      0.000 (MW) /      0.003 (MB)
	Total:                                     0.003 (MW) /      0.028 (MB)

	Size of irrep 0 of tIjAb amplitudes:       0.000 (MW) /      0.002 (MB)
	Size of irrep 1 of tIjAb amplitudes:       0.000 (MW) /      0.001 (MB)
	Size of irrep 2 of tIjAb amplitudes:       0.000 (MW) /      0.000 (MB)
	Size of irrep 3 of tIjAb amplitudes:       0.000 (MW) /      0.001 (MB)
	Size of irrep 4 of tIjAb amplitudes:       0.000 (MW) /      0.000 (MB)
	Size of irrep 5 of tIjAb amplitudes:       0.000 (MW) /      0.001 (MB)
	Size of irrep 6 of tIjAb amplitudes:       0.000 (MW) /      0.001 (MB)
	Size of irrep 7 of tIjAb amplitudes:       0.000 (MW) /      0.001 (MB)
	Total:                                     0.001 (MW) /      0.005 (MB)

	Nuclear Rep. energy          =      0.00000000000000
	SCF energy                   =   -340.69660893437180
	One-electron energy          =    -11.46800518285498
	Two-electron (AA) energy     =      1.88169670060807
	Two-electron (BB) energy     =      0.28446914087403
	Two-electron (AB) energy     =      2.96142061137022
	Two-electron energy          =      5.12758645285232
	Reference energy             =   -340.69660893437225

*** tstop() called on n412-039.vsc4.prov at Tue Jan 26 18:13:46 2021
Module time:
	user time   =       0.03 seconds =       0.00 minutes
	system time =       0.09 seconds =       0.00 minutes
	total time  =          1 seconds =       0.02 minutes
Total time:
	user time   =       7.81 seconds =       0.13 minutes
	system time =       0.67 seconds =       0.01 minutes
	total time  =          3 seconds =       0.05 minutes
            **************************
            *                        *
            *        CCENERGY        *
            *                        *
            **************************

    Nuclear Rep. energy (wfn)     =    0.000000000000000
    SCF energy          (wfn)     = -340.696608934371795
    Reference energy    (file100) = -340.696608934372250

    Input parameters:
    -----------------
    Wave function   =     CCSD_T
    Reference wfn   =     UHF
    Brueckner       =     No
    Memory (Mbytes) =     250000.0
    Maxiter         =     50
    R_Convergence   =     1.0e-07
    E_Convergence   =     1.0e-06
    Restart         =     Yes
    DIIS            =     Yes
    AO Basis        =     NONE
    ABCD            =     NEW
    Cache Level     =     2
    Cache Type      =     LRU
    Print Level     =     1
    Num. of threads =     48
    # Amps to Print =     10
    Print MP2 Amps? =     No
    Analyze T2 Amps =     No
    Print Pair Ener =     No
    Local CC        =     No
    SCS-MP2         =     False
    SCSN-MP2        =     False
    SCS-CCSD        =     False

MP2 correlation energy -0.0912010734913795
                Solving CC Amplitude Equations
                ------------------------------
  Iter             Energy              RMS        T1Diag      D1Diag    New D1Diag    D2Diag
  ----     ---------------------    ---------   ----------  ----------  ----------   --------
     0        -0.091201073491379    0.000e+00    0.000000    0.000000    0.000000    0.000000
     1        -0.106364077820852    5.389e-02    0.010320    0.000000    0.000000    0.000000
     2        -0.111229291001685    2.067e-02    0.016912    0.000000    0.000000    0.000000
     3        -0.111692154500243    7.005e-03    0.019492    0.000000    0.000000    0.000000
     4        -0.111684407841254    3.013e-03    0.020011    0.000000    0.000000    0.000000
     5        -0.111690405043997    1.657e-03    0.020307    0.000000    0.000000    0.000000
     6        -0.111699667941378    6.329e-04    0.020254    0.000000    0.000000    0.000000
     7        -0.111707102111080    2.047e-04    0.020234    0.000000    0.000000    0.000000
     8        -0.111704814171354    6.752e-05    0.020227    0.000000    0.000000    0.000000
     9        -0.111705217811898    1.921e-05    0.020228    0.000000    0.000000    0.000000
    10        -0.111705319787112    5.531e-06    0.020229    0.000000    0.000000    0.000000
    11        -0.111705266624393    1.760e-06    0.020228    0.000000    0.000000    0.000000
    12        -0.111705245945387    6.227e-07    0.020228    0.000000    0.000000    0.000000
    13        -0.111705254139276    2.422e-07    0.020228    0.000000    0.000000    0.000000
    14        -0.111705253318742    7.081e-08    0.020228    0.000000    0.000000    0.000000

    Iterations converged.


    Largest TIA Amplitudes:
              3  21        -0.0212701187
              1  17        -0.0212701181
              2  19        -0.0173522467
              0   3        -0.0064494091
              2  20        -0.0052631621
              0   2        -0.0049631367
              0   5        -0.0030384938
              0   0         0.0014726713
              1  18        -0.0013822706
              3  22        -0.0013822690

    Largest Tia Amplitudes:
              0   1        -0.0279943325
              0   4         0.0136262936
              1  21        -0.0072281802
              1  20        -0.0067069064
              0   0         0.0065140142
              0   3        -0.0055643184
              0   7         0.0002506150

    Largest TIJAB Amplitudes:
      3   1  11   1        -0.0362708240
      3   2   8   2        -0.0341447043
      2   1  14   2         0.0341447041
      2   1  19  17        -0.0225213550
      3   2  21  19        -0.0225213502
      3   1  14   8         0.0207499692
      3   1  21  17        -0.0196596960
      3   1  22  18        -0.0179626253
      2   1  14   1        -0.0177603047
      2   1  11   8         0.0177603038

    Largest Tijab Amplitudes:
      1   0  23   8        -0.0167990612
      1   0  18  14        -0.0167990610
      1   0  20   0        -0.0136581817
      1   0  20   3         0.0104529353
      1   0  21   3        -0.0096945454
      1   0  17  14         0.0094731748
      1   0  22   8         0.0094731746
      1   0  20   1         0.0093435107
      1   0  23   9        -0.0086282301
      1   0  18  15        -0.0086282300

    Largest TIjAb Amplitudes:
      2   1  19  20        -0.0632655910
      2   1   2   1         0.0521582460
      1   0   1  18         0.0411846344
      1   0  11  23         0.0411846336
      3   0  11  18         0.0411846333
      3   0   1  23        -0.0411846326
      2   1   8   8        -0.0408350012
      2   1  14  14        -0.0408350012
      2   0   8  23         0.0378986432
      2   0  14  18         0.0378986432

    SCF energy       (wfn)                    = -340.696608934371795
    Reference energy (file100)                = -340.696608934372250

    Opposite-spin MP2 correlation energy      =   -0.068103047836130
    Same-spin MP2 correlation energy          =   -0.023098025655250
    Singles MP2 correlation energy            =   -0.000000000000000
    MP2 correlation energy                    =   -0.091201073491379
      * MP2 total energy                      = -340.787810007863641

    Opposite-spin CCSD correlation energy     =   -0.088113856856755
    Same-spin CCSD correlation energy         =   -0.023591396461986
    Singles CCSD correlation energy           =    0.000000000000000
    CCSD correlation energy                   =   -0.111705253318742
      * CCSD total energy                     = -340.808314187690996

            **************************
            *                        *
            *        CCTRIPLES       *
            *                        *
            **************************


    Wave function   =    CCSD_T
    Reference wfn   =      UHF

    Nuclear Rep. energy (wfn)                =    0.000000000000000
    SCF energy          (wfn)                = -340.696608934371795
    Reference energy    (file100)            = -340.696608934372250
    CCSD energy         (file100)            =   -0.111705253318742
    Total CCSD energy   (file100)            = -340.808314187690996

    Number of ijk index combinations:
    Spin Case AAA:                                   4
    Spin Case BBB:                                   0
    Spin Case AAB:                                  12
    Spin Case ABB:                                   4
    AAA (T) energy                             =   -0.000164065508046
    BBB (T) energy                             =    0.000000000000000
    AAB (T) energy                             =   -0.002596414955761
    ABB (T) energy                             =   -0.000863312531535
    (T) energy                                   =   -0.003623792995342
      * CCSD(T) total energy                     = -340.811937980686309


    Psi4 stopped on: Tuesday, 26 January 2021 06:13PM
    Psi4 wall time for execution: 0:00:06.06

*** Psi4 exiting successfully. Buy a developer a beer!
