
    -----------------------------------------------------------------------
          Psi4: An Open-Source Ab Initio Electronic Structure Package
                               Psi4 1.4a3.dev88 

                         Git: Rev {master} 262e345 


    D. G. A. Smith, L. A. Burns, A. C. Simmonett, R. M. Parrish,
    M. C. Schieber, R. Galvelis, P. Kraus, H. Kruse, R. Di Remigio,
    A. Alenaizan, A. M. James, S. Lehtola, J. P. Misiewicz, M. Scheurer,
    R. A. Shaw, J. B. Schriber, Y. Xie, Z. L. Glick, D. A. Sirianni,
    J. S. O'Brien, J. M. Waldrop, A. Kumar, E. G. Hohenstein,
    B. P. Pritchard, B. R. Brooks, H. F. Schaefer III, A. Yu. Sokolov,
    K. Patkowski, A. E. DePrince III, U. Bozkaya, R. A. King,
    F. A. Evangelista, J. M. Turney, T. D. Crawford, C. D. Sherrill,
    J. Chem. Phys. 152(18) 184108 (2020). https://doi.org/10.1063/5.0006002

                            Additional Code Authors
    E. T. Seidl, C. L. Janssen, E. F. Valeev, M. L. Leininger,
    J. F. Gonthier, R. M. Richard, H. R. McAlexander, M. Saitow, X. Wang,
    P. Verma, and M. H. Lechner

             Previous Authors, Complete List of Code Contributors,
                       and Citations for Specific Modules
    https://github.com/psi4/psi4/blob/master/codemeta.json
    https://github.com/psi4/psi4/graphs/contributors
    http://psicode.org/psi4manual/master/introduction.html#citing-psifour

    -----------------------------------------------------------------------


    Psi4 started on: Wednesday, 20 January 2021 09:52PM

    Process ID: 144017
    Host:       n412-041.vsc4.prov
    PSIDATADIR: /home/fs71337/gallo4/psi4/psi4/build/stage/share/psi4
    Memory:     500.0 MiB
    Threads:    48
    
  ==> Input File <==

--------------------------------------------------------------------------
# Any line starting with the # character is a comment line
memory 250000 mb
molecule molecule{
-1 3
P          0.0000000000        0.0000000000        0.0000000000
}

set {
  reference uhf
  basis aug-cc-pv(5+d)z
  scf_type OUT_OF_CORE
  freeze_core true
}

energy('ccsd(t)')
--------------------------------------------------------------------------

  Memory set to 232.831 GiB by Python driver.

Scratch directory: /binfl/lv71337/airmler/temp/

*** tstart() called on n412-041.vsc4.prov
*** at Wed Jan 20 21:52:27 2021

   => Loading Basis Set <=

    Name: AUG-CC-PV(5+D)Z
    Role: ORBITAL
    Keyword: BASIS
    atoms 1 entry P          line  1330 file /home/fs71337/gallo4/psi4/psi4/build/stage/share/psi4/basis/aug-cc-pv_5pd_z.gbs 


         ---------------------------------------------------------
                                   SCF
               by Justin Turney, Rob Parrish, Andy Simmonett
                          and Daniel G. A. Smith
                              UHF Reference
                       48 Threads, 238418 MiB Core
         ---------------------------------------------------------

  ==> Geometry <==

    Molecular point group: d2h
    Geometry (in Angstrom), charge = -1, multiplicity = 3:

       Center              X                  Y                   Z               Mass       
    ------------   -----------------  -----------------  -----------------  -----------------
         P            0.000000000000     0.000000000000     0.000000000000    30.973761998420

  Running in d2h symmetry.

  Rotational constants: A = ************  B = ************  C = ************ [cm^-1]
  Rotational constants: A = ************  B = ************  C = ************ [MHz]
  Nuclear repulsion =    0.000000000000000

  Charge       = -1
  Multiplicity = 3
  Electrons    = 16
  Nalpha       = 9
  Nbeta        = 7

  ==> Algorithm <==

  SCF Algorithm Type is OUT_OF_CORE.
  DIIS enabled.
  MOM disabled.
  Fractional occupation disabled.
  Guess Type is CORE.
  Energy threshold   = 1.00e-08
  Density threshold  = 1.00e-08
  Integral threshold = 1.00e-12

  ==> Primary Basis <==

  Basis Set: AUG-CC-PV(5+D)Z
    Blend: AUG-CC-PV(5+D)Z
    Number of shells: 30
    Number of basis function: 136
    Number of Cartesian functions: 192
    Spherical Harmonics?: true
    Max angular momentum: 5

  ==> Integral Setup <==

  ==> DiskJK: Disk-Based J/K Matrices <==

    J tasked:                  Yes
    K tasked:                  Yes
    wK tasked:                  No
    Memory [MiB]:           178813
    Schwarz Cutoff:          1E-12

  Minimum eigenvalue in the overlap matrix is 1.5018042402E-04.
  Reciprocal condition number of the overlap matrix is 3.4634166518E-05.
    Using symmetric orthogonalization.

  ==> Pre-Iterations <==

  SCF Guess: Core (One-Electron) Hamiltonian.

   -------------------------------------------------------
    Irrep   Nso     Nmo     Nalpha   Nbeta   Ndocc  Nsocc
   -------------------------------------------------------
     Ag        29      29       2       2       2       0
     B1g       12      12       0       0       0       0
     B2g       12      12       1       0       0       1
     B3g       12      12       0       0       0       0
     Au         8       8       0       0       0       0
     B1u       21      21       2       1       1       1
     B2u       21      21       2       2       2       0
     B3u       21      21       2       2       2       0
   -------------------------------------------------------
    Total     136     136       9       7       7       2
   -------------------------------------------------------

  ==> Iterations <==

                        Total Energy        Delta E     RMS |[F,P]|

    Occupation by irrep:
             Ag   B1g   B2g   B3g    Au   B1u   B2u   B3u 
    DOCC [     4,    0,    0,    0,    0,    1,    1,    1 ]
    SOCC [     0,    0,    0,    1,    0,    1,    0,    0 ]

   @UHF iter   1:  -295.69817018373027   -2.95698e+02   3.95917e-01 DIIS
    Occupation by irrep:
             Ag   B1g   B2g   B3g    Au   B1u   B2u   B3u 
    DOCC [     3,    0,    0,    0,    0,    1,    2,    1 ]
    SOCC [     0,    0,    0,    0,    0,    1,    0,    1 ]

   @UHF iter   2:  -275.89827246034037    1.97999e+01   1.71830e-01 DIIS
   @UHF iter   3:  -331.69399496046458   -5.57957e+01   1.42973e-01 DIIS
   @UHF iter   4:  -338.51197926678384   -6.81798e+00   5.76608e-02 DIIS
   @UHF iter   5:  -340.57867196726454   -2.06669e+00   9.91930e-03 DIIS
   @UHF iter   6:  -340.70515554122306   -1.26484e-01   8.29602e-04 DIIS
   @UHF iter   7:  -340.70695428711957   -1.79875e-03   2.39190e-04 DIIS
   @UHF iter   8:  -340.70724376386090   -2.89477e-04   6.57050e-05 DIIS
   @UHF iter   9:  -340.70727421957548   -3.04557e-05   1.85685e-05 DIIS
   @UHF iter  10:  -340.70727928138314   -5.06181e-06   1.28867e-05 DIIS
   @UHF iter  11:  -340.70728379209896   -4.51072e-06   6.93038e-06 DIIS
   @UHF iter  12:  -340.70728509351517   -1.30142e-06   1.78861e-06 DIIS
   @UHF iter  13:  -340.70728514995113   -5.64360e-08   5.52928e-07 DIIS
   @UHF iter  14:  -340.70728515507420   -5.12307e-09   2.34177e-07 DIIS
   @UHF iter  15:  -340.70728515615536   -1.08116e-09   3.04625e-08 DIIS
   @UHF iter  16:  -340.70728515617009   -1.47224e-11   4.76918e-09 DIIS
  Energy and wave function converged.


  ==> Post-Iterations <==

   @Spin Contamination Metric:   2.863720737E-02
   @S^2 Expected:                2.000000000E+00
   @S^2 Observed:                2.028637207E+00
   @S   Expected:                1.000000000E+00
   @S   Observed:                1.000000000E+00

    Orbital Energies [Eh]
    ---------------------

    Alpha Occupied:                                                       

       1Ag   -79.701679     2Ag    -7.241579     1B1u   -5.143101  
       1B3u   -5.143101     1B2u   -5.130394     3Ag    -0.530789  
       2B1u   -0.123707     2B3u   -0.123707     2B2u   -0.067078  

    Alpha Virtual:                                                        

       3B1u    0.192640     3B3u    0.192640     3B2u    0.201374  
       4Ag     0.213670     5Ag     0.308150     1B2g    0.308150  
       1B1g    0.316950     1B3g    0.316950     6Ag     0.320608  
       4B1u    0.501585     4B3u    0.501585     4B2u    0.525720  
       5B3u    0.543466     5B1u    0.543466     5B2u    0.552197  
       1Au     0.552197     7Ag     0.553937     6B1u    0.558309  
       6B3u    0.558309     6B2u    0.561057     8Ag     0.601676  
       2B2g    0.601676     2B3g    0.626886     2B1g    0.626886  
       9Ag     0.637132     3B2g    1.104971    10Ag     1.104971  
       3B1g    1.115846     3B3g    1.115846    11Ag     1.123804  
       4B2g    1.123804     4B3g    1.128747     4B1g    1.128747  
      12Ag     1.130430     7B3u    1.197821     7B1u    1.197821  
      13Ag     1.205884     5B2g    1.205884     7B2u    1.215655  
       2Au     1.215655     8B1u    1.226212     8B3u    1.226212  
       8B2u    1.229924     5B3g    1.232236     5B1g    1.232236  
      14Ag     1.242157     9B1u    1.349622     9B3u    1.349622  
       9B2u    1.385127    15Ag     1.578113    10B3u    2.389408  
      10B1u    2.389408     3Au     2.402209    10B2u    2.402209  
      11B1u    2.412189    11B3u    2.412189     4Au     2.419609  
      11B2u    2.419609    12B3u    2.424106    12B1u    2.424106  
      13B3u    2.424481    13B1u    2.424481    12B2u    2.425614  
      13B2u    2.446685     5Au     2.446685    14B1u    2.460407  
      14B3u    2.460407    14B2u    2.465060     6B2g    2.558311  
      16Ag     2.558311    17Ag     2.563400     7B2g    2.563400  
       6B3g    2.575704     6B1g    2.575704     7B1g    2.581015  
       7B3g    2.581015    18Ag     2.585991    19Ag     2.591072  
       8B2g    2.591072     8B1g    2.605065     8B3g    2.605065  
      20Ag     2.611487    15B1u    3.891166    15B3u    3.891166  
      15B2u    3.922456    16B3u    4.847753    16B1u    4.847753  
      16B2u    4.867025     6Au     4.867025    17B3u    4.878915  
      17B1u    4.878915    17B2u    4.882941    21Ag     5.028461  
      22Ag     5.159614     9B2g    5.159614     9B1g    5.179955  
       9B3g    5.179955    23Ag     5.189369    18B3u    5.456485  
      18B1u    5.456485     7Au     5.471942    18B2u    5.471942  
      19B1u    5.484207    19B3u    5.484207     8Au     5.493102  
      19B2u    5.493102    20B3u    5.498495    20B1u    5.498495  
      20B2u    5.500302    10B2g    5.545116    24Ag     5.545116  
      10B3g    5.562524    10B1g    5.562524    11B2g    5.575382  
      25Ag     5.575382    11B1g    5.583292    11B3g    5.583292  
      26Ag     5.585965    12B2g   13.389513    27Ag    13.389513  
      12B1g   13.401891    12B3g   13.401891    28Ag    13.406133  
      21B1u   16.893461    21B3u   16.893461    21B2u   16.910283  
      29Ag    45.041635  

    Beta Occupied:                                                        

       1Ag   -79.688517     2Ag    -7.228317     1B2u   -5.120416  
       1B3u   -5.110373     1B1u   -5.110373     3Ag    -0.351373  
       2B2u   -0.024781  

    Beta Virtual:                                                         

       2B1u    0.180654     2B3u    0.180654     3B2u    0.205754  
       4Ag     0.219825     3B3u    0.290552     3B1u    0.290552  
       5Ag     0.322431     1B3g    0.322679     1B1g    0.322679  
       1B2g    0.323733     6Ag     0.323733     4B2u    0.538349  
       4B3u    0.553996     4B1u    0.553996     1Au     0.558299  
       5B2u    0.558299     5B1u    0.558307     5B3u    0.558307  
       6B2u    0.562676     6B3u    0.569080     6B1u    0.569080  
       7Ag     0.581757     8Ag     0.671272     2B1g    0.674938  
       2B3g    0.674938     2B2g    0.688254     9Ag     0.688254  
       3B2g    1.120376    10Ag     1.120376     3B1g    1.127055  
       3B3g    1.127055     4B2g    1.131732    11Ag     1.131732  
       4B3g    1.134469     4B1g    1.134469    12Ag     1.135368  
       7B3u    1.239120     7B1u    1.239120     2Au     1.244087  
       7B2u    1.244087     8B3u    1.246652     8B1u    1.246652  
       8B2u    1.247440    13Ag     1.270866     5B1g    1.271638  
       5B3g    1.271638     5B2g    1.274386    14Ag     1.274386  
       9B2u    1.400678     9B3u    1.407285     9B1u    1.407285  
      15Ag     1.611881    10B3u    2.410946    10B1u    2.410946  
       3Au     2.419416    10B2u    2.419416    11B1u    2.426078  
      11B3u    2.426078     4Au     2.430875    11B2u    2.430875  
      12B3u    2.433768    12B1u    2.433768    12B2u    2.434735  
      13B3u    2.475448    13B1u    2.475448     5Au     2.482545  
      13B2u    2.482545    14B3u    2.486738    14B1u    2.486738  
      14B2u    2.488123     6B2g    2.594973    16Ag     2.594973  
       7B2g    2.595747    17Ag     2.595747     6B1g    2.603303  
       6B3g    2.603303     7B3g    2.603760     7B1g    2.603760  
      18Ag     2.605398     8B2g    2.611890    19Ag     2.611890  
       8B1g    2.618858     8B3g    2.618858    20Ag     2.621656  
      15B3u    3.929559    15B1u    3.929559    15B2u    3.934127  
      16B3u    4.877587    16B1u    4.877587     6Au     4.888054  
      16B2u    4.888054    17B3u    4.894453    17B1u    4.894453  
      17B2u    4.896605    21Ag     5.051630     9B2g    5.179419  
      22Ag     5.179419     9B1g    5.192010     9B3g    5.192010  
      23Ag     5.197168    18B1u    5.486308    18B3u    5.486308  
       7Au     5.496143    18B2u    5.496143    19B1u    5.503914  
      19B3u    5.503914     8Au     5.509529    19B2u    5.509529  
      20B3u    5.512924    20B1u    5.512924    20B2u    5.514060  
      10B2g    5.577987    24Ag     5.577987    10B3g    5.587873  
      10B1g    5.587873    11B2g    5.595093    25Ag     5.595093  
      11B1g    5.599493    11B3g    5.599493    26Ag     5.600971  
      12B2g   13.406280    27Ag    13.406280    12B1g   13.412368  
      12B3g   13.412368    28Ag    13.414469    21B3u   16.917268  
      21B1u   16.917268    21B2u   16.917930    29Ag    45.051962  

    Final Occupation by Irrep:
             Ag   B1g   B2g   B3g    Au   B1u   B2u   B3u 
    DOCC [     3,    0,    0,    0,    0,    1,    2,    1 ]
    SOCC [     0,    0,    0,    0,    0,    1,    0,    1 ]

  @UHF Final Energy:  -340.70728515617009

   => Energetics <=

    Nuclear Repulsion Energy =              0.0000000000000000
    One-Electron Energy =                -475.5752853820083601
    Two-Electron Energy =                 134.8680002258382444
    Total Energy =                       -340.7072851561700872

  UHF NO Occupations:
  HONO-2 :    2B2u 1.9915132
  HONO-1 :    2B1u 1.0000000
  HONO-0 :    2B3u 1.0000000
  LUNO+0 :    3B2u 0.0084868
  LUNO+1 :    4 Ag 0.0058767
  LUNO+2 :    3B1u 0.0000038
  LUNO+3 :    3B3u 0.0000038


Computation Completed


Properties will be evaluated at   0.000000,   0.000000,   0.000000 [a0]

Properties computed using the SCF density matrix

  Nuclear Dipole Moment: [e a0]
     X:     0.0000      Y:     0.0000      Z:     0.0000

  Electronic Dipole Moment: [e a0]
     X:     0.0000      Y:     0.0000      Z:     0.0000

  Dipole Moment: [e a0]
     X:     0.0000      Y:     0.0000      Z:     0.0000     Total:     0.0000

  Dipole Moment: [D]
     X:     0.0000      Y:     0.0000      Z:     0.0000     Total:     0.0000


*** tstop() called on n412-041.vsc4.prov at Wed Jan 20 21:52:54 2021
Module time:
	user time   =      41.62 seconds =       0.69 minutes
	system time =       3.21 seconds =       0.05 minutes
	total time  =         27 seconds =       0.45 minutes
Total time:
	user time   =      41.62 seconds =       0.69 minutes
	system time =       3.21 seconds =       0.05 minutes
	total time  =         27 seconds =       0.45 minutes

*** tstart() called on n412-041.vsc4.prov
*** at Wed Jan 20 21:52:54 2021


	Wfn Parameters:
	--------------------
	Wavefunction         = CCSD_T
	Number of irreps     = 8
	Number of MOs        = 136
	Number of active MOs = 131
	AO-Basis             = NONE
	Semicanonical        = false
	Reference            = UHF
	Print Level          = 1

	IRREP	# MOs	# FZDC	# DOCC	# SOCC	# VIRT	# FZVR
	-----	-----	------	------	------	------	------
	 Ag	   29	    2	    1	    0	    26	    0
	 B1g	   12	    0	    0	    0	    12	    0
	 B2g	   12	    0	    0	    0	    12	    0
	 B3g	   12	    0	    0	    0	    12	    0
	 Au	   8	    0	    0	    0	    8	    0
	 B1u	   21	    1	    0	    1	    19	    0
	 B2u	   21	    1	    1	    0	    19	    0
	 B3u	   21	    1	    0	    1	    19	    0
	Transforming integrals...
	IWL integrals will be deleted.
	(OO|OO)...
	Presorting SO-basis two-electron integrals.
	Sorting File: SO Ints (nn|nn) nbuckets = 1
	Constructing frozen core operators
	Starting AA/AB first half-transformation.
	Sorting AA/AB half-transformed integrals.
	Starting BB first half-transformation.
	Sorting BB half-transformed integrals.
	First half integral transformation complete.
	Starting AA second half-transformation.
	Starting AB second half-transformation.
	Starting BB second half-transformation.
	Two-electron integral transformation complete.
	(OO|OV)...
	Starting AA second half-transformation.
	Starting AB second half-transformation.
	Starting BB second half-transformation.
	Two-electron integral transformation complete.
	(OO|VV)...
	Starting AA second half-transformation.
	Starting AB second half-transformation.
	Starting BB second half-transformation.
	Two-electron integral transformation complete.
	(OV|OO)...
	Starting AA/AB first half-transformation.
	Sorting AA/AB half-transformed integrals.
	Starting BB first half-transformation.
	Sorting BB half-transformed integrals.
	First half integral transformation complete.
	Starting AA second half-transformation.
	Starting AB second half-transformation.
	Starting BB second half-transformation.
	Two-electron integral transformation complete.
	(OV|OV)...
	Starting AA second half-transformation.
	Starting AB second half-transformation.
	Starting BB second half-transformation.
	Two-electron integral transformation complete.
	(OV|VV)...
	Starting AA second half-transformation.
	Starting AB second half-transformation.
	Starting BB second half-transformation.
	Two-electron integral transformation complete.
	(VV|OO)...
	Starting AA/AB first half-transformation.
	Sorting AA/AB half-transformed integrals.
	Starting BB first half-transformation.
	Sorting BB half-transformed integrals.
	First half integral transformation complete.
	Starting AA second half-transformation.
	Starting AB second half-transformation.
	Starting BB second half-transformation.
	Two-electron integral transformation complete.
	(VV|OV)...
	Starting AA second half-transformation.
	Starting AB second half-transformation.
	Starting BB second half-transformation.
	Two-electron integral transformation complete.
	(VV|VV)...
	Starting AA second half-transformation.
	Starting AB second half-transformation.
	Starting BB second half-transformation.
	Two-electron integral transformation complete.
	Frozen core energy     =   -334.36266962139683

	Size of irrep 0 of <AB|CD> integrals:      1.132 (MW) /      9.057 (MB)
	Size of irrep 1 of <AB|CD> integrals:      0.939 (MW) /      7.512 (MB)
	Size of irrep 2 of <AB|CD> integrals:      0.939 (MW) /      7.512 (MB)
	Size of irrep 3 of <AB|CD> integrals:      0.939 (MW) /      7.512 (MB)
	Size of irrep 4 of <AB|CD> integrals:      0.796 (MW) /      6.365 (MB)
	Size of irrep 5 of <AB|CD> integrals:      1.094 (MW) /      8.753 (MB)
	Size of irrep 6 of <AB|CD> integrals:      1.094 (MW) /      8.753 (MB)
	Size of irrep 7 of <AB|CD> integrals:      1.094 (MW) /      8.753 (MB)
	Total:                                     8.027 (MW) /     64.216 (MB)

	Size of irrep 0 of <ab|cd> integrals:      1.214 (MW) /      9.715 (MB)
	Size of irrep 1 of <ab|cd> integrals:      0.992 (MW) /      7.936 (MB)
	Size of irrep 2 of <ab|cd> integrals:      1.016 (MW) /      8.129 (MB)
	Size of irrep 3 of <ab|cd> integrals:      0.992 (MW) /      7.936 (MB)
	Size of irrep 4 of <ab|cd> integrals:      0.839 (MW) /      6.712 (MB)
	Size of irrep 5 of <ab|cd> integrals:      1.175 (MW) /      9.400 (MB)
	Size of irrep 6 of <ab|cd> integrals:      1.145 (MW) /      9.159 (MB)
	Size of irrep 7 of <ab|cd> integrals:      1.175 (MW) /      9.400 (MB)
	Total:                                     8.549 (MW) /     68.389 (MB)

	Size of irrep 0 of <Ab|Cd> integrals:      5.258 (MW) /     42.063 (MB)
	Size of irrep 1 of <Ab|Cd> integrals:      3.861 (MW) /     30.890 (MB)
	Size of irrep 2 of <Ab|Cd> integrals:      3.905 (MW) /     31.237 (MB)
	Size of irrep 3 of <Ab|Cd> integrals:      3.861 (MW) /     30.890 (MB)
	Size of irrep 4 of <Ab|Cd> integrals:      3.269 (MW) /     26.151 (MB)
	Size of irrep 5 of <Ab|Cd> integrals:      4.537 (MW) /     36.295 (MB)
	Size of irrep 6 of <Ab|Cd> integrals:      4.477 (MW) /     35.820 (MB)
	Size of irrep 7 of <Ab|Cd> integrals:      4.537 (MW) /     36.295 (MB)
	Total:                                    33.705 (MW) /    269.640 (MB)

	Size of irrep 0 of <IA|BC> integrals:      0.187 (MW) /      1.497 (MB)
	Size of irrep 1 of <IA|BC> integrals:      0.112 (MW) /      0.899 (MB)
	Size of irrep 2 of <IA|BC> integrals:      0.112 (MW) /      0.899 (MB)
	Size of irrep 3 of <IA|BC> integrals:      0.112 (MW) /      0.899 (MB)
	Size of irrep 4 of <IA|BC> integrals:      0.078 (MW) /      0.628 (MB)
	Size of irrep 5 of <IA|BC> integrals:      0.144 (MW) /      1.155 (MB)
	Size of irrep 6 of <IA|BC> integrals:      0.144 (MW) /      1.155 (MB)
	Size of irrep 7 of <IA|BC> integrals:      0.144 (MW) /      1.155 (MB)
	Total:                                     1.036 (MW) /      8.287 (MB)

	Size of irrep 0 of <ia|bc> integrals:      0.105 (MW) /      0.840 (MB)
	Size of irrep 1 of <ia|bc> integrals:      0.064 (MW) /      0.510 (MB)
	Size of irrep 2 of <ia|bc> integrals:      0.040 (MW) /      0.323 (MB)
	Size of irrep 3 of <ia|bc> integrals:      0.064 (MW) /      0.510 (MB)
	Size of irrep 4 of <ia|bc> integrals:      0.037 (MW) /      0.293 (MB)
	Size of irrep 5 of <ia|bc> integrals:      0.069 (MW) /      0.555 (MB)
	Size of irrep 6 of <ia|bc> integrals:      0.096 (MW) /      0.770 (MB)
	Size of irrep 7 of <ia|bc> integrals:      0.069 (MW) /      0.555 (MB)
	Total:                                     0.544 (MW) /      4.356 (MB)

	Size of irrep 0 of <Ia|Bc> integrals:      0.195 (MW) /      1.559 (MB)
	Size of irrep 1 of <Ia|Bc> integrals:      0.116 (MW) /      0.927 (MB)
	Size of irrep 2 of <Ia|Bc> integrals:      0.119 (MW) /      0.948 (MB)
	Size of irrep 3 of <Ia|Bc> integrals:      0.116 (MW) /      0.927 (MB)
	Size of irrep 4 of <Ia|Bc> integrals:      0.080 (MW) /      0.636 (MB)
	Size of irrep 5 of <Ia|Bc> integrals:      0.149 (MW) /      1.193 (MB)
	Size of irrep 6 of <Ia|Bc> integrals:      0.146 (MW) /      1.168 (MB)
	Size of irrep 7 of <Ia|Bc> integrals:      0.149 (MW) /      1.193 (MB)
	Total:                                     1.069 (MW) /      8.553 (MB)

	Size of irrep 0 of <iA|bC> integrals:      0.103 (MW) /      0.825 (MB)
	Size of irrep 1 of <iA|bC> integrals:      0.061 (MW) /      0.487 (MB)
	Size of irrep 2 of <iA|bC> integrals:      0.040 (MW) /      0.316 (MB)
	Size of irrep 3 of <iA|bC> integrals:      0.061 (MW) /      0.487 (MB)
	Size of irrep 4 of <iA|bC> integrals:      0.036 (MW) /      0.289 (MB)
	Size of irrep 5 of <iA|bC> integrals:      0.066 (MW) /      0.528 (MB)
	Size of irrep 6 of <iA|bC> integrals:      0.095 (MW) /      0.762 (MB)
	Size of irrep 7 of <iA|bC> integrals:      0.066 (MW) /      0.528 (MB)
	Total:                                     0.528 (MW) /      4.224 (MB)

	Size of irrep 0 of tIjAb amplitudes:       0.005 (MW) /      0.037 (MB)
	Size of irrep 1 of tIjAb amplitudes:       0.002 (MW) /      0.016 (MB)
	Size of irrep 2 of tIjAb amplitudes:       0.000 (MW) /      0.000 (MB)
	Size of irrep 3 of tIjAb amplitudes:       0.002 (MW) /      0.016 (MB)
	Size of irrep 4 of tIjAb amplitudes:       0.000 (MW) /      0.000 (MB)
	Size of irrep 5 of tIjAb amplitudes:       0.002 (MW) /      0.017 (MB)
	Size of irrep 6 of tIjAb amplitudes:       0.004 (MW) /      0.034 (MB)
	Size of irrep 7 of tIjAb amplitudes:       0.002 (MW) /      0.017 (MB)
	Total:                                     0.017 (MW) /      0.136 (MB)

	Nuclear Rep. energy          =      0.00000000000000
	SCF energy                   =   -340.70728515617009
	One-electron energy          =    -11.46779654042182
	Two-electron (AA) energy     =      1.88335502495289
	Two-electron (BB) energy     =      0.28350654281493
	Two-electron (AB) energy     =      2.95631943788140
	Two-electron energy          =      5.12318100564922
	Reference energy             =   -340.70728515616941

*** tstop() called on n412-041.vsc4.prov at Wed Jan 20 21:53:16 2021
Module time:
	user time   =       3.69 seconds =       0.06 minutes
	system time =       3.89 seconds =       0.06 minutes
	total time  =         22 seconds =       0.37 minutes
Total time:
	user time   =      45.32 seconds =       0.76 minutes
	system time =       7.10 seconds =       0.12 minutes
	total time  =         49 seconds =       0.82 minutes
            **************************
            *                        *
            *        CCENERGY        *
            *                        *
            **************************

    Nuclear Rep. energy (wfn)     =    0.000000000000000
    SCF energy          (wfn)     = -340.707285156170087
    Reference energy    (file100) = -340.707285156169405

    Input parameters:
    -----------------
    Wave function   =     CCSD_T
    Reference wfn   =     UHF
    Brueckner       =     No
    Memory (Mbytes) =     250000.0
    Maxiter         =     50
    R_Convergence   =     1.0e-07
    E_Convergence   =     1.0e-06
    Restart         =     Yes
    DIIS            =     Yes
    AO Basis        =     NONE
    ABCD            =     NEW
    Cache Level     =     2
    Cache Type      =     LRU
    Print Level     =     1
    Num. of threads =     48
    # Amps to Print =     10
    Print MP2 Amps? =     No
    Analyze T2 Amps =     No
    Print Pair Ener =     No
    Local CC        =     No
    SCS-MP2         =     False
    SCSN-MP2        =     False
    SCS-CCSD        =     False

MP2 correlation energy -0.1251110458603215
                Solving CC Amplitude Equations
                ------------------------------
  Iter             Energy              RMS        T1Diag      D1Diag    New D1Diag    D2Diag
  ----     ---------------------    ---------   ----------  ----------  ----------   --------
     0        -0.125111045860321    0.000e+00    0.000000    0.000000    0.000000    0.000000
     1        -0.136275712554676    5.131e-02    0.011592    0.000000    0.000000    0.000000
     2        -0.141224798521530    1.952e-02    0.017120    0.000000    0.000000    0.000000
     3        -0.141665425132495    7.399e-03    0.019757    0.000000    0.000000    0.000000
     4        -0.141712751589981    3.747e-03    0.021327    0.000000    0.000000    0.000000
     5        -0.141696892598698    1.786e-03    0.021928    0.000000    0.000000    0.000000
     6        -0.141695940092224    8.008e-04    0.022206    0.000000    0.000000    0.000000
     7        -0.141701050434721    2.979e-04    0.022218    0.000000    0.000000    0.000000
     8        -0.141702313659653    1.381e-04    0.022216    0.000000    0.000000    0.000000
     9        -0.141701301575753    5.846e-05    0.022210    0.000000    0.000000    0.000000
    10        -0.141701480742941    2.288e-05    0.022204    0.000000    0.000000    0.000000
    11        -0.141701646009625    7.905e-06    0.022204    0.000000    0.000000    0.000000
    12        -0.141701800797491    2.956e-06    0.022203    0.000000    0.000000    0.000000
    13        -0.141701812394016    1.216e-06    0.022203    0.000000    0.000000    0.000000
    14        -0.141701805649603    5.324e-07    0.022203    0.000000    0.000000    0.000000
    15        -0.141701797323246    2.370e-07    0.022203    0.000000    0.000000    0.000000
    16        -0.141701796489852    7.015e-08    0.022203    0.000000    0.000000    0.000000

    Iterations converged.


    Largest TIA Amplitudes:
              3 108        -0.0154224894
              1  70        -0.0154224857
              0   5         0.0080085254
              0   3        -0.0067321467
              2  90         0.0065978218
              2  89         0.0056464025
              2  95        -0.0049689428
              0   2        -0.0047021591
              0  10        -0.0037877465
              0  11         0.0037328728

    Largest Tia Amplitudes:
              0   4         0.0254788946
              1  90        -0.0232886946
              0   1         0.0182027030
              1  91         0.0146615423
              0   9         0.0099264466
              0   0        -0.0093641358
              1  93         0.0090548449
              0   3         0.0074461171
              1  96        -0.0068296929
              1  95         0.0048080417

    Largest TIJAB Amplitudes:
      3   1  39   4        -0.0316777308
      3   2  27   5        -0.0286225528
      2   1  51   5         0.0286225515
      3   1 109  71        -0.0188804055
      3   2 109  90         0.0186287107
      2   1  90  71         0.0186287049
      3   1  39   1        -0.0177346147
      3   1  38   4        -0.0177346146
      3   1  51  27         0.0177200058
      2   1  51   2        -0.0160974773

    Largest Tijab Amplitudes:
      1   0 110  27        -0.0153099167
      1   0  71  51        -0.0153099155
      1   0 110  26        -0.0103627554
      1   0  71  50        -0.0103627550
      1   0  91   3        -0.0103145276
      1   0  74  51         0.0100781524
      1   0 113  27         0.0100781498
      1   0  90   3         0.0091149465
      1   0  90   0        -0.0076706818
      1   0  91   4        -0.0074768053

    Largest TIjAb Amplitudes:
      2   1   5   4        -0.0420885781
      1   0  39 110        -0.0394649495
      1   0   4  71        -0.0394649469
      3   0   4 110         0.0394649468
      3   0  39  71        -0.0394649441
      2   0  27 110         0.0372500010
      2   0  51  71         0.0372499971
      2   1  90  91        -0.0370587801
      2   1  90  90         0.0335812332
      2   1  89  90        -0.0334460813

    SCF energy       (wfn)                    = -340.707285156170087
    Reference energy (file100)                = -340.707285156169405

    Opposite-spin MP2 correlation energy      =   -0.097172666275236
    Same-spin MP2 correlation energy          =   -0.027938379585086
    Singles MP2 correlation energy            =   -0.000000000000000
    MP2 correlation energy                    =   -0.125111045860321
      * MP2 total energy                      = -340.832396202029713

    Opposite-spin CCSD correlation energy     =   -0.113292658310197
    Same-spin CCSD correlation energy         =   -0.028409138179654
    Singles CCSD correlation energy           =   -0.000000000000000
    CCSD correlation energy                   =   -0.141701796489852
      * CCSD total energy                     = -340.848986952659232

            **************************
            *                        *
            *        CCTRIPLES       *
            *                        *
            **************************


    Wave function   =    CCSD_T
    Reference wfn   =      UHF

    Nuclear Rep. energy (wfn)                =    0.000000000000000
    SCF energy          (wfn)                = -340.707285156170087
    Reference energy    (file100)            = -340.707285156169405
    CCSD energy         (file100)            =   -0.141701796489852
    Total CCSD energy   (file100)            = -340.848986952659232

    Number of ijk index combinations:
    Spin Case AAA:                                   4
    Spin Case BBB:                                   0
    Spin Case AAB:                                  12
    Spin Case ABB:                                   4
    AAA (T) energy                             =   -0.000410296672121
    BBB (T) energy                             =    0.000000000000000
    AAB (T) energy                             =   -0.005628432236213
    ABB (T) energy                             =   -0.001541486386376
    (T) energy                                   =   -0.007580215294710
      * CCSD(T) total energy                     = -340.856567167953983


    Psi4 stopped on: Wednesday, 20 January 2021 09:53PM
    Psi4 wall time for execution: 0:01:11.52

*** Psi4 exiting successfully. Buy a developer a beer!
