
    -----------------------------------------------------------------------
          Psi4: An Open-Source Ab Initio Electronic Structure Package
                               Psi4 1.4a3.dev88 

                         Git: Rev {master} 262e345 


    D. G. A. Smith, L. A. Burns, A. C. Simmonett, R. M. Parrish,
    M. C. Schieber, R. Galvelis, P. Kraus, H. Kruse, R. Di Remigio,
    A. Alenaizan, A. M. James, S. Lehtola, J. P. Misiewicz, M. Scheurer,
    R. A. Shaw, J. B. Schriber, Y. Xie, Z. L. Glick, D. A. Sirianni,
    J. S. O'Brien, J. M. Waldrop, A. Kumar, E. G. Hohenstein,
    B. P. Pritchard, B. R. Brooks, H. F. Schaefer III, A. Yu. Sokolov,
    K. Patkowski, A. E. DePrince III, U. Bozkaya, R. A. King,
    F. A. Evangelista, J. M. Turney, T. D. Crawford, C. D. Sherrill,
    J. Chem. Phys. 152(18) 184108 (2020). https://doi.org/10.1063/5.0006002

                            Additional Code Authors
    E. T. Seidl, C. L. Janssen, E. F. Valeev, M. L. Leininger,
    J. F. Gonthier, R. M. Richard, H. R. McAlexander, M. Saitow, X. Wang,
    P. Verma, and M. H. Lechner

             Previous Authors, Complete List of Code Contributors,
                       and Citations for Specific Modules
    https://github.com/psi4/psi4/blob/master/codemeta.json
    https://github.com/psi4/psi4/graphs/contributors
    http://psicode.org/psi4manual/master/introduction.html#citing-psifour

    -----------------------------------------------------------------------


    Psi4 started on: Tuesday, 26 January 2021 06:02PM

    Process ID: 399434
    Host:       n412-040.vsc4.prov
    PSIDATADIR: /home/fs71337/gallo4/psi4/eri-6/psi4/build/stage/share/psi4
    Memory:     500.0 MiB
    Threads:    48
    
  ==> Input File <==

--------------------------------------------------------------------------
# Any line starting with the # character is a comment line
memory 250000 mb
molecule molecule{
-1 3
P          0.0000000000        0.0000000000        0.0000000000
}

set {
  reference uhf
  basis aug-cc-pV(t+d)Z
  scf_type OUT_OF_CORE
  freeze_core true
}

energy('ccsd(t)')
--------------------------------------------------------------------------

  Memory set to 232.831 GiB by Python driver.

Scratch directory: /binfl/lv71337/airmler/temp/

*** tstart() called on n412-040.vsc4.prov
*** at Tue Jan 26 18:02:52 2021

   => Loading Basis Set <=

    Name: AUG-CC-PV(T+D)Z
    Role: ORBITAL
    Keyword: BASIS
    atoms 1 entry P          line   860 file /home/fs71337/gallo4/psi4/eri-6/psi4/build/stage/share/psi4/basis/aug-cc-pv_tpd_z.gbs 


         ---------------------------------------------------------
                                   SCF
               by Justin Turney, Rob Parrish, Andy Simmonett
                          and Daniel G. A. Smith
                              UHF Reference
                       48 Threads, 238418 MiB Core
         ---------------------------------------------------------

  ==> Geometry <==

    Molecular point group: d2h
    Geometry (in Angstrom), charge = -1, multiplicity = 3:

       Center              X                  Y                   Z               Mass       
    ------------   -----------------  -----------------  -----------------  -----------------
         P            0.000000000000     0.000000000000     0.000000000000    30.973761998420

  Running in d2h symmetry.

  Rotational constants: A = ************  B = ************  C = ************ [cm^-1]
  Rotational constants: A = ************  B = ************  C = ************ [MHz]
  Nuclear repulsion =    0.000000000000000

  Charge       = -1
  Multiplicity = 3
  Electrons    = 16
  Nalpha       = 9
  Nbeta        = 7

  ==> Algorithm <==

  SCF Algorithm Type is OUT_OF_CORE.
  DIIS enabled.
  MOM disabled.
  Fractional occupation disabled.
  Guess Type is CORE.
  Energy threshold   = 1.00e-08
  Density threshold  = 1.00e-08
  Integral threshold = 1.00e-12

  ==> Primary Basis <==

  Basis Set: AUG-CC-PV(T+D)Z
    Blend: AUG-CC-PV(T+D)Z
    Number of shells: 17
    Number of basis function: 55
    Number of Cartesian functions: 65
    Spherical Harmonics?: true
    Max angular momentum: 3

  ==> Integral Setup <==

  ==> DiskJK: Disk-Based J/K Matrices <==

    J tasked:                  Yes
    K tasked:                  Yes
    wK tasked:                  No
    Memory [MiB]:           178813
    Schwarz Cutoff:          1E-12

  Minimum eigenvalue in the overlap matrix is 1.2437712170E-02.
  Reciprocal condition number of the overlap matrix is 4.4284730778E-03.
    Using symmetric orthogonalization.

  ==> Pre-Iterations <==

  SCF Guess: Core (One-Electron) Hamiltonian.

   -------------------------------------------------------
    Irrep   Nso     Nmo     Nalpha   Nbeta   Ndocc  Nsocc
   -------------------------------------------------------
     Ag        14      14       3       2       2       1
     B1g        4       4       1       1       1       0
     B2g        4       4       1       1       1       0
     B3g        4       4       1       0       0       1
     Au         2       2       0       0       0       0
     B1u        9       9       1       1       1       0
     B2u        9       9       1       1       1       0
     B3u        9       9       1       1       1       0
   -------------------------------------------------------
    Total      55      55       9       7       7       2
   -------------------------------------------------------

  ==> Iterations <==

                        Total Energy        Delta E     RMS |[F,P]|

    Occupation by irrep:
             Ag   B1g   B2g   B3g    Au   B1u   B2u   B3u 
    DOCC [     3,    0,    0,    0,    0,    1,    1,    2 ]
    SOCC [     0,    0,    0,    0,    0,    1,    1,    0 ]

   @UHF iter   1:  -303.65299397523444   -3.03653e+02   4.35375e-01 DIIS
   @UHF iter   2:  -315.88630156829771   -1.22333e+01   3.23872e-01 DIIS
   @UHF iter   3:  -340.17688957110613   -2.42906e+01   4.57012e-02 DIIS
   @UHF iter   4:  -340.70065911096975   -5.23770e-01   3.97702e-03 DIIS
   @UHF iter   5:  -340.70404162639704   -3.38252e-03   1.02946e-03 DIIS
   @UHF iter   6:  -340.70460013996387   -5.58514e-04   2.91407e-04 DIIS
   @UHF iter   7:  -340.70465588814238   -5.57482e-05   8.13931e-05 DIIS
   @UHF iter   8:  -340.70466575520305   -9.86706e-06   4.09930e-05 DIIS
   @UHF iter   9:  -340.70467173136473   -5.97616e-06   2.04715e-05 DIIS
   @UHF iter  10:  -340.70467403983628   -2.30847e-06   8.79877e-06 DIIS
   @UHF iter  11:  -340.70467439106210   -3.51226e-07   2.45098e-06 DIIS
   @UHF iter  12:  -340.70467440172411   -1.06620e-08   4.11049e-07 DIIS
   @UHF iter  13:  -340.70467440214236   -4.18254e-10   8.80003e-08 DIIS
   @UHF iter  14:  -340.70467440215248   -1.01181e-11   1.34290e-08 DIIS
   @UHF iter  15:  -340.70467440215282   -3.41061e-13   1.77269e-09 DIIS
  Energy and wave function converged.


  ==> Post-Iterations <==

   @Spin Contamination Metric:   2.477409944E-02
   @S^2 Expected:                2.000000000E+00
   @S^2 Observed:                2.024774099E+00
   @S   Expected:                1.000000000E+00
   @S   Observed:                1.000000000E+00

    Orbital Energies [Eh]
    ---------------------

    Alpha Occupied:                                                       

       1Ag   -79.700296     2Ag    -7.240693     1B1u   -5.141531  
       1B2u   -5.141531     1B3u   -5.128686     3Ag    -0.529198  
       2B1u   -0.122445     2B2u   -0.122445     2B3u   -0.065322  

    Alpha Virtual:                                                        

       3B1u    0.231586     3B2u    0.231586     3B3u    0.244501  
       4Ag     0.253351     5Ag     0.382961     1B3g    0.382961  
       1B1g    0.397521     1B2g    0.397521     6Ag     0.403324  
       4B1u    0.715684     4B2u    0.715684     4B3u    0.748742  
       2B3g    0.784648     7Ag     0.784648     2B2g    0.815155  
       2B1g    0.815155     8Ag     0.824324     9Ag     0.830552  
       5B2u    0.852538     5B1u    0.852538     5B3u    0.868246  
       1Au     0.868246     6B2u    0.878506     6B1u    0.878506  
       6B3u    0.882182     3B3g    1.830147    10Ag     1.830147  
       3B2g    1.855483     3B1g    1.855483    11Ag     1.864725  
       7B1u    2.107369     7B2u    2.107369     2Au     2.131294  
       7B3u    2.131294     8B1u    2.146122     8B2u    2.146122  
       8B3u    2.151169     9B1u    2.536839     9B2u    2.536839  
       9B3u    2.570459    12Ag     3.579810     4B3g    6.461560  
      13Ag     6.461560     4B1g    6.475668     4B2g    6.475668  
      14Ag     6.480511  

    Beta Occupied:                                                        

       1Ag   -79.688331     2Ag    -7.227452     1B3u   -5.119473  
       1B2u   -5.109880     1B1u   -5.109880     3Ag    -0.351228  
       2B3u   -0.025470  

    Beta Virtual:                                                         

       2B1u    0.204168     2B2u    0.204168     3B3u    0.251205  
       4Ag     0.265474     3B2u    0.325384     3B1u    0.325384  
       5Ag     0.413970     1B2g    0.415405     1B1g    0.415405  
       1B3g    0.421036     6Ag     0.421036     4B3u    0.765511  
       4B2u    0.789745     4B1u    0.789745     7Ag     0.865196  
       8Ag     0.870258     2B1g    0.873852     2B2g    0.873852  
       5B2u    0.886430     5B1u    0.886430     9Ag     0.889328  
       2B3g    0.889328     1Au     0.890650     5B3u    0.890650  
       6B1u    0.893192     6B2u    0.893192     6B3u    0.893934  
      10Ag     1.877513     3B3g    1.877513     3B1g    1.882669  
       3B2g    1.882669    11Ag     1.884302     7B1u    2.170668  
       7B2u    2.170668     7B3u    2.175508     2Au     2.175508  
       8B2u    2.178215     8B1u    2.178215     8B3u    2.179085  
       9B3u    2.584610     9B2u    2.589423     9B1u    2.589423  
      12Ag     3.606247    13Ag     6.476074     4B3g    6.476074  
       4B1g    6.484327     4B2g    6.484327    14Ag     6.487100  

    Final Occupation by Irrep:
             Ag   B1g   B2g   B3g    Au   B1u   B2u   B3u 
    DOCC [     3,    0,    0,    0,    0,    1,    1,    2 ]
    SOCC [     0,    0,    0,    0,    0,    1,    1,    0 ]

  @UHF Final Energy:  -340.70467440215282

   => Energetics <=

    Nuclear Repulsion Energy =              0.0000000000000000
    One-Electron Energy =                -475.5854888066128296
    Two-Electron Energy =                 134.8808144044600112
    Total Energy =                       -340.7046744021528184

  UHF NO Occupations:
  HONO-2 :    2B3u 1.9934852
  HONO-1 :    2B2u 1.0000000
  HONO-0 :    2B1u 1.0000000
  LUNO+0 :    3B3u 0.0065148
  LUNO+1 :    4 Ag 0.0059050
  LUNO+2 :    3B2u 0.0000027
  LUNO+3 :    3B1u 0.0000027


Computation Completed


Properties will be evaluated at   0.000000,   0.000000,   0.000000 [a0]

Properties computed using the SCF density matrix

  Nuclear Dipole Moment: [e a0]
     X:     0.0000      Y:     0.0000      Z:     0.0000

  Electronic Dipole Moment: [e a0]
     X:     0.0000      Y:     0.0000      Z:     0.0000

  Dipole Moment: [e a0]
     X:     0.0000      Y:     0.0000      Z:     0.0000     Total:     0.0000

  Dipole Moment: [D]
     X:     0.0000      Y:     0.0000      Z:     0.0000     Total:     0.0000


*** tstop() called on n412-040.vsc4.prov at Tue Jan 26 18:02:56 2021
Module time:
	user time   =      13.46 seconds =       0.22 minutes
	system time =       1.06 seconds =       0.02 minutes
	total time  =          4 seconds =       0.07 minutes
Total time:
	user time   =      13.46 seconds =       0.22 minutes
	system time =       1.06 seconds =       0.02 minutes
	total time  =          4 seconds =       0.07 minutes

*** tstart() called on n412-040.vsc4.prov
*** at Tue Jan 26 18:02:56 2021


	Wfn Parameters:
	--------------------
	Wavefunction         = CCSD_T
	Number of irreps     = 8
	Number of MOs        = 55
	Number of active MOs = 50
	AO-Basis             = NONE
	Semicanonical        = false
	Reference            = UHF
	Print Level          = 1

	IRREP	# MOs	# FZDC	# DOCC	# SOCC	# VIRT	# FZVR
	-----	-----	------	------	------	------	------
	 Ag	   14	    2	    1	    0	    11	    0
	 B1g	   4	    0	    0	    0	    4	    0
	 B2g	   4	    0	    0	    0	    4	    0
	 B3g	   4	    0	    0	    0	    4	    0
	 Au	   2	    0	    0	    0	    2	    0
	 B1u	   9	    1	    0	    1	    7	    0
	 B2u	   9	    1	    0	    1	    7	    0
	 B3u	   9	    1	    1	    0	    7	    0
	Transforming integrals...
	IWL integrals will be deleted.
	(OO|OO)...
	Presorting SO-basis two-electron integrals.
	Sorting File: SO Ints (nn|nn) nbuckets = 1
	Constructing frozen core operators
	Starting AA/AB first half-transformation.
	Sorting AA/AB half-transformed integrals.
	Starting BB first half-transformation.
	Sorting BB half-transformed integrals.
	First half integral transformation complete.
	Starting AA second half-transformation.
	Starting AB second half-transformation.
	Starting BB second half-transformation.
	Two-electron integral transformation complete.
	(OO|OV)...
	Starting AA second half-transformation.
	Starting AB second half-transformation.
	Starting BB second half-transformation.
	Two-electron integral transformation complete.
	(OO|VV)...
	Starting AA second half-transformation.
	Starting AB second half-transformation.
	Starting BB second half-transformation.
	Two-electron integral transformation complete.
	(OV|OO)...
	Starting AA/AB first half-transformation.
	Sorting AA/AB half-transformed integrals.
	Starting BB first half-transformation.
	Sorting BB half-transformed integrals.
	First half integral transformation complete.
	Starting AA second half-transformation.
	Starting AB second half-transformation.
	Starting BB second half-transformation.
	Two-electron integral transformation complete.
	(OV|OV)...
	Starting AA second half-transformation.
	Starting AB second half-transformation.
	Starting BB second half-transformation.
	Two-electron integral transformation complete.
	(OV|VV)...
	Starting AA second half-transformation.
	Starting AB second half-transformation.
	Starting BB second half-transformation.
	Two-electron integral transformation complete.
	(VV|OO)...
	Starting AA/AB first half-transformation.
	Sorting AA/AB half-transformed integrals.
	Starting BB first half-transformation.
	Sorting BB half-transformed integrals.
	First half integral transformation complete.
	Starting AA second half-transformation.
	Starting AB second half-transformation.
	Starting BB second half-transformation.
	Two-electron integral transformation complete.
	(VV|OV)...
	Starting AA second half-transformation.
	Starting AB second half-transformation.
	Starting BB second half-transformation.
	Two-electron integral transformation complete.
	(VV|VV)...
	Starting AA second half-transformation.
	Starting AB second half-transformation.
	Starting BB second half-transformation.
	Two-electron integral transformation complete.
	Frozen core energy     =   -334.36053162496285

	Size of irrep 0 of <AB|CD> integrals:      0.019 (MW) /      0.150 (MB)
	Size of irrep 1 of <AB|CD> integrals:      0.015 (MW) /      0.121 (MB)
	Size of irrep 2 of <AB|CD> integrals:      0.015 (MW) /      0.121 (MB)
	Size of irrep 3 of <AB|CD> integrals:      0.015 (MW) /      0.121 (MB)
	Size of irrep 4 of <AB|CD> integrals:      0.011 (MW) /      0.090 (MB)
	Size of irrep 5 of <AB|CD> integrals:      0.020 (MW) /      0.159 (MB)
	Size of irrep 6 of <AB|CD> integrals:      0.020 (MW) /      0.159 (MB)
	Size of irrep 7 of <AB|CD> integrals:      0.020 (MW) /      0.159 (MB)
	Total:                                     0.135 (MW) /      1.080 (MB)

	Size of irrep 0 of <ab|cd> integrals:      0.023 (MW) /      0.182 (MB)
	Size of irrep 1 of <ab|cd> integrals:      0.017 (MW) /      0.139 (MB)
	Size of irrep 2 of <ab|cd> integrals:      0.017 (MW) /      0.139 (MB)
	Size of irrep 3 of <ab|cd> integrals:      0.019 (MW) /      0.152 (MB)
	Size of irrep 4 of <ab|cd> integrals:      0.013 (MW) /      0.104 (MB)
	Size of irrep 5 of <ab|cd> integrals:      0.024 (MW) /      0.195 (MB)
	Size of irrep 6 of <ab|cd> integrals:      0.024 (MW) /      0.195 (MB)
	Size of irrep 7 of <ab|cd> integrals:      0.022 (MW) /      0.178 (MB)
	Total:                                     0.161 (MW) /      1.284 (MB)

	Size of irrep 0 of <Ab|Cd> integrals:      0.112 (MW) /      0.892 (MB)
	Size of irrep 1 of <Ab|Cd> integrals:      0.065 (MW) /      0.520 (MB)
	Size of irrep 2 of <Ab|Cd> integrals:      0.065 (MW) /      0.520 (MB)
	Size of irrep 3 of <Ab|Cd> integrals:      0.068 (MW) /      0.541 (MB)
	Size of irrep 4 of <Ab|Cd> integrals:      0.048 (MW) /      0.387 (MB)
	Size of irrep 5 of <Ab|Cd> integrals:      0.088 (MW) /      0.706 (MB)
	Size of irrep 6 of <Ab|Cd> integrals:      0.088 (MW) /      0.706 (MB)
	Size of irrep 7 of <Ab|Cd> integrals:      0.084 (MW) /      0.673 (MB)
	Total:                                     0.618 (MW) /      4.945 (MB)

	Size of irrep 0 of <IA|BC> integrals:      0.010 (MW) /      0.082 (MB)
	Size of irrep 1 of <IA|BC> integrals:      0.005 (MW) /      0.039 (MB)
	Size of irrep 2 of <IA|BC> integrals:      0.005 (MW) /      0.039 (MB)
	Size of irrep 3 of <IA|BC> integrals:      0.005 (MW) /      0.039 (MB)
	Size of irrep 4 of <IA|BC> integrals:      0.003 (MW) /      0.024 (MB)
	Size of irrep 5 of <IA|BC> integrals:      0.007 (MW) /      0.059 (MB)
	Size of irrep 6 of <IA|BC> integrals:      0.007 (MW) /      0.059 (MB)
	Size of irrep 7 of <IA|BC> integrals:      0.007 (MW) /      0.059 (MB)
	Total:                                     0.050 (MW) /      0.400 (MB)

	Size of irrep 0 of <ia|bc> integrals:      0.006 (MW) /      0.050 (MB)
	Size of irrep 1 of <ia|bc> integrals:      0.003 (MW) /      0.025 (MB)
	Size of irrep 2 of <ia|bc> integrals:      0.003 (MW) /      0.025 (MB)
	Size of irrep 3 of <ia|bc> integrals:      0.002 (MW) /      0.013 (MB)
	Size of irrep 4 of <ia|bc> integrals:      0.001 (MW) /      0.011 (MB)
	Size of irrep 5 of <ia|bc> integrals:      0.004 (MW) /      0.030 (MB)
	Size of irrep 6 of <ia|bc> integrals:      0.004 (MW) /      0.030 (MB)
	Size of irrep 7 of <ia|bc> integrals:      0.005 (MW) /      0.043 (MB)
	Total:                                     0.029 (MW) /      0.228 (MB)

	Size of irrep 0 of <Ia|Bc> integrals:      0.011 (MW) /      0.091 (MB)
	Size of irrep 1 of <Ia|Bc> integrals:      0.005 (MW) /      0.043 (MB)
	Size of irrep 2 of <Ia|Bc> integrals:      0.005 (MW) /      0.043 (MB)
	Size of irrep 3 of <Ia|Bc> integrals:      0.006 (MW) /      0.046 (MB)
	Size of irrep 4 of <Ia|Bc> integrals:      0.003 (MW) /      0.025 (MB)
	Size of irrep 5 of <Ia|Bc> integrals:      0.008 (MW) /      0.064 (MB)
	Size of irrep 6 of <Ia|Bc> integrals:      0.008 (MW) /      0.064 (MB)
	Size of irrep 7 of <Ia|Bc> integrals:      0.008 (MW) /      0.060 (MB)
	Total:                                     0.054 (MW) /      0.436 (MB)

	Size of irrep 0 of <iA|bC> integrals:      0.006 (MW) /      0.048 (MB)
	Size of irrep 1 of <iA|bC> integrals:      0.003 (MW) /      0.022 (MB)
	Size of irrep 2 of <iA|bC> integrals:      0.003 (MW) /      0.022 (MB)
	Size of irrep 3 of <iA|bC> integrals:      0.002 (MW) /      0.012 (MB)
	Size of irrep 4 of <iA|bC> integrals:      0.001 (MW) /      0.011 (MB)
	Size of irrep 5 of <iA|bC> integrals:      0.003 (MW) /      0.026 (MB)
	Size of irrep 6 of <iA|bC> integrals:      0.003 (MW) /      0.026 (MB)
	Size of irrep 7 of <iA|bC> integrals:      0.005 (MW) /      0.042 (MB)
	Total:                                     0.026 (MW) /      0.210 (MB)

	Size of irrep 0 of tIjAb amplitudes:       0.001 (MW) /      0.005 (MB)
	Size of irrep 1 of tIjAb amplitudes:       0.000 (MW) /      0.002 (MB)
	Size of irrep 2 of tIjAb amplitudes:       0.000 (MW) /      0.002 (MB)
	Size of irrep 3 of tIjAb amplitudes:       0.000 (MW) /      0.000 (MB)
	Size of irrep 4 of tIjAb amplitudes:       0.000 (MW) /      0.000 (MB)
	Size of irrep 5 of tIjAb amplitudes:       0.000 (MW) /      0.002 (MB)
	Size of irrep 6 of tIjAb amplitudes:       0.000 (MW) /      0.002 (MB)
	Size of irrep 7 of tIjAb amplitudes:       0.001 (MW) /      0.005 (MB)
	Total:                                     0.002 (MW) /      0.019 (MB)

	Nuclear Rep. energy          =      0.00000000000000
	SCF energy                   =   -340.70467440215282
	One-electron energy          =    -11.47217908307621
	Two-electron (AA) energy     =      1.88061972705050
	Two-electron (BB) energy     =      0.28509249030618
	Two-electron (AB) energy     =      2.96232408852988
	Two-electron energy          =      5.12803630588656
	Reference energy             =   -340.70467440215248

*** tstop() called on n412-040.vsc4.prov at Tue Jan 26 18:02:57 2021
Module time:
	user time   =       0.17 seconds =       0.00 minutes
	system time =       0.25 seconds =       0.00 minutes
	total time  =          1 seconds =       0.02 minutes
Total time:
	user time   =      13.63 seconds =       0.23 minutes
	system time =       1.31 seconds =       0.02 minutes
	total time  =          5 seconds =       0.08 minutes
            **************************
            *                        *
            *        CCENERGY        *
            *                        *
            **************************

    Nuclear Rep. energy (wfn)     =    0.000000000000000
    SCF energy          (wfn)     = -340.704674402152818
    Reference energy    (file100) = -340.704674402152477

    Input parameters:
    -----------------
    Wave function   =     CCSD_T
    Reference wfn   =     UHF
    Brueckner       =     No
    Memory (Mbytes) =     250000.0
    Maxiter         =     50
    R_Convergence   =     1.0e-07
    E_Convergence   =     1.0e-06
    Restart         =     Yes
    DIIS            =     Yes
    AO Basis        =     NONE
    ABCD            =     NEW
    Cache Level     =     2
    Cache Type      =     LRU
    Print Level     =     1
    Num. of threads =     48
    # Amps to Print =     10
    Print MP2 Amps? =     No
    Analyze T2 Amps =     No
    Print Pair Ener =     No
    Local CC        =     No
    SCS-MP2         =     False
    SCSN-MP2        =     False
    SCS-CCSD        =     False

MP2 correlation energy -0.1134227418676777
                Solving CC Amplitude Equations
                ------------------------------
  Iter             Energy              RMS        T1Diag      D1Diag    New D1Diag    D2Diag
  ----     ---------------------    ---------   ----------  ----------  ----------   --------
     0        -0.113422741867678    0.000e+00    0.000000    0.000000    0.000000    0.000000
     1        -0.128541135829513    5.280e-02    0.010239    0.000000    0.000000    0.000000
     2        -0.133654767505819    1.972e-02    0.016105    0.000000    0.000000    0.000000
     3        -0.134084341998129    6.578e-03    0.018517    0.000000    0.000000    0.000000
     4        -0.134098982903050    2.853e-03    0.019357    0.000000    0.000000    0.000000
     5        -0.134084934719883    1.442e-03    0.019709    0.000000    0.000000    0.000000
     6        -0.134092864825296    5.767e-04    0.019770    0.000000    0.000000    0.000000
     7        -0.134097413521893    2.142e-04    0.019755    0.000000    0.000000    0.000000
     8        -0.134096770717357    1.026e-04    0.019745    0.000000    0.000000    0.000000
     9        -0.134096747207663    3.111e-05    0.019741    0.000000    0.000000    0.000000
    10        -0.134096917273247    1.071e-05    0.019740    0.000000    0.000000    0.000000
    11        -0.134096896343368    3.160e-06    0.019740    0.000000    0.000000    0.000000
    12        -0.134096862245368    1.406e-06    0.019740    0.000000    0.000000    0.000000
    13        -0.134096836622742    5.539e-07    0.019739    0.000000    0.000000    0.000000
    14        -0.134096831832320    1.890e-07    0.019739    0.000000    0.000000    0.000000
    15        -0.134096832381388    6.397e-08    0.019739    0.000000    0.000000    0.000000

    Iterations converged.


    Largest TIA Amplitudes:
              1  25        -0.0169062611
              2  32        -0.0169062611
              0   4        -0.0096803138
              3  40        -0.0074505924
              0   2        -0.0064478756
              3  39        -0.0056335247
              0   0         0.0032562465
              3  42         0.0032046080
              3  45         0.0023271611
              2  38         0.0019631931

    Largest Tia Amplitudes:
              0   1        -0.0243930608
              0   4        -0.0225360132
              1  42        -0.0104473947
              1  41         0.0104202664
              0   0         0.0093708346
              1  44        -0.0071501491
              0   3         0.0038407517
              0   7         0.0032042148
              1  46        -0.0029143533
              1  47         0.0028157047

    Largest TIJAB Amplitudes:
      2   1  20   3        -0.0265754123
      2   1  19   1        -0.0250597139
      3   2  11   2         0.0224022749
      3   1  15   2         0.0224022749
      2   1  19   3        -0.0209698191
      2   1  20   1        -0.0209698191
      3   1  16   2         0.0192136203
      3   2  12   2         0.0192136202
      2   1  33  26        -0.0188533362
      3   2  39  32        -0.0180989960

    Largest Tijab Amplitudes:
      1   0  34  11        -0.0145273521
      1   0  26  15        -0.0145273520
      1   0  34  12        -0.0140408263
      1   0  26  16        -0.0140408263
      1   0  42   4        -0.0113194086
      1   0  41   0        -0.0112917803
      1   0  41   4         0.0110113387
      1   0  27  16         0.0082815301
      1   0  35  12         0.0082815301
      1   0  42   0         0.0071460651

    Largest TIjAb Amplitudes:
      3   1  39  41        -0.0482894829
      1   0   3  26         0.0385589975
      1   0  20  34         0.0385589975
      2   0  20  26         0.0385589974
      2   0   3  34        -0.0385589973
      3   0  12  34         0.0366501011
      3   0  16  26         0.0366501010
      3   1   2   1         0.0349981359
      3   1  40  42        -0.0347430947
      3   1  40  41         0.0339348635

    SCF energy       (wfn)                    = -340.704674402152818
    Reference energy (file100)                = -340.704674402152477

    Opposite-spin MP2 correlation energy      =   -0.086569532590064
    Same-spin MP2 correlation energy          =   -0.026853209277614
    Singles MP2 correlation energy            =   -0.000000000000000
    MP2 correlation energy                    =   -0.113422741867678
      * MP2 total energy                      = -340.818097144020157

    Opposite-spin CCSD correlation energy     =   -0.106543377671090
    Same-spin CCSD correlation energy         =   -0.027553454710299
    Singles CCSD correlation energy           =   -0.000000000000000
    CCSD correlation energy                   =   -0.134096832381388
      * CCSD total energy                     = -340.838771234533851

            **************************
            *                        *
            *        CCTRIPLES       *
            *                        *
            **************************


    Wave function   =    CCSD_T
    Reference wfn   =      UHF

    Nuclear Rep. energy (wfn)                =    0.000000000000000
    SCF energy          (wfn)                = -340.704674402152818
    Reference energy    (file100)            = -340.704674402152477
    CCSD energy         (file100)            =   -0.134096832381388
    Total CCSD energy   (file100)            = -340.838771234533851

    Number of ijk index combinations:
    Spin Case AAA:                                   4
    Spin Case BBB:                                   0
    Spin Case AAB:                                  12
    Spin Case ABB:                                   4
    AAA (T) energy                             =   -0.000361273608950
    BBB (T) energy                             =    0.000000000000000
    AAB (T) energy                             =   -0.004796067377674
    ABB (T) energy                             =   -0.001413380713338
    (T) energy                                   =   -0.006570721699963
      * CCSD(T) total energy                     = -340.845341956233824


    Psi4 stopped on: Tuesday, 26 January 2021 06:03PM
    Psi4 wall time for execution: 0:00:10.81

*** Psi4 exiting successfully. Buy a developer a beer!
