
    -----------------------------------------------------------------------
          Psi4: An Open-Source Ab Initio Electronic Structure Package
                               Psi4 1.4a3.dev88 

                         Git: Rev {master} 262e345 


    D. G. A. Smith, L. A. Burns, A. C. Simmonett, R. M. Parrish,
    M. C. Schieber, R. Galvelis, P. Kraus, H. Kruse, R. Di Remigio,
    A. Alenaizan, A. M. James, S. Lehtola, J. P. Misiewicz, M. Scheurer,
    R. A. Shaw, J. B. Schriber, Y. Xie, Z. L. Glick, D. A. Sirianni,
    J. S. O'Brien, J. M. Waldrop, A. Kumar, E. G. Hohenstein,
    B. P. Pritchard, B. R. Brooks, H. F. Schaefer III, A. Yu. Sokolov,
    K. Patkowski, A. E. DePrince III, U. Bozkaya, R. A. King,
    F. A. Evangelista, J. M. Turney, T. D. Crawford, C. D. Sherrill,
    J. Chem. Phys. 152(18) 184108 (2020). https://doi.org/10.1063/5.0006002

                            Additional Code Authors
    E. T. Seidl, C. L. Janssen, E. F. Valeev, M. L. Leininger,
    J. F. Gonthier, R. M. Richard, H. R. McAlexander, M. Saitow, X. Wang,
    P. Verma, and M. H. Lechner

             Previous Authors, Complete List of Code Contributors,
                       and Citations for Specific Modules
    https://github.com/psi4/psi4/blob/master/codemeta.json
    https://github.com/psi4/psi4/graphs/contributors
    http://psicode.org/psi4manual/master/introduction.html#citing-psifour

    -----------------------------------------------------------------------


    Psi4 started on: Friday, 22 January 2021 07:54AM

    Process ID: 68784
    Host:       n412-045.vsc4.prov
    PSIDATADIR: /home/fs71337/gallo4/psi4/psi4/build/stage/share/psi4
    Memory:     500.0 MiB
    Threads:    48
    
  ==> Input File <==

--------------------------------------------------------------------------
# Any line starting with the # character is a comment line
memory 250000 mb
molecule molecule{
1 2
S          0.0000000000        0.0000000000        0.9256314495
S          0.0000000000        0.0000000000       -0.9256314495
}

set {
  reference uhf
  basis aug-cc-pV(5+d)Z
  scf_type OUT_OF_CORE
  freeze_core true
}

energy('ccsd(t)')
--------------------------------------------------------------------------

  Memory set to 232.831 GiB by Python driver.

Scratch directory: /binfl/lv71337/airmler/temp/

*** tstart() called on n412-045.vsc4.prov
*** at Fri Jan 22 07:54:30 2021

   => Loading Basis Set <=

    Name: AUG-CC-PV(5+D)Z
    Role: ORBITAL
    Keyword: BASIS
    atoms 1-2 entry S          line  1451 file /home/fs71337/gallo4/psi4/psi4/build/stage/share/psi4/basis/aug-cc-pv_5pd_z.gbs 


         ---------------------------------------------------------
                                   SCF
               by Justin Turney, Rob Parrish, Andy Simmonett
                          and Daniel G. A. Smith
                              UHF Reference
                       48 Threads, 238418 MiB Core
         ---------------------------------------------------------

  ==> Geometry <==

    Molecular point group: d2h
    Full point group: D_inf_h

    Geometry (in Angstrom), charge = 1, multiplicity = 2:

       Center              X                  Y                   Z               Mass       
    ------------   -----------------  -----------------  -----------------  -----------------
         S            0.000000000000     0.000000000000     0.925631449500    31.972071174400
         S            0.000000000000     0.000000000000    -0.925631449500    31.972071174400

  Running in d2h symmetry.

  Rotational constants: A = ************  B =      0.30769  C =      0.30769 [cm^-1]
  Rotational constants: A = ************  B =   9224.44464  C =   9224.44464 [MHz]
  Nuclear repulsion =   73.176730330790278

  Charge       = 1
  Multiplicity = 2
  Electrons    = 31
  Nalpha       = 16
  Nbeta        = 15

  ==> Algorithm <==

  SCF Algorithm Type is OUT_OF_CORE.
  DIIS enabled.
  MOM disabled.
  Fractional occupation disabled.
  Guess Type is SAD.
  Energy threshold   = 1.00e-08
  Density threshold  = 1.00e-08
  Integral threshold = 1.00e-12

  ==> Primary Basis <==

  Basis Set: AUG-CC-PV(5+D)Z
    Blend: AUG-CC-PV(5+D)Z
    Number of shells: 60
    Number of basis function: 272
    Number of Cartesian functions: 384
    Spherical Harmonics?: true
    Max angular momentum: 5

  ==> Integral Setup <==

  ==> DiskJK: Disk-Based J/K Matrices <==

    J tasked:                  Yes
    K tasked:                  Yes
    wK tasked:                  No
    Memory [MiB]:           178813
    Schwarz Cutoff:          1E-12

  Minimum eigenvalue in the overlap matrix is 2.5017318896E-05.
  Reciprocal condition number of the overlap matrix is 3.8912982971E-06.
    Using symmetric orthogonalization.

  ==> Pre-Iterations <==

  SCF Guess: Superposition of Atomic Densities via on-the-fly atomic UHF (no occupation information).


 WARNING: Atomic UHF is not converging! Try casting from a smaller basis or call Rob at CCMST.
   -------------------------
    Irrep   Nso     Nmo    
   -------------------------
     Ag        50      50 
     B1g       20      20 
     B2g       33      33 
     B3g       33      33 
     Au        20      20 
     B1u       50      50 
     B2u       33      33 
     B3u       33      33 
   -------------------------
    Total     272     272
   -------------------------

  ==> Iterations <==

                        Total Energy        Delta E     RMS |[F,P]|

   @UHF iter SAD:  -300.50070519212449   -3.00501e+02   0.00000e+00 
   @UHF iter   1:  -782.45844370579209   -4.81958e+02   8.72040e-02 DIIS
    Occupation by irrep:
             Ag   B1g   B2g   B3g    Au   B1u   B2u   B3u 
    DOCC [     5,    0,    1,    1,    0,    4,    2,    2 ]
    SOCC [     0,    0,    0,    1,    0,    0,    0,    0 ]

   @UHF iter   2:  -789.49644474415027   -7.03800e+00   3.62925e-02 DIIS
   @UHF iter   3:  -794.35876584836387   -4.86232e+00   9.26494e-03 DIIS
   @UHF iter   4:  -794.75112766038501   -3.92362e-01   2.27683e-03 DIIS
   @UHF iter   5:  -794.76367160750272   -1.25439e-02   4.12865e-04 DIIS
   @UHF iter   6:  -794.76538087407357   -1.70927e-03   1.69119e-04 DIIS
   @UHF iter   7:  -794.76584300624154   -4.62132e-04   5.33649e-05 DIIS
   @UHF iter   8:  -794.76589260498054   -4.95987e-05   1.04187e-05 DIIS
   @UHF iter   9:  -794.76589427161196   -1.66663e-06   2.37186e-06 DIIS
   @UHF iter  10:  -794.76589435601011   -8.43982e-08   6.64936e-07 DIIS
   @UHF iter  11:  -794.76589436388053   -7.87043e-09   1.85096e-07 DIIS
   @UHF iter  12:  -794.76589436446068   -5.80144e-10   4.43319e-08 DIIS
   @UHF iter  13:  -794.76589436449058   -2.98996e-11   6.60017e-09 DIIS
  Energy and wave function converged.


  ==> Post-Iterations <==

   @Spin Contamination Metric:   3.193295564E-02
   @S^2 Expected:                7.500000000E-01
   @S^2 Observed:                7.819329556E-01
   @S   Expected:                5.000000000E-01
   @S   Observed:                5.000000000E-01

    Orbital Energies [Eh]
    ---------------------

    Alpha Occupied:                                                       

       1Ag   -92.347842     1B1u  -92.347837     2Ag    -9.342059  
       2B1u   -9.341552     1B2u   -7.030371     1B3g   -7.030291  
       1B3u   -7.019332     3Ag    -7.019269     1B2g   -7.019207  
       3B1u   -7.017969     4Ag    -1.403688     4B1u   -1.114838  
       2B2u   -0.826272     5Ag    -0.819510     2B3u   -0.744829  
       2B3g   -0.658783  

    Alpha Virtual:                                                        

       2B2g   -0.314060     5B1u   -0.118336     6Ag    -0.099976  
       3B3u   -0.073109     3B2u   -0.070362     7Ag    -0.055228  
       6B1u   -0.053270     3B3g   -0.035365     3B2g   -0.034507  
       1B1g   -0.028253     8Ag    -0.027981     4B2u    0.026454  
       7B1u    0.026680     4B3u    0.036215     9Ag     0.050808  
       1Au     0.066638     8B1u    0.066771     4B3g    0.096734  
       4B2g    0.099494     9B1u    0.101637     5B3u    0.126307  
       5B2u    0.130402    10Ag     0.163746     6B2u    0.190500  
      11Ag     0.191889     2B1g    0.192072     6B3u    0.207621  
       5B3g    0.227784     5B2g    0.230248    12Ag     0.231237  
       7B2u    0.233336     7B3u    0.233410    10B1u    0.244770  
       2Au     0.276497    11B1u    0.276951    13Ag     0.312817  
       3B1g    0.334229    14Ag     0.334426     6B3g    0.344824  
       6B2g    0.344838     7B3g    0.364919     7B2g    0.367732  
      12B1u    0.395758     8B3u    0.451709     8B2u    0.452784  
      13B1u    0.484665     3Au     0.484671    14B1u    0.513368  
      15Ag     0.550319     8B3g    0.637072     8B2g    0.642558  
      15B1u    0.722274     9B3u    0.733428     9B2u    0.743190  
      16Ag     0.785517     4B1g    0.788312    17Ag     0.788352  
       9B3g    0.815082     9B2g    0.821714     5B1g    0.832876  
      18Ag     0.833438    10B3u    0.837344    10B2u    0.837364  
       4Au     0.918795    16B1u    0.918934    11B2u    0.927357  
      11B3u    0.927980     6B1g    0.929106    19Ag     0.929279  
      12B2u    0.939523    12B3u    0.945778    17B1u    0.949127  
       5Au     0.949127    18B1u    0.973221    20Ag     0.993273  
      10B3g    0.997121    10B2g    0.997123    13B3u    1.048132  
      13B2u    1.050691    11B2g    1.091508     6Au     1.098042  
      19B1u    1.098080    11B3g    1.098544    21Ag     1.122787  
       7B1g    1.143571    22Ag     1.144441    12B2g    1.175143  
      12B3g    1.175153    20B1u    1.234009    13B2g    1.259865  
      13B3g    1.265095    21B1u    1.368582    23Ag     1.415446  
      22B1u    1.536329     7Au     1.541225    23B1u    1.548406  
      14B3u    1.551454    14B2u    1.557617    14B2g    1.798478  
      14B3g    1.799079    24Ag     1.922760    24B1u    2.120041  
       8B1g    2.139156    25Ag     2.139257    15B3u    2.146772  
      15B2u    2.156962    16B3u    2.201219    16B2u    2.201255  
       9B1g    2.270137    26Ag     2.270137    17B3u    2.323956  
      17B2u    2.323958    27Ag     2.340612    15B2g    2.346538  
      15B3g    2.346542    18B3u    2.357449    18B2u    2.357449  
      28Ag     2.395422    10B1g    2.395424    16B2g    2.412812  
      16B3g    2.422917    29Ag     2.453212    11B1g    2.454375  
       8Au     2.458052    25B1u    2.458089    30Ag     2.468786  
      26B1u    2.479135     9Au     2.479138    17B2g    2.512006  
      17B3g    2.512006    12B1g    2.528272    31Ag     2.529016  
      27B1u    2.556897    10Au     2.557206    19B3u    2.566776  
      19B2u    2.579163    28B1u    2.612341    18B2g    2.648473  
      18B3g    2.648494    20B3u    2.666915    20B2u    2.666945  
      21B3u    2.720833    19B2g    2.725611    21B2u    2.728235  
      19B3g    2.737006    29B1u    2.800977    11Au     2.800979  
      30B1u    2.839822    12Au     2.842658    31B1u    2.856457  
      32Ag     2.978932    20B2g    3.018251    20B3g    3.030889  
      22B3u    3.140494    22B2u    3.148767    13B1g    3.193489  
      33Ag     3.193760    32B1u    3.251205    21B2g    3.316512  
      21B3g    3.316517    34Ag     3.553700    33B1u    3.790196  
      13Au     3.920271    34B1u    3.921029    22B2g    4.007614  
      22B3g    4.016330    23B3u    4.229581    23B2u    4.237166  
      35Ag     4.358047    23B2g    4.372511    23B3g    4.381453  
      24B3u    5.018976    24B2u    5.018979    36Ag     5.054008  
      14B1g    5.054160    24B3g    5.093739    24B2g    5.093740  
      35B1u    5.132625    25B3u    5.193229    25B2u    5.204517  
      37Ag     5.218713    14Au     5.371624    36B1u    5.371764  
      37B1u    5.444401    38Ag     5.526154    15B1g    5.565200  
      39Ag     5.566859    25B2g    5.582138    25B3g    5.594535  
      15Au     5.697642    38B1u    5.698096    26B3u    5.701443  
      26B2u    5.716486    40Ag     5.752937    16B1g    5.754993  
      27B3u    5.788256    27B2u    5.788297    41Ag     5.792318  
      17B1g    5.797780    42Ag     5.797907    16Au     5.863958  
      39B1u    5.863959    18B1g    5.885601    43Ag     5.885602  
      28B3u    5.888449    28B2u    5.900553    29B3u    5.900850  
      29B2u    5.903026    26B2g    5.903409    30B3u    5.909981  
      30B2u    5.909991    26B3g    5.917574    27B2g    5.978481  
      27B3g    5.978481    28B2g    6.006673    28B3g    6.006709  
      17Au     6.119935    40B1u    6.119935    44Ag     6.134454  
      19B1g    6.137229    45Ag     6.164252    41B1u    6.256894  
      18Au     6.326429    42B1u    6.327080    29B2g    6.442832  
      29B3g    6.442833    43B1u    6.496120    31B3u    6.740133  
      31B2u    6.753589    44B1u    6.766263    30B2g    6.928469  
      30B3g    6.941104    19Au     6.964513    45B1u    6.964663  
      31B2g    7.563268    31B3g    7.579268    46B1u    7.872430  
      46Ag     8.444830    47Ag    15.907469    20B1g   15.907471  
      20Au    16.060516    47B1u   16.060517    32B3u   16.108995  
      32B2u   16.115409    48Ag    16.456481    48B1u   16.634538  
      32B2g   16.716108    32B3g   16.722914    33B2u   24.516645  
      33B3u   24.520276    33B3g   25.300845    33B2g   25.304128  
      49Ag    25.536259    49B1u   28.441426    50Ag    64.017628  
      50B1u   64.557549  

    Beta Occupied:                                                        

       1Ag   -92.341251     1B1u  -92.341245     2Ag    -9.335604  
       2B1u   -9.335034     3Ag    -7.016501     1B3u   -7.015997  
       1B2g   -7.015869     3B1u   -7.015164     1B2u   -7.002370  
       1B3g   -7.002239     4Ag    -1.372764     4B1u   -1.040395  
       5Ag    -0.797783     2B3u   -0.738644     2B2u   -0.706614  

    Beta Virtual:                                                         

       2B2g   -0.301870     2B3g   -0.258907     5B1u   -0.108595  
       6Ag    -0.099989     3B3u   -0.073014     3B2u   -0.068847  
       7Ag    -0.054586     6B1u   -0.048817     3B2g   -0.034081  
       3B3g   -0.030721     1B1g   -0.022051     8Ag    -0.021611  
       7B1u    0.028420     4B3u    0.036073     4B2u    0.047684  
       9Ag     0.053542     1Au     0.072935     8B1u    0.073191  
       4B2g    0.100232     9B1u    0.104299     4B3g    0.105154  
       5B3u    0.126607     5B2u    0.134793    10Ag     0.163641  
       2B1g    0.205007    11Ag     0.205722     6B3u    0.208705  
       6B2u    0.227235     5B2g    0.231401     7B3u    0.234079  
       7B2u    0.234089    12Ag     0.235157     5B3g    0.240317  
      10B1u    0.247172     2Au     0.302691    11B1u    0.303005  
      13Ag     0.317294     3B1g    0.339228    14Ag     0.340691  
       6B2g    0.346846     6B3g    0.346860     7B2g    0.367985  
       7B3g    0.378777    12B1u    0.399964     8B3u    0.452226  
       8B2u    0.459805    13B1u    0.495824     3Au     0.496121  
      14B1u    0.518152    15Ag     0.558342     8B2g    0.644370  
       8B3g    0.659796    15B1u    0.726863     9B3u    0.733455  
       9B2u    0.745750    16Ag     0.787364     4B1g    0.789629  
      17Ag     0.789630     9B2g    0.823375    10B3u    0.838227  
      10B2u    0.838257     5B1g    0.840789    18Ag     0.841122  
       9B3g    0.844116    16B1u    0.931773     4Au     0.933093  
      11B3u    0.935376    11B2u    0.936633     6B1g    0.944907  
      19Ag     0.945436    12B3u    0.949440    17B1u    0.951932  
       5Au     0.951984    12B2u    0.972143    18B1u    0.979613  
      20Ag     0.995217    10B2g    1.008189    10B3g    1.008203  
      13B3u    1.048779    13B2u    1.062264    11B2g    1.091515  
      11B3g    1.101696    19B1u    1.107448     6Au     1.107647  
      21Ag     1.123992     7B1g    1.146872    22Ag     1.148347  
      12B2g    1.178082    12B3g    1.178124    20B1u    1.241740  
      13B2g    1.261860    13B3g    1.278989    21B1u    1.373551  
      23Ag     1.428692    22B1u    1.537838     7Au     1.546524  
      14B3u    1.551684    23B1u    1.555884    14B2u    1.567321  
      14B2g    1.800653    14B3g    1.821718    24Ag     1.922103  
      24B1u    2.129872    25Ag     2.142628     8B1g    2.142838  
      15B3u    2.147713    15B2u    2.166242    16B3u    2.205994  
      16B2u    2.206349    26Ag     2.271193     9B1g    2.271194  
      17B3u    2.339915    17B2u    2.339939    27Ag     2.348125  
      18B3u    2.362612    18B2u    2.362613    15B2g    2.365175  
      15B3g    2.365374    28Ag     2.406072    10B1g    2.406092  
      16B2g    2.414327    16B3g    2.438003    29Ag     2.461042  
      11B1g    2.466661     8Au     2.468468    25B1u    2.468862  
      30Ag     2.478650    26B1u    2.491515     9Au     2.491536  
      17B2g    2.517531    17B3g    2.517531    12B1g    2.536553  
      31Ag     2.539167    27B1u    2.566420    19B3u    2.567979  
      10Au     2.568344    19B2u    2.591899    28B1u    2.619030  
      18B2g    2.655821    18B3g    2.655964    20B3u    2.672033  
      20B2u    2.672162    21B3u    2.720478    19B2g    2.728164  
      21B2u    2.736594    19B3g    2.749830    29B1u    2.804927  
      11Au     2.804934    30B1u    2.841118    12Au     2.847961  
      31B1u    2.865946    32Ag     2.981275    20B2g    3.018508  
      20B3g    3.036178    22B3u    3.143213    22B2u    3.166994  
      13B1g    3.197638    33Ag     3.198223    32B1u    3.253009  
      21B2g    3.320427    21B3g    3.320442    34Ag     3.556464  
      33B1u    3.793470    13Au     3.924995    34B1u    3.926422  
      22B2g    4.009800    22B3g    4.034841    23B3u    4.231603  
      23B2u    4.254365    35Ag     4.362963    23B2g    4.374659  
      23B3g    4.398411    24B3u    5.032701    24B2u    5.032727  
      36Ag     5.061792    14B1g    5.062212    24B2g    5.107388  
      24B3g    5.107393    35B1u    5.137971    25B3u    5.193816  
      25B2u    5.213663    37Ag     5.222147    14Au     5.379262  
      36B1u    5.379861    37B1u    5.452952    38Ag     5.528367  
      15B1g    5.572379    39Ag     5.576075    25B2g    5.583472  
      25B3g    5.603089    26B3u    5.702883    15Au     5.707761  
      38B1u    5.709180    26B2u    5.726996    40Ag     5.754936  
      16B1g    5.759351    27B3u    5.793730    27B2u    5.793882  
      41Ag     5.802986    17B1g    5.813207    42Ag     5.813598  
      16Au     5.879081    39B1u    5.879086    28B3u    5.890698  
      18B1g    5.894222    43Ag     5.894226    26B2g    5.903328  
      29B3u    5.910610    28B2u    5.910657    29B2u    5.911953  
      30B3u    5.921897    30B2u    5.921913    26B3g    5.927750  
      27B2g    5.989897    27B3g    5.989898    28B2g    6.017173  
      28B3g    6.017356    17Au     6.128376    40B1u    6.128376  
      44Ag     6.137465    19B1g    6.144298    45Ag     6.174052  
      41B1u    6.258544    18Au     6.330860    42B1u    6.332160  
      29B2g    6.448973    29B3g    6.448976    43B1u    6.500081  
      31B3u    6.740208    31B2u    6.759791    44B1u    6.770838  
      30B2g    6.929224    30B3g    6.946803    19Au     6.969781  
      45B1u    6.970063    31B2g    7.565016    31B3g    7.589052  
      46B1u    7.876139    46Ag     8.447294    47Ag    15.915850  
      20B1g   15.915910    47B1u   16.068960    20Au    16.069015  
      32B3u   16.110267    32B2u   16.123542    48Ag    16.459997  
      48B1u   16.638153    32B2g   16.717349    32B3g   16.730981  
      33B3u   24.522785    33B2u   24.537283    33B2g   25.306518  
      33B3g   25.320672    49Ag    25.538287    49B1u   28.443304  
      50Ag    64.021811    50B1u   64.561771  

    Final Occupation by Irrep:
             Ag   B1g   B2g   B3g    Au   B1u   B2u   B3u 
    DOCC [     5,    0,    1,    1,    0,    4,    2,    2 ]
    SOCC [     0,    0,    0,    1,    0,    0,    0,    0 ]

  @UHF Final Energy:  -794.76589436449058

   => Energetics <=

    Nuclear Repulsion Energy =             73.1767303307902779
    One-Electron Energy =               -1234.7241258061508233
    Two-Electron Energy =                 366.7815011108700674
    Total Energy =                       -794.7658943644905776

  UHF NO Occupations:
  HONO-2 :    4B1u 1.9971526
  HONO-1 :    2B2u 1.9894763
  HONO-0 :    2B3g 1.0000000
  LUNO+0 :    3B2u 0.0105237
  LUNO+1 :    5B1u 0.0028474
  LUNO+2 :    6 Ag 0.0024714
  LUNO+3 :    3B3u 0.0001135


Computation Completed


Properties will be evaluated at   0.000000,   0.000000,   0.000000 [a0]

Properties computed using the SCF density matrix

  Nuclear Dipole Moment: [e a0]
     X:     0.0000      Y:     0.0000      Z:     0.0000

  Electronic Dipole Moment: [e a0]
     X:     0.0000      Y:     0.0000      Z:     0.0000

  Dipole Moment: [e a0]
     X:     0.0000      Y:     0.0000      Z:     0.0000     Total:     0.0000

  Dipole Moment: [D]
     X:     0.0000      Y:     0.0000      Z:     0.0000     Total:     0.0000


*** tstop() called on n412-045.vsc4.prov at Fri Jan 22 07:57:09 2021
Module time:
	user time   =     190.96 seconds =       3.18 minutes
	system time =      10.15 seconds =       0.17 minutes
	total time  =        159 seconds =       2.65 minutes
Total time:
	user time   =     190.96 seconds =       3.18 minutes
	system time =      10.15 seconds =       0.17 minutes
	total time  =        159 seconds =       2.65 minutes

*** tstart() called on n412-045.vsc4.prov
*** at Fri Jan 22 07:57:09 2021


	Wfn Parameters:
	--------------------
	Wavefunction         = CCSD_T
	Number of irreps     = 8
	Number of MOs        = 272
	Number of active MOs = 262
	AO-Basis             = NONE
	Semicanonical        = false
	Reference            = UHF
	Print Level          = 1

	IRREP	# MOs	# FZDC	# DOCC	# SOCC	# VIRT	# FZVR
	-----	-----	------	------	------	------	------
	 Ag	   50	    3	    2	    0	    45	    0
	 B1g	   20	    0	    0	    0	    20	    0
	 B2g	   33	    1	    0	    0	    32	    0
	 B3g	   33	    1	    0	    1	    31	    0
	 Au	   20	    0	    0	    0	    20	    0
	 B1u	   50	    3	    1	    0	    46	    0
	 B2u	   33	    1	    1	    0	    31	    0
	 B3u	   33	    1	    1	    0	    31	    0
	Transforming integrals...
	IWL integrals will be deleted.
	(OO|OO)...
	Presorting SO-basis two-electron integrals.
	Sorting File: SO Ints (nn|nn) nbuckets = 1
	Constructing frozen core operators
	Starting AA/AB first half-transformation.
	Sorting AA/AB half-transformed integrals.
	Starting BB first half-transformation.
	Sorting BB half-transformed integrals.
	First half integral transformation complete.
	Starting AA second half-transformation.
	Starting AB second half-transformation.
	Starting BB second half-transformation.
	Two-electron integral transformation complete.
	(OO|OV)...
	Starting AA second half-transformation.
	Starting AB second half-transformation.
	Starting BB second half-transformation.
	Two-electron integral transformation complete.
	(OO|VV)...
	Starting AA second half-transformation.
	Starting AB second half-transformation.
	Starting BB second half-transformation.
	Two-electron integral transformation complete.
	(OV|OO)...
	Starting AA/AB first half-transformation.
	Sorting AA/AB half-transformed integrals.
	Starting BB first half-transformation.
	Sorting BB half-transformed integrals.
	First half integral transformation complete.
	Starting AA second half-transformation.
	Starting AB second half-transformation.
	Starting BB second half-transformation.
	Two-electron integral transformation complete.
	(OV|OV)...
	Starting AA second half-transformation.
	Starting AB second half-transformation.
	Starting BB second half-transformation.
	Two-electron integral transformation complete.
	(OV|VV)...
	Starting AA second half-transformation.
	Starting AB second half-transformation.
	Starting BB second half-transformation.
	Two-electron integral transformation complete.
	(VV|OO)...
	Starting AA/AB first half-transformation.
	Sorting AA/AB half-transformed integrals.
	Starting BB first half-transformation.
	Sorting BB half-transformed integrals.
	First half integral transformation complete.
	Starting AA second half-transformation.
	Starting AB second half-transformation.
	Starting BB second half-transformation.
	Two-electron integral transformation complete.
	(VV|OV)...
	Starting AA second half-transformation.
	Starting AB second half-transformation.
	Starting BB second half-transformation.
	Two-electron integral transformation complete.
	(VV|VV)...
	Starting AA second half-transformation.
	Starting AB second half-transformation.
	Starting BB second half-transformation.
	Two-electron integral transformation complete.
	Frozen core energy     =   -837.99597436194279

	Size of irrep 0 of <AB|CD> integrals:     18.456 (MW) /    147.645 (MB)
	Size of irrep 1 of <AB|CD> integrals:     14.236 (MW) /    113.884 (MB)
	Size of irrep 2 of <AB|CD> integrals:     16.859 (MW) /    134.874 (MB)
	Size of irrep 3 of <AB|CD> integrals:     16.655 (MW) /    133.236 (MB)
	Size of irrep 4 of <AB|CD> integrals:     14.236 (MW) /    113.884 (MB)
	Size of irrep 5 of <AB|CD> integrals:     19.563 (MW) /    156.503 (MB)
	Size of irrep 6 of <AB|CD> integrals:     16.655 (MW) /    133.236 (MB)
	Size of irrep 7 of <AB|CD> integrals:     16.867 (MW) /    134.940 (MB)
	Total:                                   133.525 (MW) /   1068.203 (MB)

	Size of irrep 0 of <ab|cd> integrals:     18.723 (MW) /    149.783 (MB)
	Size of irrep 1 of <ab|cd> integrals:     14.478 (MW) /    115.824 (MB)
	Size of irrep 2 of <ab|cd> integrals:     17.024 (MW) /    136.191 (MB)
	Size of irrep 3 of <ab|cd> integrals:     17.024 (MW) /    136.191 (MB)
	Size of irrep 4 of <ab|cd> integrals:     14.470 (MW) /    115.763 (MB)
	Size of irrep 5 of <ab|cd> integrals:     19.838 (MW) /    158.705 (MB)
	Size of irrep 6 of <ab|cd> integrals:     17.032 (MW) /    136.257 (MB)
	Size of irrep 7 of <ab|cd> integrals:     17.032 (MW) /    136.257 (MB)
	Total:                                   135.621 (MW) /   1084.972 (MB)

	Size of irrep 0 of <Ab|Cd> integrals:     78.837 (MW) /    630.693 (MB)
	Size of irrep 1 of <Ab|Cd> integrals:     57.426 (MW) /    459.409 (MB)
	Size of irrep 2 of <Ab|Cd> integrals:     67.766 (MW) /    542.127 (MB)
	Size of irrep 3 of <Ab|Cd> integrals:     67.355 (MW) /    538.839 (MB)
	Size of irrep 4 of <Ab|Cd> integrals:     57.411 (MW) /    459.287 (MB)
	Size of irrep 5 of <Ab|Cd> integrals:     78.801 (MW) /    630.409 (MB)
	Size of irrep 6 of <Ab|Cd> integrals:     67.371 (MW) /    538.970 (MB)
	Size of irrep 7 of <Ab|Cd> integrals:     67.799 (MW) /    542.390 (MB)
	Total:                                   542.765 (MW) /   4342.124 (MB)

	Size of irrep 0 of <IA|BC> integrals:      2.026 (MW) /     16.210 (MB)
	Size of irrep 1 of <IA|BC> integrals:      1.162 (MW) /      9.297 (MB)
	Size of irrep 2 of <IA|BC> integrals:      1.486 (MW) /     11.891 (MB)
	Size of irrep 3 of <IA|BC> integrals:      1.665 (MW) /     13.320 (MB)
	Size of irrep 4 of <IA|BC> integrals:      1.162 (MW) /      9.297 (MB)
	Size of irrep 5 of <IA|BC> integrals:      2.043 (MW) /     16.347 (MB)
	Size of irrep 6 of <IA|BC> integrals:      1.665 (MW) /     13.320 (MB)
	Size of irrep 7 of <IA|BC> integrals:      1.470 (MW) /     11.762 (MB)
	Total:                                    12.681 (MW) /    101.444 (MB)

	Size of irrep 0 of <ia|bc> integrals:      1.764 (MW) /     14.115 (MB)
	Size of irrep 1 of <ia|bc> integrals:      0.928 (MW) /      7.427 (MB)
	Size of irrep 2 of <ia|bc> integrals:      1.329 (MW) /     10.629 (MB)
	Size of irrep 3 of <ia|bc> integrals:      1.329 (MW) /     10.629 (MB)
	Size of irrep 4 of <ia|bc> integrals:      0.943 (MW) /      7.547 (MB)
	Size of irrep 5 of <ia|bc> integrals:      1.791 (MW) /     14.324 (MB)
	Size of irrep 6 of <ia|bc> integrals:      1.312 (MW) /     10.499 (MB)
	Size of irrep 7 of <ia|bc> integrals:      1.312 (MW) /     10.499 (MB)
	Total:                                    10.709 (MW) /     85.669 (MB)

	Size of irrep 0 of <Ia|Bc> integrals:      2.042 (MW) /     16.337 (MB)
	Size of irrep 1 of <Ia|Bc> integrals:      1.167 (MW) /      9.336 (MB)
	Size of irrep 2 of <Ia|Bc> integrals:      1.490 (MW) /     11.920 (MB)
	Size of irrep 3 of <Ia|Bc> integrals:      1.691 (MW) /     13.525 (MB)
	Size of irrep 4 of <Ia|Bc> integrals:      1.174 (MW) /      9.395 (MB)
	Size of irrep 5 of <Ia|Bc> integrals:      2.059 (MW) /     16.476 (MB)
	Size of irrep 6 of <Ia|Bc> integrals:      1.683 (MW) /     13.461 (MB)
	Size of irrep 7 of <Ia|Bc> integrals:      1.474 (MW) /     11.791 (MB)
	Total:                                    12.780 (MW) /    102.242 (MB)

	Size of irrep 0 of <iA|bC> integrals:      1.758 (MW) /     14.064 (MB)
	Size of irrep 1 of <iA|bC> integrals:      0.925 (MW) /      7.396 (MB)
	Size of irrep 2 of <iA|bC> integrals:      1.325 (MW) /     10.603 (MB)
	Size of irrep 3 of <iA|bC> integrals:      1.305 (MW) /     10.439 (MB)
	Size of irrep 4 of <iA|bC> integrals:      0.932 (MW) /      7.456 (MB)
	Size of irrep 5 of <iA|bC> integrals:      1.775 (MW) /     14.203 (MB)
	Size of irrep 6 of <iA|bC> integrals:      1.297 (MW) /     10.375 (MB)
	Size of irrep 7 of <iA|bC> integrals:      1.309 (MW) /     10.474 (MB)
	Total:                                    10.626 (MW) /     85.010 (MB)

	Size of irrep 0 of tIjAb amplitudes:       0.062 (MW) /      0.497 (MB)
	Size of irrep 1 of tIjAb amplitudes:       0.015 (MW) /      0.121 (MB)
	Size of irrep 2 of tIjAb amplitudes:       0.016 (MW) /      0.132 (MB)
	Size of irrep 3 of tIjAb amplitudes:       0.033 (MW) /      0.263 (MB)
	Size of irrep 4 of tIjAb amplitudes:       0.008 (MW) /      0.061 (MB)
	Size of irrep 5 of tIjAb amplitudes:       0.044 (MW) /      0.355 (MB)
	Size of irrep 6 of tIjAb amplitudes:       0.041 (MW) /      0.328 (MB)
	Size of irrep 7 of tIjAb amplitudes:       0.033 (MW) /      0.263 (MB)
	Total:                                     0.253 (MW) /      2.020 (MB)

	Nuclear Rep. energy          =     73.17673033079028
	SCF energy                   =   -794.76589436449058
	One-electron energy          =    -49.66917948162555
	Two-electron (AA) energy     =      4.85400250685021
	Two-electron (BB) energy     =      3.28003961801302
	Two-electron (AB) energy     =     11.58848702342510
	Two-electron energy          =     19.72252914828832
	Reference energy             =   -794.76589436448978

*** tstop() called on n412-045.vsc4.prov at Fri Jan 22 08:00:46 2021
Module time:
	user time   =      66.07 seconds =       1.10 minutes
	system time =      37.55 seconds =       0.63 minutes
	total time  =        217 seconds =       3.62 minutes
Total time:
	user time   =     257.03 seconds =       4.28 minutes
	system time =      47.70 seconds =       0.80 minutes
	total time  =        376 seconds =       6.27 minutes
            **************************
            *                        *
            *        CCENERGY        *
            *                        *
            **************************

    Nuclear Rep. energy (wfn)     =   73.176730330790278
    SCF energy          (wfn)     = -794.765894364490578
    Reference energy    (file100) = -794.765894364489782

    Input parameters:
    -----------------
    Wave function   =     CCSD_T
    Reference wfn   =     UHF
    Brueckner       =     No
    Memory (Mbytes) =     250000.0
    Maxiter         =     50
    R_Convergence   =     1.0e-07
    E_Convergence   =     1.0e-06
    Restart         =     Yes
    DIIS            =     Yes
    AO Basis        =     NONE
    ABCD            =     NEW
    Cache Level     =     2
    Cache Type      =     LRU
    Print Level     =     1
    Num. of threads =     48
    # Amps to Print =     10
    Print MP2 Amps? =     No
    Analyze T2 Amps =     No
    Print Pair Ener =     No
    Local CC        =     No
    SCS-MP2         =     False
    SCSN-MP2        =     False
    SCS-CCSD        =     False

MP2 correlation energy -0.3554607384340741
                Solving CC Amplitude Equations
                ------------------------------
  Iter             Energy              RMS        T1Diag      D1Diag    New D1Diag    D2Diag
  ----     ---------------------    ---------   ----------  ----------  ----------   --------
     0        -0.355460738434074    0.000e+00    0.000000    0.000000    0.000000    0.000000
     1        -0.353431585977824    9.510e-02    0.019854    0.000000    0.000000    0.000000
     2        -0.366580387617810    3.311e-02    0.021235    0.000000    0.000000    0.000000
     3        -0.369991976172403    1.496e-02    0.025729    0.000000    0.000000    0.000000
     4        -0.369879999299783    3.160e-03    0.026393    0.000000    0.000000    0.000000
     5        -0.369890769423198    1.052e-03    0.026577    0.000000    0.000000    0.000000
     6        -0.369882359349112    2.917e-04    0.026585    0.000000    0.000000    0.000000
     7        -0.369883488415585    7.811e-05    0.026581    0.000000    0.000000    0.000000
     8        -0.369885432213329    2.732e-05    0.026580    0.000000    0.000000    0.000000
     9        -0.369885067659182    8.681e-06    0.026579    0.000000    0.000000    0.000000
    10        -0.369885012051669    3.051e-06    0.026578    0.000000    0.000000    0.000000
    11        -0.369885006686918    9.676e-07    0.026578    0.000000    0.000000    0.000000
    12        -0.369885038508601    3.604e-07    0.026578    0.000000    0.000000    0.000000
    13        -0.369885046446302    1.059e-07    0.026578    0.000000    0.000000    0.000000
    14        -0.369885045154905    3.590e-08    0.026578    0.000000    0.000000    0.000000

    Iterations converged.


    Largest TIA Amplitudes:
              4 195        -0.0292629201
              4 197         0.0223126411
              5 228        -0.0213350733
              5 226         0.0152436229
              3 154         0.0126756890
              1   2        -0.0114953176
              5 227        -0.0114196661
              1   5        -0.0111094448
              5 234         0.0104887880
              1   7         0.0084709720

    Largest Tia Amplitudes:
              3 198        -0.0291988946
              2 149         0.0248972201
              4 229        -0.0211070200
              3 196         0.0210354906
              2 150        -0.0179058521
              4 227         0.0148795516
              4 228        -0.0114841020
              3 204         0.0112723664
              3 200        -0.0104268291
              3 197        -0.0095213958

    Largest TIJAB Amplitudes:
      5   1 148  65         0.0281501040
      5   1 149  65        -0.0210231202
      5   2 195  65         0.0205217822
      5   2 197  65        -0.0192796296
      2   1 195 148        -0.0172174425
      2   1 197 148         0.0157048011
      5   4  46   5        -0.0140151714
      2   1 195 149         0.0129635630
      5   4  46   2        -0.0124106260
      5   4  45   5        -0.0123189190

    Largest Tijab Amplitudes:
      4   3  97  65         0.0575846928
      3   1 149  97         0.0283294258
      4   1 149  65         0.0265104583
      3   1 150  97        -0.0254179947
      4   1 150  65        -0.0240068554
      4   3  46   5         0.0138791766
      3   1 153  97         0.0133938478
      4   1 153  65         0.0128222797
      4   2  97  46        -0.0117716142
      3   2  97   5         0.0117420085

    Largest TIjAb Amplitudes:
      5   4  65  65        -0.1423322256
      5   3  65  97        -0.0843672004
      3   2  65  65        -0.0425343130
      1   1  65  65        -0.0404610038
      2   3 197  97         0.0331063621
      2   3 195  97        -0.0325210027
      1   3 148  97        -0.0308515630
      1   4 148  65        -0.0293155307
      1   1 148 149        -0.0275578056
      4   4  65  97        -0.0253946875

    SCF energy       (wfn)                    = -794.765894364490578
    Reference energy (file100)                = -794.765894364489782

    Opposite-spin MP2 correlation energy      =   -0.271998132815806
    Same-spin MP2 correlation energy          =   -0.083462605618268
    Singles MP2 correlation energy            =   -0.000000000000000
    MP2 correlation energy                    =   -0.355460738434074
      * MP2 total energy                      = -795.121355102923872

    Opposite-spin CCSD correlation energy     =   -0.295415656762737
    Same-spin CCSD correlation energy         =   -0.074469388392175
    Singles CCSD correlation energy           =    0.000000000000007
    CCSD correlation energy                   =   -0.369885045154905
      * CCSD total energy                     = -795.135779409644670

            **************************
            *                        *
            *        CCTRIPLES       *
            *                        *
            **************************


    Wave function   =    CCSD_T
    Reference wfn   =      UHF

    Nuclear Rep. energy (wfn)                =   73.176730330790278
    SCF energy          (wfn)                = -794.765894364490578
    Reference energy    (file100)            = -794.765894364489782
    CCSD energy         (file100)            =   -0.369885045154905
    Total CCSD energy   (file100)            = -795.135779409644670

    Number of ijk index combinations:
    Spin Case AAA:                                  20
    Spin Case BBB:                                  10
    Spin Case AAB:                                  75
    Spin Case ABB:                                  60
    AAA (T) energy                             =   -0.000553690861729
    BBB (T) energy                             =   -0.000608114715133
    AAB (T) energy                             =   -0.012497448656533
    ABB (T) energy                             =   -0.012176415294223
    (T) energy                                   =   -0.025835669527618
      * CCSD(T) total energy                     = -795.161615079172293


    Psi4 stopped on: Friday, 22 January 2021 08:05AM
    Psi4 wall time for execution: 0:10:34.67

*** Psi4 exiting successfully. Buy a developer a beer!
