
    -----------------------------------------------------------------------
          Psi4: An Open-Source Ab Initio Electronic Structure Package
                               Psi4 1.4a3.dev88 

                         Git: Rev {master} 262e345 


    D. G. A. Smith, L. A. Burns, A. C. Simmonett, R. M. Parrish,
    M. C. Schieber, R. Galvelis, P. Kraus, H. Kruse, R. Di Remigio,
    A. Alenaizan, A. M. James, S. Lehtola, J. P. Misiewicz, M. Scheurer,
    R. A. Shaw, J. B. Schriber, Y. Xie, Z. L. Glick, D. A. Sirianni,
    J. S. O'Brien, J. M. Waldrop, A. Kumar, E. G. Hohenstein,
    B. P. Pritchard, B. R. Brooks, H. F. Schaefer III, A. Yu. Sokolov,
    K. Patkowski, A. E. DePrince III, U. Bozkaya, R. A. King,
    F. A. Evangelista, J. M. Turney, T. D. Crawford, C. D. Sherrill,
    J. Chem. Phys. 152(18) 184108 (2020). https://doi.org/10.1063/5.0006002

                            Additional Code Authors
    E. T. Seidl, C. L. Janssen, E. F. Valeev, M. L. Leininger,
    J. F. Gonthier, R. M. Richard, H. R. McAlexander, M. Saitow, X. Wang,
    P. Verma, and M. H. Lechner

             Previous Authors, Complete List of Code Contributors,
                       and Citations for Specific Modules
    https://github.com/psi4/psi4/blob/master/codemeta.json
    https://github.com/psi4/psi4/graphs/contributors
    http://psicode.org/psi4manual/master/introduction.html#citing-psifour

    -----------------------------------------------------------------------


    Psi4 started on: Tuesday, 26 January 2021 06:35PM

    Process ID: 409763
    Host:       n412-039.vsc4.prov
    PSIDATADIR: /home/fs71337/gallo4/psi4/eri-6/psi4/build/stage/share/psi4
    Memory:     500.0 MiB
    Threads:    48
    
  ==> Input File <==

--------------------------------------------------------------------------
# Any line starting with the # character is a comment line
memory 250000 mb
molecule molecule{
1 2
S          0.0000000000        0.0000000000        0.9256314495
S          0.0000000000        0.0000000000       -0.9256314495
}

set {
  reference uhf
  basis aug-cc-pV(d+d)Z
  scf_type OUT_OF_CORE
  freeze_core true
}

energy('ccsd(t)')
--------------------------------------------------------------------------

  Memory set to 232.831 GiB by Python driver.

Scratch directory: /binfl/lv71337/airmler/temp/

*** tstart() called on n412-039.vsc4.prov
*** at Tue Jan 26 18:35:40 2021

   => Loading Basis Set <=

    Name: AUG-CC-PV(D+D)Z
    Role: ORBITAL
    Keyword: BASIS
    atoms 1-2 entry S          line   740 file /home/fs71337/gallo4/psi4/eri-6/psi4/build/stage/share/psi4/basis/aug-cc-pv_dpd_z.gbs 


         ---------------------------------------------------------
                                   SCF
               by Justin Turney, Rob Parrish, Andy Simmonett
                          and Daniel G. A. Smith
                              UHF Reference
                       48 Threads, 238418 MiB Core
         ---------------------------------------------------------

  ==> Geometry <==

    Molecular point group: d2h
    Full point group: D_inf_h

    Geometry (in Angstrom), charge = 1, multiplicity = 2:

       Center              X                  Y                   Z               Mass       
    ------------   -----------------  -----------------  -----------------  -----------------
         S            0.000000000000     0.000000000000     0.925631449500    31.972071174400
         S            0.000000000000     0.000000000000    -0.925631449500    31.972071174400

  Running in d2h symmetry.

  Rotational constants: A = ************  B =      0.30769  C =      0.30769 [cm^-1]
  Rotational constants: A = ************  B =   9224.44464  C =   9224.44464 [MHz]
  Nuclear repulsion =   73.176730330790278

  Charge       = 1
  Multiplicity = 2
  Electrons    = 31
  Nalpha       = 16
  Nbeta        = 15

  ==> Algorithm <==

  SCF Algorithm Type is OUT_OF_CORE.
  DIIS enabled.
  MOM disabled.
  Fractional occupation disabled.
  Guess Type is SAD.
  Energy threshold   = 1.00e-08
  Density threshold  = 1.00e-08
  Integral threshold = 1.00e-12

  ==> Primary Basis <==

  Basis Set: AUG-CC-PV(D+D)Z
    Blend: AUG-CC-PV(D+D)Z
    Number of shells: 24
    Number of basis function: 64
    Number of Cartesian functions: 70
    Spherical Harmonics?: true
    Max angular momentum: 2

  ==> Integral Setup <==

  ==> DiskJK: Disk-Based J/K Matrices <==

    J tasked:                  Yes
    K tasked:                  Yes
    wK tasked:                  No
    Memory [MiB]:           178813
    Schwarz Cutoff:          1E-12

  Minimum eigenvalue in the overlap matrix is 1.7829241662E-03.
  Reciprocal condition number of the overlap matrix is 4.5411282225E-04.
    Using symmetric orthogonalization.

  ==> Pre-Iterations <==

  SCF Guess: Superposition of Atomic Densities via on-the-fly atomic UHF (no occupation information).


 WARNING: Atomic UHF is not converging! Try casting from a smaller basis or call Rob at CCMST.
   -------------------------
    Irrep   Nso     Nmo    
   -------------------------
     Ag        15      15 
     B1g        3       3 
     B2g        7       7 
     B3g        7       7 
     Au         3       3 
     B1u       15      15 
     B2u        7       7 
     B3u        7       7 
   -------------------------
    Total      64      64
   -------------------------

  ==> Iterations <==

                        Total Energy        Delta E     RMS |[F,P]|

   @UHF iter SAD:  -790.17432612612879   -7.90174e+02   0.00000e+00 
   @UHF iter   1:  -794.64208405349950   -4.46776e+00   1.35436e-02 DIIS
   @UHF iter   2:  -794.72233764803400   -8.02536e-02   4.47843e-03 DIIS
   @UHF iter   3:  -794.72810384546983   -5.76620e-03   9.78618e-04 DIIS
   @UHF iter   4:  -794.72885463814032   -7.50793e-04   3.21690e-04 DIIS
   @UHF iter   5:  -794.72896324889234   -1.08611e-04   8.22395e-05 DIIS
   @UHF iter   6:  -794.72897111028874   -7.86140e-06   1.45175e-05 DIIS
   @UHF iter   7:  -794.72897134145876   -2.31170e-07   3.30643e-06 DIIS
   @UHF iter   8:  -794.72897135416065   -1.27019e-08   7.49017e-07 DIIS
   @UHF iter   9:  -794.72897135485573   -6.95081e-10   1.70632e-07 DIIS
   @UHF iter  10:  -794.72897135489177   -3.60387e-11   3.51355e-08 DIIS
   @UHF iter  11:  -794.72897135489370   -1.93268e-12   5.55942e-09 DIIS
  Energy and wave function converged.


  ==> Post-Iterations <==

   @Spin Contamination Metric:   2.631356772E-02
   @S^2 Expected:                7.500000000E-01
   @S^2 Observed:                7.763135677E-01
   @S   Expected:                5.000000000E-01
   @S   Observed:                5.000000000E-01

    Orbital Energies [Eh]
    ---------------------

    Alpha Occupied:                                                       

       1Ag   -92.352597     1B1u  -92.352594     2Ag    -9.347335  
       2B1u   -9.346890     1B3u   -7.033952     1B2g   -7.033866  
       3Ag    -7.025348     1B2u   -7.024496     1B3g   -7.024369  
       3B1u   -7.024068     4Ag    -1.412936     4B1u   -1.118363  
       2B3u   -0.828334     5Ag    -0.824875     2B2u   -0.747945  
       2B2g   -0.657863  

    Alpha Virtual:                                                        

       2B3g   -0.317780     5B1u   -0.121372     6Ag    -0.084287  
       3B2u   -0.056811     3B3u   -0.053088     7Ag    -0.042623  
       6B1u   -0.030511     3B2g   -0.010578     3B3g   -0.008078  
       1B1g    0.046309     8Ag     0.046708     4B3u    0.079044  
       7B1u    0.080163     4B2u    0.100590     9Ag     0.188549  
       1Au     0.201562     8B1u    0.202336     4B2g    0.360595  
       4B3g    0.369354     9B1u    0.405455     5B3u    0.522904  
       5B2u    0.535311    10B1u    0.597892    10Ag     0.607174  
       5B2g    0.628658     5B3g    0.640656     6B3u    0.691806  
       6B2u    0.692216    11Ag     0.708467     2B1g    0.731243  
      12Ag     0.731306     2Au     0.798658    11B1u    0.798986  
      13Ag     0.825104     6B2g    0.922651     6B3g    0.926866  
      12B1u    1.112528    13B1u    1.489067     7B2u    4.605989  
       7B3u    4.617647    14Ag     4.654084     3B1g    4.654520  
      14B1u    4.707329     3Au     4.707585    15Ag     4.744391  
       7B3g    4.822865     7B2g    4.833800    15B1u    4.868083  

    Beta Occupied:                                                        

       1Ag   -92.346608     1B1u  -92.346603     2Ag    -9.340863  
       2B1u   -9.340358     3Ag    -7.022685     3B1u   -7.021377  
       1B2u   -7.021276     1B3g   -7.021146     1B3u   -7.007422  
       1B2g   -7.007289     4Ag    -1.380801     4B1u   -1.044824  
       5Ag    -0.801377     2B2u   -0.740345     2B3u   -0.707234  

    Beta Virtual:                                                         

       2B3g   -0.304619     2B2g   -0.263605     5B1u   -0.110509  
       6Ag    -0.084312     3B2u   -0.056497     3B3u   -0.050029  
       7Ag    -0.041127     6B1u   -0.024340     3B3g   -0.007096  
       3B2g   -0.000677     1B1g    0.062447     8Ag     0.062503  
       7B1u    0.083627     4B2u    0.102009     4B3u    0.124325  
       9Ag     0.197972     1Au     0.231999     8B1u    0.232233  
       4B3g    0.371397     4B2g    0.388693     9B1u    0.415245  
       5B2u    0.539076     5B3u    0.561430    10B1u    0.601857  
      10Ag     0.616943     5B3g    0.644721     5B2g    0.669086  
       6B2u    0.694041    11Ag     0.711106     6B3u    0.714223  
       2B1g    0.759433    12Ag     0.759591    11B1u    0.829087  
       2Au     0.829114    13Ag     0.836309     6B3g    0.929750  
       6B2g    0.953032    12B1u    1.125349    13B1u    1.498943  
       7B2u    4.606547     7B3u    4.622099    14Ag     4.659260  
       3B1g    4.660197    14B1u    4.713326     3Au     4.713897  
      15Ag     4.747287     7B3g    4.823733     7B2g    4.840481  
      15B1u    4.871398  

    Final Occupation by Irrep:
             Ag   B1g   B2g   B3g    Au   B1u   B2u   B3u 
    DOCC [     5,    0,    1,    1,    0,    4,    2,    2 ]
    SOCC [     0,    0,    1,    0,    0,    0,    0,    0 ]

  @UHF Final Energy:  -794.72897135489370

   => Energetics <=

    Nuclear Repulsion Energy =             73.1767303307902779
    One-Electron Energy =               -1234.5053632505407677
    Two-Electron Energy =                 366.5996615648568877
    Total Energy =                       -794.7289713548937016

  UHF NO Occupations:
  HONO-2 :    4B1u 1.9976282
  HONO-1 :    2B3u 1.9912088
  HONO-0 :    2B2g 1.0000000
  LUNO+0 :    3B3u 0.0087912
  LUNO+1 :    5B1u 0.0023718
  LUNO+2 :    6 Ag 0.0019264
  LUNO+3 :    7 Ag 0.0000565


Computation Completed


Properties will be evaluated at   0.000000,   0.000000,   0.000000 [a0]

Properties computed using the SCF density matrix

  Nuclear Dipole Moment: [e a0]
     X:     0.0000      Y:     0.0000      Z:     0.0000

  Electronic Dipole Moment: [e a0]
     X:     0.0000      Y:     0.0000      Z:     0.0000

  Dipole Moment: [e a0]
     X:     0.0000      Y:     0.0000      Z:     0.0000     Total:     0.0000

  Dipole Moment: [D]
     X:     0.0000      Y:     0.0000      Z:     0.0000     Total:     0.0000


*** tstop() called on n412-039.vsc4.prov at Tue Jan 26 18:35:45 2021
Module time:
	user time   =      22.68 seconds =       0.38 minutes
	system time =       1.58 seconds =       0.03 minutes
	total time  =          5 seconds =       0.08 minutes
Total time:
	user time   =      22.68 seconds =       0.38 minutes
	system time =       1.58 seconds =       0.03 minutes
	total time  =          5 seconds =       0.08 minutes

*** tstart() called on n412-039.vsc4.prov
*** at Tue Jan 26 18:35:45 2021


	Wfn Parameters:
	--------------------
	Wavefunction         = CCSD_T
	Number of irreps     = 8
	Number of MOs        = 64
	Number of active MOs = 54
	AO-Basis             = NONE
	Semicanonical        = false
	Reference            = UHF
	Print Level          = 1

	IRREP	# MOs	# FZDC	# DOCC	# SOCC	# VIRT	# FZVR
	-----	-----	------	------	------	------	------
	 Ag	   15	    3	    2	    0	    10	    0
	 B1g	   3	    0	    0	    0	    3	    0
	 B2g	   7	    1	    0	    1	    5	    0
	 B3g	   7	    1	    0	    0	    6	    0
	 Au	   3	    0	    0	    0	    3	    0
	 B1u	   15	    3	    1	    0	    11	    0
	 B2u	   7	    1	    1	    0	    5	    0
	 B3u	   7	    1	    1	    0	    5	    0
	Transforming integrals...
	IWL integrals will be deleted.
	(OO|OO)...
	Presorting SO-basis two-electron integrals.
	Sorting File: SO Ints (nn|nn) nbuckets = 1
	Constructing frozen core operators
	Starting AA/AB first half-transformation.
	Sorting AA/AB half-transformed integrals.
	Starting BB first half-transformation.
	Sorting BB half-transformed integrals.
	First half integral transformation complete.
	Starting AA second half-transformation.
	Starting AB second half-transformation.
	Starting BB second half-transformation.
	Two-electron integral transformation complete.
	(OO|OV)...
	Starting AA second half-transformation.
	Starting AB second half-transformation.
	Starting BB second half-transformation.
	Two-electron integral transformation complete.
	(OO|VV)...
	Starting AA second half-transformation.
	Starting AB second half-transformation.
	Starting BB second half-transformation.
	Two-electron integral transformation complete.
	(OV|OO)...
	Starting AA/AB first half-transformation.
	Sorting AA/AB half-transformed integrals.
	Starting BB first half-transformation.
	Sorting BB half-transformed integrals.
	First half integral transformation complete.
	Starting AA second half-transformation.
	Starting AB second half-transformation.
	Starting BB second half-transformation.
	Two-electron integral transformation complete.
	(OV|OV)...
	Starting AA second half-transformation.
	Starting AB second half-transformation.
	Starting BB second half-transformation.
	Two-electron integral transformation complete.
	(OV|VV)...
	Starting AA second half-transformation.
	Starting AB second half-transformation.
	Starting BB second half-transformation.
	Two-electron integral transformation complete.
	(VV|OO)...
	Starting AA/AB first half-transformation.
	Sorting AA/AB half-transformed integrals.
	Starting BB first half-transformation.
	Sorting BB half-transformed integrals.
	First half integral transformation complete.
	Starting AA second half-transformation.
	Starting AB second half-transformation.
	Starting BB second half-transformation.
	Two-electron integral transformation complete.
	(VV|OV)...
	Starting AA second half-transformation.
	Starting AB second half-transformation.
	Starting BB second half-transformation.
	Two-electron integral transformation complete.
	(VV|VV)...
	Starting AA second half-transformation.
	Starting AB second half-transformation.
	Starting BB second half-transformation.
	Two-electron integral transformation complete.
	Frozen core energy     =   -837.97974289946353

	Size of irrep 0 of <AB|CD> integrals:      0.023 (MW) /      0.182 (MB)
	Size of irrep 1 of <AB|CD> integrals:      0.014 (MW) /      0.111 (MB)
	Size of irrep 2 of <AB|CD> integrals:      0.019 (MW) /      0.152 (MB)
	Size of irrep 3 of <AB|CD> integrals:      0.021 (MW) /      0.168 (MB)
	Size of irrep 4 of <AB|CD> integrals:      0.014 (MW) /      0.111 (MB)
	Size of irrep 5 of <AB|CD> integrals:      0.030 (MW) /      0.242 (MB)
	Size of irrep 6 of <AB|CD> integrals:      0.021 (MW) /      0.171 (MB)
	Size of irrep 7 of <AB|CD> integrals:      0.019 (MW) /      0.152 (MB)
	Total:                                     0.161 (MW) /      1.291 (MB)

	Size of irrep 0 of <ab|cd> integrals:      0.024 (MW) /      0.195 (MB)
	Size of irrep 1 of <ab|cd> integrals:      0.015 (MW) /      0.123 (MB)
	Size of irrep 2 of <ab|cd> integrals:      0.022 (MW) /      0.175 (MB)
	Size of irrep 3 of <ab|cd> integrals:      0.022 (MW) /      0.175 (MB)
	Size of irrep 4 of <ab|cd> integrals:      0.015 (MW) /      0.121 (MB)
	Size of irrep 5 of <ab|cd> integrals:      0.032 (MW) /      0.256 (MB)
	Size of irrep 6 of <ab|cd> integrals:      0.022 (MW) /      0.178 (MB)
	Size of irrep 7 of <ab|cd> integrals:      0.022 (MW) /      0.178 (MB)
	Total:                                     0.175 (MW) /      1.401 (MB)

	Size of irrep 0 of <Ab|Cd> integrals:      0.126 (MW) /      1.008 (MB)
	Size of irrep 1 of <Ab|Cd> integrals:      0.059 (MW) /      0.469 (MB)
	Size of irrep 2 of <Ab|Cd> integrals:      0.082 (MW) /      0.654 (MB)
	Size of irrep 3 of <Ab|Cd> integrals:      0.086 (MW) /      0.687 (MB)
	Size of irrep 4 of <Ab|Cd> integrals:      0.058 (MW) /      0.465 (MB)
	Size of irrep 5 of <Ab|Cd> integrals:      0.125 (MW) /      0.997 (MB)
	Size of irrep 6 of <Ab|Cd> integrals:      0.087 (MW) /      0.696 (MB)
	Size of irrep 7 of <Ab|Cd> integrals:      0.082 (MW) /      0.659 (MB)
	Total:                                     0.704 (MW) /      5.635 (MB)

	Size of irrep 0 of <IA|BC> integrals:      0.016 (MW) /      0.129 (MB)
	Size of irrep 1 of <IA|BC> integrals:      0.006 (MW) /      0.047 (MB)
	Size of irrep 2 of <IA|BC> integrals:      0.011 (MW) /      0.086 (MB)
	Size of irrep 3 of <IA|BC> integrals:      0.010 (MW) /      0.079 (MB)
	Size of irrep 4 of <IA|BC> integrals:      0.006 (MW) /      0.047 (MB)
	Size of irrep 5 of <IA|BC> integrals:      0.017 (MW) /      0.134 (MB)
	Size of irrep 6 of <IA|BC> integrals:      0.009 (MW) /      0.075 (MB)
	Size of irrep 7 of <IA|BC> integrals:      0.011 (MW) /      0.086 (MB)
	Total:                                     0.085 (MW) /      0.683 (MB)

	Size of irrep 0 of <ia|bc> integrals:      0.015 (MW) /      0.118 (MB)
	Size of irrep 1 of <ia|bc> integrals:      0.005 (MW) /      0.038 (MB)
	Size of irrep 2 of <ia|bc> integrals:      0.009 (MW) /      0.073 (MB)
	Size of irrep 3 of <ia|bc> integrals:      0.009 (MW) /      0.073 (MB)
	Size of irrep 4 of <ia|bc> integrals:      0.005 (MW) /      0.041 (MB)
	Size of irrep 5 of <ia|bc> integrals:      0.016 (MW) /      0.126 (MB)
	Size of irrep 6 of <ia|bc> integrals:      0.009 (MW) /      0.069 (MB)
	Size of irrep 7 of <ia|bc> integrals:      0.009 (MW) /      0.069 (MB)
	Total:                                     0.076 (MW) /      0.609 (MB)

	Size of irrep 0 of <Ia|Bc> integrals:      0.017 (MW) /      0.133 (MB)
	Size of irrep 1 of <Ia|Bc> integrals:      0.006 (MW) /      0.048 (MB)
	Size of irrep 2 of <Ia|Bc> integrals:      0.012 (MW) /      0.094 (MB)
	Size of irrep 3 of <Ia|Bc> integrals:      0.010 (MW) /      0.080 (MB)
	Size of irrep 4 of <Ia|Bc> integrals:      0.006 (MW) /      0.050 (MB)
	Size of irrep 5 of <Ia|Bc> integrals:      0.017 (MW) /      0.138 (MB)
	Size of irrep 6 of <Ia|Bc> integrals:      0.009 (MW) /      0.076 (MB)
	Size of irrep 7 of <Ia|Bc> integrals:      0.011 (MW) /      0.092 (MB)
	Total:                                     0.089 (MW) /      0.711 (MB)

	Size of irrep 0 of <iA|bC> integrals:      0.015 (MW) /      0.116 (MB)
	Size of irrep 1 of <iA|bC> integrals:      0.005 (MW) /      0.037 (MB)
	Size of irrep 2 of <iA|bC> integrals:      0.008 (MW) /      0.066 (MB)
	Size of irrep 3 of <iA|bC> integrals:      0.009 (MW) /      0.073 (MB)
	Size of irrep 4 of <iA|bC> integrals:      0.005 (MW) /      0.039 (MB)
	Size of irrep 5 of <iA|bC> integrals:      0.015 (MW) /      0.121 (MB)
	Size of irrep 6 of <iA|bC> integrals:      0.009 (MW) /      0.068 (MB)
	Size of irrep 7 of <iA|bC> integrals:      0.008 (MW) /      0.064 (MB)
	Total:                                     0.073 (MW) /      0.585 (MB)

	Size of irrep 0 of tIjAb amplitudes:       0.002 (MW) /      0.020 (MB)
	Size of irrep 1 of tIjAb amplitudes:       0.000 (MW) /      0.004 (MB)
	Size of irrep 2 of tIjAb amplitudes:       0.001 (MW) /      0.009 (MB)
	Size of irrep 3 of tIjAb amplitudes:       0.001 (MW) /      0.005 (MB)
	Size of irrep 4 of tIjAb amplitudes:       0.000 (MW) /      0.002 (MB)
	Size of irrep 5 of tIjAb amplitudes:       0.002 (MW) /      0.014 (MB)
	Size of irrep 6 of tIjAb amplitudes:       0.001 (MW) /      0.009 (MB)
	Size of irrep 7 of tIjAb amplitudes:       0.001 (MW) /      0.011 (MB)
	Total:                                     0.009 (MW) /      0.075 (MB)

	Nuclear Rep. energy          =     73.17673033079028
	SCF energy                   =   -794.72897135489370
	One-electron energy          =    -49.58701927382398
	Two-electron (AA) energy     =      4.84600669039262
	Two-electron (BB) energy     =      3.26597547913993
	Two-electron (AB) energy     =     11.54907831807219
	Two-electron energy          =     19.66106048760474
	Reference energy             =   -794.72897135489245

*** tstop() called on n412-039.vsc4.prov at Tue Jan 26 18:35:48 2021
Module time:
	user time   =       0.22 seconds =       0.00 minutes
	system time =       0.49 seconds =       0.01 minutes
	total time  =          3 seconds =       0.05 minutes
Total time:
	user time   =      22.90 seconds =       0.38 minutes
	system time =       2.07 seconds =       0.03 minutes
	total time  =          8 seconds =       0.13 minutes
            **************************
            *                        *
            *        CCENERGY        *
            *                        *
            **************************

    Nuclear Rep. energy (wfn)     =   73.176730330790278
    SCF energy          (wfn)     = -794.728971354893702
    Reference energy    (file100) = -794.728971354892451

    Input parameters:
    -----------------
    Wave function   =     CCSD_T
    Reference wfn   =     UHF
    Brueckner       =     No
    Memory (Mbytes) =     250000.0
    Maxiter         =     50
    R_Convergence   =     1.0e-07
    E_Convergence   =     1.0e-06
    Restart         =     Yes
    DIIS            =     Yes
    AO Basis        =     NONE
    ABCD            =     NEW
    Cache Level     =     2
    Cache Type      =     LRU
    Print Level     =     1
    Num. of threads =     48
    # Amps to Print =     10
    Print MP2 Amps? =     No
    Analyze T2 Amps =     No
    Print Pair Ener =     No
    Local CC        =     No
    SCS-MP2         =     False
    SCSN-MP2        =     False
    SCS-CCSD        =     False

MP2 correlation energy -0.2637944393409394
                Solving CC Amplitude Equations
                ------------------------------
  Iter             Energy              RMS        T1Diag      D1Diag    New D1Diag    D2Diag
  ----     ---------------------    ---------   ----------  ----------  ----------   --------
     0        -0.263794439340939    0.000e+00    0.000000    0.000000    0.000000    0.000000
     1        -0.271884174884088    9.163e-02    0.018811    0.000000    0.000000    0.000000
     2        -0.283475320661619    3.125e-02    0.021085    0.000000    0.000000    0.000000
     3        -0.286362554892162    1.387e-02    0.024811    0.000000    0.000000    0.000000
     4        -0.286425367766334    3.391e-03    0.025308    0.000000    0.000000    0.000000
     5        -0.286413323554307    9.910e-04    0.025356    0.000000    0.000000    0.000000
     6        -0.286411166029913    3.192e-04    0.025333    0.000000    0.000000    0.000000
     7        -0.286416916276319    8.492e-05    0.025322    0.000000    0.000000    0.000000
     8        -0.286416763720234    2.541e-05    0.025320    0.000000    0.000000    0.000000
     9        -0.286416582093255    8.386e-06    0.025320    0.000000    0.000000    0.000000
    10        -0.286416628957870    2.907e-06    0.025320    0.000000    0.000000    0.000000
    11        -0.286416587864806    1.046e-06    0.025320    0.000000    0.000000    0.000000
    12        -0.286416630264632    3.613e-07    0.025320    0.000000    0.000000    0.000000
    13        -0.286416627277301    1.135e-07    0.025320    0.000000    0.000000    0.000000
    14        -0.286416628910511    3.389e-08    0.025320    0.000000    0.000000    0.000000

    Iterations converged.


    Largest TIA Amplitudes:
              5  44        -0.0300923033
              4  39         0.0270874429
              4  40        -0.0189557701
              1   2        -0.0146254350
              3  30         0.0139402561
              1   3         0.0127362020
              1   7        -0.0103621761
              4  41        -0.0089800548
              3  33        -0.0078381427
              1   6        -0.0069872767

    Largest Tia Amplitudes:
              4  45         0.0339214897
              3  40         0.0262281211
              2  28         0.0224642864
              3  41        -0.0188484685
              2  29         0.0182746018
              4  46        -0.0181670914
              4  47        -0.0115886818
              3  42        -0.0084131990
              0   7         0.0075322111
              1   7        -0.0062598028

    Largest TIJAB Amplitudes:
      4   1  27  18         0.0293555642
      4   2  44  18        -0.0262212813
      4   1  28  18         0.0241331906
      2   1  44  27         0.0232137530
      5   4  10   2        -0.0226720562
      2   1  44  28         0.0193941217
      4   2  30  10         0.0157008014
      4   2  24   2         0.0156235215
      5   1  44   3        -0.0147598561
      5   3  18  10         0.0134765357

    Largest Tijab Amplitudes:
      4   3  19  13        -0.0575368100
      4   1  28  13        -0.0305824764
      4   1  29  13        -0.0292970632
      3   1  28  19         0.0281344617
      3   1  29  19         0.0272760722
      4   3  10   2         0.0213898811
      3   2  19   2         0.0155094518
      3   2  13  10         0.0150773789
      4   2  19  10        -0.0133774567
      4   1  45   3        -0.0132686776

    Largest TIjAb Amplitudes:
      4   3  18  19        -0.1531066811
      4   4  18  13         0.0899471319
      3   2  18  19        -0.0442422757
      2   4  44  13        -0.0428671385
      1   1  18  19        -0.0422946300
      1   4  27  13         0.0330082962
      1   2  39  19         0.0328833836
      3   1  18  40         0.0325268259
      1   1  27  28        -0.0313264355
      5   3  18  13        -0.0310106691

    SCF energy       (wfn)                    = -794.728971354893702
    Reference energy (file100)                = -794.728971354892451

    Opposite-spin MP2 correlation energy      =   -0.194081947365768
    Same-spin MP2 correlation energy          =   -0.069712491975172
    Singles MP2 correlation energy            =   -0.000000000000000
    MP2 correlation energy                    =   -0.263794439340939
      * MP2 total energy                      = -794.992765794233378

    Opposite-spin CCSD correlation energy     =   -0.224750477445753
    Same-spin CCSD correlation energy         =   -0.061666151464758
    Singles CCSD correlation energy           =   -0.000000000000000
    CCSD correlation energy                   =   -0.286416628910511
      * CCSD total energy                     = -795.015387983802952

            **************************
            *                        *
            *        CCTRIPLES       *
            *                        *
            **************************


    Wave function   =    CCSD_T
    Reference wfn   =      UHF

    Nuclear Rep. energy (wfn)                =   73.176730330790278
    SCF energy          (wfn)                = -794.728971354893702
    Reference energy    (file100)            = -794.728971354892451
    CCSD energy         (file100)            =   -0.286416628910511
    Total CCSD energy   (file100)            = -795.015387983802952

    Number of ijk index combinations:
    Spin Case AAA:                                  20
    Spin Case BBB:                                  10
    Spin Case AAB:                                  75
    Spin Case ABB:                                  60
    AAA (T) energy                             =   -0.000276747173125
    BBB (T) energy                             =   -0.000406689468239
    AAB (T) energy                             =   -0.007428202041690
    ABB (T) energy                             =   -0.007724946393246
    (T) energy                                   =   -0.015836585076299
      * CCSD(T) total energy                     = -795.031224568879225


    Psi4 stopped on: Tuesday, 26 January 2021 06:35PM
    Psi4 wall time for execution: 0:00:17.81

*** Psi4 exiting successfully. Buy a developer a beer!
