
    -----------------------------------------------------------------------
          Psi4: An Open-Source Ab Initio Electronic Structure Package
                               Psi4 1.4a3.dev88 

                         Git: Rev {master} 262e345 


    D. G. A. Smith, L. A. Burns, A. C. Simmonett, R. M. Parrish,
    M. C. Schieber, R. Galvelis, P. Kraus, H. Kruse, R. Di Remigio,
    A. Alenaizan, A. M. James, S. Lehtola, J. P. Misiewicz, M. Scheurer,
    R. A. Shaw, J. B. Schriber, Y. Xie, Z. L. Glick, D. A. Sirianni,
    J. S. O'Brien, J. M. Waldrop, A. Kumar, E. G. Hohenstein,
    B. P. Pritchard, B. R. Brooks, H. F. Schaefer III, A. Yu. Sokolov,
    K. Patkowski, A. E. DePrince III, U. Bozkaya, R. A. King,
    F. A. Evangelista, J. M. Turney, T. D. Crawford, C. D. Sherrill,
    J. Chem. Phys. 152(18) 184108 (2020). https://doi.org/10.1063/5.0006002

                            Additional Code Authors
    E. T. Seidl, C. L. Janssen, E. F. Valeev, M. L. Leininger,
    J. F. Gonthier, R. M. Richard, H. R. McAlexander, M. Saitow, X. Wang,
    P. Verma, and M. H. Lechner

             Previous Authors, Complete List of Code Contributors,
                       and Citations for Specific Modules
    https://github.com/psi4/psi4/blob/master/codemeta.json
    https://github.com/psi4/psi4/graphs/contributors
    http://psicode.org/psi4manual/master/introduction.html#citing-psifour

    -----------------------------------------------------------------------


    Psi4 started on: Tuesday, 26 January 2021 06:31PM

    Process ID: 410715
    Host:       n412-040.vsc4.prov
    PSIDATADIR: /home/fs71337/gallo4/psi4/eri-6/psi4/build/stage/share/psi4
    Memory:     500.0 MiB
    Threads:    48
    
  ==> Input File <==

--------------------------------------------------------------------------
# Any line starting with the # character is a comment line
memory 250000 mb
molecule molecule{
1 2
S          0.0000000000        0.0000000000        0.9256314495
S          0.0000000000        0.0000000000       -0.9256314495
}

set {
  reference uhf
  basis aug-cc-pV(t+d)Z
  scf_type OUT_OF_CORE
  freeze_core true
}

energy('ccsd(t)')
--------------------------------------------------------------------------

  Memory set to 232.831 GiB by Python driver.

Scratch directory: /binfl/lv71337/airmler/temp/

*** tstart() called on n412-040.vsc4.prov
*** at Tue Jan 26 18:31:18 2021

   => Loading Basis Set <=

    Name: AUG-CC-PV(T+D)Z
    Role: ORBITAL
    Keyword: BASIS
    atoms 1-2 entry S          line   944 file /home/fs71337/gallo4/psi4/eri-6/psi4/build/stage/share/psi4/basis/aug-cc-pv_tpd_z.gbs 


         ---------------------------------------------------------
                                   SCF
               by Justin Turney, Rob Parrish, Andy Simmonett
                          and Daniel G. A. Smith
                              UHF Reference
                       48 Threads, 238418 MiB Core
         ---------------------------------------------------------

  ==> Geometry <==

    Molecular point group: d2h
    Full point group: D_inf_h

    Geometry (in Angstrom), charge = 1, multiplicity = 2:

       Center              X                  Y                   Z               Mass       
    ------------   -----------------  -----------------  -----------------  -----------------
         S            0.000000000000     0.000000000000     0.925631449500    31.972071174400
         S            0.000000000000     0.000000000000    -0.925631449500    31.972071174400

  Running in d2h symmetry.

  Rotational constants: A = ************  B =      0.30769  C =      0.30769 [cm^-1]
  Rotational constants: A = ************  B =   9224.44464  C =   9224.44464 [MHz]
  Nuclear repulsion =   73.176730330790278

  Charge       = 1
  Multiplicity = 2
  Electrons    = 31
  Nalpha       = 16
  Nbeta        = 15

  ==> Algorithm <==

  SCF Algorithm Type is OUT_OF_CORE.
  DIIS enabled.
  MOM disabled.
  Fractional occupation disabled.
  Guess Type is SAD.
  Energy threshold   = 1.00e-08
  Density threshold  = 1.00e-08
  Integral threshold = 1.00e-12

  ==> Primary Basis <==

  Basis Set: AUG-CC-PV(T+D)Z
    Blend: AUG-CC-PV(T+D)Z
    Number of shells: 34
    Number of basis function: 110
    Number of Cartesian functions: 130
    Spherical Harmonics?: true
    Max angular momentum: 3

  ==> Integral Setup <==

  ==> DiskJK: Disk-Based J/K Matrices <==

    J tasked:                  Yes
    K tasked:                  Yes
    wK tasked:                  No
    Memory [MiB]:           178813
    Schwarz Cutoff:          1E-12

  Minimum eigenvalue in the overlap matrix is 3.3818893670E-04.
  Reciprocal condition number of the overlap matrix is 7.1976512777E-05.
    Using symmetric orthogonalization.

  ==> Pre-Iterations <==

  SCF Guess: Superposition of Atomic Densities via on-the-fly atomic UHF (no occupation information).


 WARNING: Atomic UHF is not converging! Try casting from a smaller basis or call Rob at CCMST.
   -------------------------
    Irrep   Nso     Nmo    
   -------------------------
     Ag        23      23 
     B1g        6       6 
     B2g       13      13 
     B3g       13      13 
     Au         6       6 
     B1u       23      23 
     B2u       13      13 
     B3u       13      13 
   -------------------------
    Total     110     110
   -------------------------

  ==> Iterations <==

                        Total Energy        Delta E     RMS |[F,P]|

   @UHF iter SAD:  -775.15091710489787   -7.75151e+02   0.00000e+00 
   @UHF iter   1:  -794.27002637853559   -1.91191e+01   2.15003e-02 DIIS
   @UHF iter   2:  -794.70054850347776   -4.30522e-01   1.04068e-02 DIIS
   @UHF iter   3:  -794.75608754900736   -5.55390e-02   1.09112e-03 DIIS
   @UHF iter   4:  -794.75781106770467   -1.72352e-03   3.01453e-04 DIIS
   @UHF iter   5:  -794.75806057004536   -2.49502e-04   8.85267e-05 DIIS
   @UHF iter   6:  -794.75808530690404   -2.47369e-05   1.89224e-05 DIIS
   @UHF iter   7:  -794.75808638230023   -1.07540e-06   3.11575e-06 DIIS
   @UHF iter   8:  -794.75808640653850   -2.42383e-08   7.93596e-07 DIIS
   @UHF iter   9:  -794.75808640828495   -1.74646e-09   2.28840e-07 DIIS
   @UHF iter  10:  -794.75808640845560   -1.70644e-10   6.45765e-08 DIIS
   @UHF iter  11:  -794.75808640847004   -1.44382e-11   1.44425e-08 DIIS
   @UHF iter  12:  -794.75808640847094   -9.09495e-13   2.00210e-09 DIIS
  Energy and wave function converged.


  ==> Post-Iterations <==

   @Spin Contamination Metric:   3.126507922E-02
   @S^2 Expected:                7.500000000E-01
   @S^2 Observed:                7.812650792E-01
   @S   Expected:                5.000000000E-01
   @S   Observed:                5.000000000E-01

    Orbital Energies [Eh]
    ---------------------

    Alpha Occupied:                                                       

       1Ag   -92.350039     1B1u  -92.350034     2Ag    -9.343323  
       2B1u   -9.342817     1B3u   -7.030668     1B2g   -7.030588  
       1B2u   -7.020353     3Ag    -7.020237     1B3g   -7.020231  
       3B1u   -7.018948     4Ag    -1.404588     4B1u   -1.115212  
       2B3u   -0.826464     5Ag    -0.819888     2B2u   -0.744993  
       2B2g   -0.658688  

    Alpha Virtual:                                                        

       2B3g   -0.314508     5B1u   -0.118258     6Ag    -0.089512  
       3B2u   -0.065610     3B3u   -0.062412     7Ag    -0.048114  
       6B1u   -0.043336     3B2g   -0.022667     3B3g   -0.020912  
       1B1g   -0.001385     8Ag    -0.001083     4B3u    0.047903  
       7B1u    0.058807     4B2u    0.064628     9Ag     0.110740  
       1Au     0.126181     8B1u    0.126554     4B2g    0.208853  
       4B3g    0.213798     9B1u    0.223477     5B2u    0.284073  
       5B3u    0.286630     6B3u    0.367107    10Ag     0.380464  
       6B2u    0.381410     2B1g    0.381662    11Ag     0.390817  
      12Ag     0.397341    10B1u    0.408567     5B2g    0.412918  
       5B3g    0.418087     2Au     0.481220    11B1u    0.481613  
      13Ag     0.521168     7B3u    0.537051     7B2u    0.537060  
       6B2g    0.590501     6B3g    0.600557     3B1g    0.629343  
      14Ag     0.629603     7B2g    0.701062     7B3g    0.701066  
      12B1u    0.749608     8B2u    0.885891     8B3u    0.890526  
      13B1u    0.913150     3Au     0.913418    14B1u    0.982813  
       8B3g    1.071649     8B2g    1.074933    15Ag     1.179613  
      15B1u    1.292260    16Ag     1.586803     4B1g    1.586805  
       9B2u    1.630586     9B3u    1.640674    16B1u    1.657066  
       4Au     1.670429    17B1u    1.671002     9B3g    1.798404  
       9B2g    1.798774    17Ag     1.821951    18Ag     1.913643  
       5B1g    1.914189    19Ag     1.927276    10B2u    1.945547  
      10B3u    1.948929    11B2u    1.993115    11B3u    1.993120  
      12B3u    2.038404    12B2u    2.045856    10B3g    2.078452  
      10B2g    2.078454    18B1u    2.271258     5Au     2.271417  
      11B3g    2.301803    11B2g    2.304849    19B1u    2.417412  
      12B3g    2.644818    12B2g    2.650289    20Ag     2.724092  
      20B1u    3.583376    21Ag     4.690887    21B1u    5.391735  
      22Ag     6.950561     6B1g    6.950706    13B2u    6.977880  
      13B3u    6.987636     6Au     6.989511    22B1u    6.989521  
      23Ag     7.079775    13B3g    7.144452    13B2g    7.153800  
      23B1u    7.533973  

    Beta Occupied:                                                        

       1Ag   -92.343926     1B1u  -92.343920     2Ag    -9.336775  
       2B1u   -9.336206     3Ag    -7.017521     1B2u   -7.017102  
       1B3g   -7.016978     3B1u   -7.016197     1B3u   -7.003483  
       1B2g   -7.003356     4Ag    -1.373867     4B1u   -1.040907  
       5Ag    -0.798251     2B2u   -0.738971     2B3u   -0.706603  

    Beta Virtual:                                                         

       2B3g   -0.302193     2B2g   -0.259420     5B1u   -0.108281  
       6Ag    -0.089679     3B2u   -0.065495     3B3u   -0.060386  
       7Ag    -0.046963     6B1u   -0.038107     3B3g   -0.020252  
       3B2g   -0.015452     1B1g    0.008679     8Ag     0.009066  
       7B1u    0.061214     4B2u    0.064688     4B3u    0.082528  
       9Ag     0.116254     1Au     0.143068     8B1u    0.143418  
       4B3g    0.215044     4B2g    0.224476     9B1u    0.228341  
       5B2u    0.284871     5B3u    0.298070     6B2u    0.383239  
      10Ag     0.390371    11Ag     0.399525     2B1g    0.400211  
       6B3u    0.404689    12Ag     0.406276    10B1u    0.412543  
       5B3g    0.420375     5B2g    0.436902     2Au     0.517503  
      11B1u    0.517735    13Ag     0.528608     7B2u    0.541984  
       7B3u    0.541992     6B3g    0.601313     6B2g    0.622100  
       3B1g    0.639372    14Ag     0.640287     7B3g    0.710676  
       7B2g    0.710685    12B1u    0.759506     8B2u    0.886391  
       8B3u    0.901973    13B1u    0.919638     3Au     0.920200  
      14B1u    0.989626     8B3g    1.073549     8B2g    1.090747  
      15Ag     1.192874    15B1u    1.303424     4B1g    1.604587  
      16Ag     1.605375     9B2u    1.631245     9B3u    1.649304  
      16B1u    1.658478     4Au     1.686734    17B1u    1.690668  
       9B3g    1.800980    17Ag     1.822900     9B2g    1.827661  
      18Ag     1.919423     5B1g    1.924587    19Ag     1.935915  
      10B2u    1.946627    10B3u    1.971120    11B2u    2.016557  
      11B3u    2.016982    12B2u    2.049894    12B3u    2.076492  
      10B3g    2.101841    10B2g    2.101859    18B1u    2.285168  
       5Au     2.286361    11B3g    2.305064    11B2g    2.328105  
      19B1u    2.426564    12B3g    2.646588    12B2g    2.671874  
      20Ag     2.729434    20B1u    3.585848    21Ag     4.702665  
      21B1u    5.402150    22Ag     6.957149     6B1g    6.957493  
      13B2u    6.978481    13B3u    6.993378     6Au     6.996411  
      22B1u    6.996469    23Ag     7.081800    13B3g    7.145229  
      13B2g    7.160277    23B1u    7.537094  

    Final Occupation by Irrep:
             Ag   B1g   B2g   B3g    Au   B1u   B2u   B3u 
    DOCC [     5,    0,    1,    1,    0,    4,    2,    2 ]
    SOCC [     0,    0,    1,    0,    0,    0,    0,    0 ]

  @UHF Final Energy:  -794.75808640847094

   => Energetics <=

    Nuclear Repulsion Energy =             73.1767303307902779
    One-Electron Energy =               -1234.6784998133334739
    Two-Electron Energy =                 366.7436830740723508
    Total Energy =                       -794.7580864084709447

  UHF NO Occupations:
  HONO-2 :    4B1u 1.9971991
  HONO-1 :    2B3u 1.9896917
  HONO-0 :    2B2g 1.0000000
  LUNO+0 :    3B3u 0.0103083
  LUNO+1 :    5B1u 0.0028009
  LUNO+2 :    6 Ag 0.0024101
  LUNO+3 :    3B2u 0.0001121


Computation Completed


Properties will be evaluated at   0.000000,   0.000000,   0.000000 [a0]

Properties computed using the SCF density matrix

  Nuclear Dipole Moment: [e a0]
     X:     0.0000      Y:     0.0000      Z:     0.0000

  Electronic Dipole Moment: [e a0]
     X:     0.0000      Y:     0.0000      Z:     0.0000

  Dipole Moment: [e a0]
     X:     0.0000      Y:     0.0000      Z:     0.0000     Total:     0.0000

  Dipole Moment: [D]
     X:     0.0000      Y:     0.0000      Z:     0.0000     Total:     0.0000


*** tstop() called on n412-040.vsc4.prov at Tue Jan 26 18:31:29 2021
Module time:
	user time   =      35.27 seconds =       0.59 minutes
	system time =       2.35 seconds =       0.04 minutes
	total time  =         11 seconds =       0.18 minutes
Total time:
	user time   =      35.27 seconds =       0.59 minutes
	system time =       2.35 seconds =       0.04 minutes
	total time  =         11 seconds =       0.18 minutes

*** tstart() called on n412-040.vsc4.prov
*** at Tue Jan 26 18:31:29 2021


	Wfn Parameters:
	--------------------
	Wavefunction         = CCSD_T
	Number of irreps     = 8
	Number of MOs        = 110
	Number of active MOs = 100
	AO-Basis             = NONE
	Semicanonical        = false
	Reference            = UHF
	Print Level          = 1

	IRREP	# MOs	# FZDC	# DOCC	# SOCC	# VIRT	# FZVR
	-----	-----	------	------	------	------	------
	 Ag	   23	    3	    2	    0	    18	    0
	 B1g	   6	    0	    0	    0	    6	    0
	 B2g	   13	    1	    0	    1	    11	    0
	 B3g	   13	    1	    0	    0	    12	    0
	 Au	   6	    0	    0	    0	    6	    0
	 B1u	   23	    3	    1	    0	    19	    0
	 B2u	   13	    1	    1	    0	    11	    0
	 B3u	   13	    1	    1	    0	    11	    0
	Transforming integrals...
	IWL integrals will be deleted.
	(OO|OO)...
	Presorting SO-basis two-electron integrals.
	Sorting File: SO Ints (nn|nn) nbuckets = 1
	Constructing frozen core operators
	Starting AA/AB first half-transformation.
	Sorting AA/AB half-transformed integrals.
	Starting BB first half-transformation.
	Sorting BB half-transformed integrals.
	First half integral transformation complete.
	Starting AA second half-transformation.
	Starting AB second half-transformation.
	Starting BB second half-transformation.
	Two-electron integral transformation complete.
	(OO|OV)...
	Starting AA second half-transformation.
	Starting AB second half-transformation.
	Starting BB second half-transformation.
	Two-electron integral transformation complete.
	(OO|VV)...
	Starting AA second half-transformation.
	Starting AB second half-transformation.
	Starting BB second half-transformation.
	Two-electron integral transformation complete.
	(OV|OO)...
	Starting AA/AB first half-transformation.
	Sorting AA/AB half-transformed integrals.
	Starting BB first half-transformation.
	Sorting BB half-transformed integrals.
	First half integral transformation complete.
	Starting AA second half-transformation.
	Starting AB second half-transformation.
	Starting BB second half-transformation.
	Two-electron integral transformation complete.
	(OV|OV)...
	Starting AA second half-transformation.
	Starting AB second half-transformation.
	Starting BB second half-transformation.
	Two-electron integral transformation complete.
	(OV|VV)...
	Starting AA second half-transformation.
	Starting AB second half-transformation.
	Starting BB second half-transformation.
	Two-electron integral transformation complete.
	(VV|OO)...
	Starting AA/AB first half-transformation.
	Sorting AA/AB half-transformed integrals.
	Starting BB first half-transformation.
	Sorting BB half-transformed integrals.
	First half integral transformation complete.
	Starting AA second half-transformation.
	Starting AB second half-transformation.
	Starting BB second half-transformation.
	Two-electron integral transformation complete.
	(VV|OV)...
	Starting AA second half-transformation.
	Starting AB second half-transformation.
	Starting BB second half-transformation.
	Two-electron integral transformation complete.
	(VV|VV)...
	Starting AA second half-transformation.
	Starting AB second half-transformation.
	Starting BB second half-transformation.
	Two-electron integral transformation complete.
	Frozen core energy     =   -837.99064751583103

	Size of irrep 0 of <AB|CD> integrals:      0.342 (MW) /      2.738 (MB)
	Size of irrep 1 of <AB|CD> integrals:      0.226 (MW) /      1.805 (MB)
	Size of irrep 2 of <AB|CD> integrals:      0.297 (MW) /      2.376 (MB)
	Size of irrep 3 of <AB|CD> integrals:      0.310 (MW) /      2.482 (MB)
	Size of irrep 4 of <AB|CD> integrals:      0.226 (MW) /      1.805 (MB)
	Size of irrep 5 of <AB|CD> integrals:      0.398 (MW) /      3.185 (MB)
	Size of irrep 6 of <AB|CD> integrals:      0.311 (MW) /      2.491 (MB)
	Size of irrep 7 of <AB|CD> integrals:      0.297 (MW) /      2.376 (MB)
	Total:                                     2.407 (MW) /     19.258 (MB)

	Size of irrep 0 of <ab|cd> integrals:      0.355 (MW) /      2.842 (MB)
	Size of irrep 1 of <ab|cd> integrals:      0.237 (MW) /      1.897 (MB)
	Size of irrep 2 of <ab|cd> integrals:      0.317 (MW) /      2.536 (MB)
	Size of irrep 3 of <ab|cd> integrals:      0.317 (MW) /      2.536 (MB)
	Size of irrep 4 of <ab|cd> integrals:      0.236 (MW) /      1.890 (MB)
	Size of irrep 5 of <ab|cd> integrals:      0.412 (MW) /      3.297 (MB)
	Size of irrep 6 of <ab|cd> integrals:      0.318 (MW) /      2.545 (MB)
	Size of irrep 7 of <ab|cd> integrals:      0.318 (MW) /      2.545 (MB)
	Total:                                     2.511 (MW) /     20.087 (MB)

	Size of irrep 0 of <Ab|Cd> integrals:      1.626 (MW) /     13.005 (MB)
	Size of irrep 1 of <Ab|Cd> integrals:      0.925 (MW) /      7.404 (MB)
	Size of irrep 2 of <Ab|Cd> integrals:      1.228 (MW) /      9.821 (MB)
	Size of irrep 3 of <Ab|Cd> integrals:      1.254 (MW) /     10.035 (MB)
	Size of irrep 4 of <Ab|Cd> integrals:      0.924 (MW) /      7.388 (MB)
	Size of irrep 5 of <Ab|Cd> integrals:      1.621 (MW) /     12.964 (MB)
	Size of irrep 6 of <Ab|Cd> integrals:      1.259 (MW) /     10.071 (MB)
	Size of irrep 7 of <Ab|Cd> integrals:      1.230 (MW) /      9.839 (MB)
	Total:                                    10.066 (MW) /     80.528 (MB)

	Size of irrep 0 of <IA|BC> integrals:      0.111 (MW) /      0.890 (MB)
	Size of irrep 1 of <IA|BC> integrals:      0.049 (MW) /      0.395 (MB)
	Size of irrep 2 of <IA|BC> integrals:      0.083 (MW) /      0.663 (MB)
	Size of irrep 3 of <IA|BC> integrals:      0.074 (MW) /      0.588 (MB)
	Size of irrep 4 of <IA|BC> integrals:      0.049 (MW) /      0.395 (MB)
	Size of irrep 5 of <IA|BC> integrals:      0.114 (MW) /      0.909 (MB)
	Size of irrep 6 of <IA|BC> integrals:      0.071 (MW) /      0.571 (MB)
	Size of irrep 7 of <IA|BC> integrals:      0.083 (MW) /      0.663 (MB)
	Total:                                     0.634 (MW) /      5.074 (MB)

	Size of irrep 0 of <ia|bc> integrals:      0.099 (MW) /      0.793 (MB)
	Size of irrep 1 of <ia|bc> integrals:      0.039 (MW) /      0.312 (MB)
	Size of irrep 2 of <ia|bc> integrals:      0.068 (MW) /      0.540 (MB)
	Size of irrep 3 of <ia|bc> integrals:      0.068 (MW) /      0.540 (MB)
	Size of irrep 4 of <ia|bc> integrals:      0.041 (MW) /      0.327 (MB)
	Size of irrep 5 of <ia|bc> integrals:      0.103 (MW) /      0.822 (MB)
	Size of irrep 6 of <ia|bc> integrals:      0.065 (MW) /      0.523 (MB)
	Size of irrep 7 of <ia|bc> integrals:      0.065 (MW) /      0.523 (MB)
	Total:                                     0.548 (MW) /      4.381 (MB)

	Size of irrep 0 of <Ia|Bc> integrals:      0.113 (MW) /      0.908 (MB)
	Size of irrep 1 of <Ia|Bc> integrals:      0.050 (MW) /      0.400 (MB)
	Size of irrep 2 of <Ia|Bc> integrals:      0.086 (MW) /      0.691 (MB)
	Size of irrep 3 of <Ia|Bc> integrals:      0.074 (MW) /      0.591 (MB)
	Size of irrep 4 of <Ia|Bc> integrals:      0.051 (MW) /      0.407 (MB)
	Size of irrep 5 of <Ia|Bc> integrals:      0.116 (MW) /      0.927 (MB)
	Size of irrep 6 of <Ia|Bc> integrals:      0.072 (MW) /      0.574 (MB)
	Size of irrep 7 of <Ia|Bc> integrals:      0.085 (MW) /      0.683 (MB)
	Total:                                     0.648 (MW) /      5.183 (MB)

	Size of irrep 0 of <iA|bC> integrals:      0.098 (MW) /      0.785 (MB)
	Size of irrep 1 of <iA|bC> integrals:      0.038 (MW) /      0.308 (MB)
	Size of irrep 2 of <iA|bC> integrals:      0.064 (MW) /      0.514 (MB)
	Size of irrep 3 of <iA|bC> integrals:      0.067 (MW) /      0.538 (MB)
	Size of irrep 4 of <iA|bC> integrals:      0.039 (MW) /      0.315 (MB)
	Size of irrep 5 of <iA|bC> integrals:      0.101 (MW) /      0.805 (MB)
	Size of irrep 6 of <iA|bC> integrals:      0.065 (MW) /      0.521 (MB)
	Size of irrep 7 of <iA|bC> integrals:      0.063 (MW) /      0.506 (MB)
	Total:                                     0.536 (MW) /      4.291 (MB)

	Size of irrep 0 of tIjAb amplitudes:       0.009 (MW) /      0.071 (MB)
	Size of irrep 1 of tIjAb amplitudes:       0.002 (MW) /      0.015 (MB)
	Size of irrep 2 of tIjAb amplitudes:       0.004 (MW) /      0.035 (MB)
	Size of irrep 3 of tIjAb amplitudes:       0.002 (MW) /      0.018 (MB)
	Size of irrep 4 of tIjAb amplitudes:       0.001 (MW) /      0.008 (MB)
	Size of irrep 5 of tIjAb amplitudes:       0.006 (MW) /      0.051 (MB)
	Size of irrep 6 of tIjAb amplitudes:       0.004 (MW) /      0.036 (MB)
	Size of irrep 7 of tIjAb amplitudes:       0.006 (MW) /      0.044 (MB)
	Total:                                     0.035 (MW) /      0.279 (MB)

	Nuclear Rep. energy          =     73.17673033079028
	SCF energy                   =   -794.75808640847094
	One-electron energy          =    -49.65990681262309
	Two-electron (AA) energy     =      4.85281626398753
	Two-electron (BB) energy     =      3.27877928239683
	Two-electron (AB) energy     =     11.58414204281080
	Two-electron energy          =     19.71573758919516
	Reference energy             =   -794.75808640846867

*** tstop() called on n412-040.vsc4.prov at Tue Jan 26 18:31:39 2021
Module time:
	user time   =       1.95 seconds =       0.03 minutes
	system time =       1.38 seconds =       0.02 minutes
	total time  =         10 seconds =       0.17 minutes
Total time:
	user time   =      37.22 seconds =       0.62 minutes
	system time =       3.73 seconds =       0.06 minutes
	total time  =         21 seconds =       0.35 minutes
            **************************
            *                        *
            *        CCENERGY        *
            *                        *
            **************************

    Nuclear Rep. energy (wfn)     =   73.176730330790278
    SCF energy          (wfn)     = -794.758086408470945
    Reference energy    (file100) = -794.758086408468671

    Input parameters:
    -----------------
    Wave function   =     CCSD_T
    Reference wfn   =     UHF
    Brueckner       =     No
    Memory (Mbytes) =     250000.0
    Maxiter         =     50
    R_Convergence   =     1.0e-07
    E_Convergence   =     1.0e-06
    Restart         =     Yes
    DIIS            =     Yes
    AO Basis        =     NONE
    ABCD            =     NEW
    Cache Level     =     2
    Cache Type      =     LRU
    Print Level     =     1
    Num. of threads =     48
    # Amps to Print =     10
    Print MP2 Amps? =     No
    Analyze T2 Amps =     No
    Print Pair Ener =     No
    Local CC        =     No
    SCS-MP2         =     False
    SCSN-MP2        =     False
    SCS-CCSD        =     False

MP2 correlation energy -0.3218259118424161
                Solving CC Amplitude Equations
                ------------------------------
  Iter             Energy              RMS        T1Diag      D1Diag    New D1Diag    D2Diag
  ----     ---------------------    ---------   ----------  ----------  ----------   --------
     0        -0.321825911842416    0.000e+00    0.000000    0.000000    0.000000    0.000000
     1        -0.328191357020850    9.451e-02    0.019375    0.000000    0.000000    0.000000
     2        -0.341142489088210    3.245e-02    0.021273    0.000000    0.000000    0.000000
     3        -0.344460563106724    1.476e-02    0.025599    0.000000    0.000000    0.000000
     4        -0.344403197312695    3.283e-03    0.026300    0.000000    0.000000    0.000000
     5        -0.344406689694166    9.730e-04    0.026437    0.000000    0.000000    0.000000
     6        -0.344397654838896    3.049e-04    0.026438    0.000000    0.000000    0.000000
     7        -0.344400563009918    8.139e-05    0.026432    0.000000    0.000000    0.000000
     8        -0.344401924584066    2.658e-05    0.026430    0.000000    0.000000    0.000000
     9        -0.344401436094918    8.982e-06    0.026429    0.000000    0.000000    0.000000
    10        -0.344401495321359    3.077e-06    0.026429    0.000000    0.000000    0.000000
    11        -0.344401470311335    9.649e-07    0.026429    0.000000    0.000000    0.000000
    12        -0.344401517753043    3.594e-07    0.026429    0.000000    0.000000    0.000000
    13        -0.344401517498647    1.193e-07    0.026429    0.000000    0.000000    0.000000
    14        -0.344401518553520    3.989e-08    0.026429    0.000000    0.000000    0.000000

    Iterations converged.


    Largest TIA Amplitudes:
              5  84         0.0323120689
              4  73        -0.0217187394
              4  75         0.0198226021
              5  86        -0.0148843773
              1   2        -0.0134456872
              4  74         0.0133076387
              3  59         0.0119365428
              3  56         0.0116499500
              1   7        -0.0105864758
              1   3         0.0088308997

    Largest Tia Amplitudes:
              4  85         0.0290357670
              4  87        -0.0254806621
              2  54         0.0246461354
              3  74        -0.0210917796
              3  76         0.0194257883
              2  55         0.0187315394
              3  75         0.0131348574
              4  86        -0.0112852294
              2  58        -0.0083545178
              3  82        -0.0073031732

    Largest TIJAB Amplitudes:
      4   1  53  35        -0.0284554624
      4   2  84  35        -0.0243688514
      4   1  54  35        -0.0227747914
      2   1  84  53        -0.0205577638
      5   4  18   2         0.0169398461
      2   1  84  54        -0.0166783612
      4   2  86  35         0.0153820678
      2   1  86  53         0.0134114318
      5   4  19   2         0.0134002690
      5   4  18   4         0.0129933464

    Largest Tijab Amplitudes:
      4   3  36  24        -0.0579466628
      4   1  54  24         0.0290491341
      4   1  55  24         0.0275280656
      3   1  54  36        -0.0270724064
      3   1  55  36        -0.0259180447
      4   3  18   2        -0.0157152311
      4   1  58  24        -0.0134205009
      3   2  36   2        -0.0130237739
      3   1  58  36         0.0128345715
      3   2  24  18         0.0127444716

    Largest TIjAb Amplitudes:
      4   3  35  36        -0.1458584820
      4   4  35  24         0.0860894412
      3   2  35  36        -0.0430052140
      1   1  35  36        -0.0411986393
      2   4  84  24        -0.0395567960
      1   4  53  24        -0.0316689973
      1   3  53  36         0.0299871892
      1   1  53  54        -0.0288029914
      1   2  73  36         0.0280752587
      3   1  35  74         0.0280167796

    SCF energy       (wfn)                    = -794.758086408470945
    Reference energy (file100)                = -794.758086408468671

    Opposite-spin MP2 correlation energy      =   -0.241827460715291
    Same-spin MP2 correlation energy          =   -0.079998451127125
    Singles MP2 correlation energy            =   -0.000000000000000
    MP2 correlation energy                    =   -0.321825911842416
      * MP2 total energy                      = -795.079912320311109

    Opposite-spin CCSD correlation energy     =   -0.272821466080898
    Same-spin CCSD correlation energy         =   -0.071580052472622
    Singles CCSD correlation energy           =    0.000000000000000
    CCSD correlation energy                   =   -0.344401518553520
      * CCSD total energy                     = -795.102487927022139

            **************************
            *                        *
            *        CCTRIPLES       *
            *                        *
            **************************


    Wave function   =    CCSD_T
    Reference wfn   =      UHF

    Nuclear Rep. energy (wfn)                =   73.176730330790278
    SCF energy          (wfn)                = -794.758086408470945
    Reference energy    (file100)            = -794.758086408468671
    CCSD energy         (file100)            =   -0.344401518553520
    Total CCSD energy   (file100)            = -795.102487927022139

    Number of ijk index combinations:
    Spin Case AAA:                                  20
    Spin Case BBB:                                  10
    Spin Case AAB:                                  75
    Spin Case ABB:                                  60
    AAA (T) energy                             =   -0.000487102643222
    BBB (T) energy                             =   -0.000561709835660
    AAB (T) energy                             =   -0.011063862367674
    ABB (T) energy                             =   -0.010961215242847
    (T) energy                                   =   -0.023073890089403
      * CCSD(T) total energy                     = -795.125561817111588


    Psi4 stopped on: Tuesday, 26 January 2021 06:31PM
    Psi4 wall time for execution: 0:00:35.59

*** Psi4 exiting successfully. Buy a developer a beer!
