
    -----------------------------------------------------------------------
          Psi4: An Open-Source Ab Initio Electronic Structure Package
                               Psi4 1.2a1.dev939 

                         Git: Rev {HEAD} fa1ec19 dirty


    R. M. Parrish, L. A. Burns, D. G. A. Smith, A. C. Simmonett,
    A. E. DePrince III, E. G. Hohenstein, U. Bozkaya, A. Yu. Sokolov,
    R. Di Remigio, R. M. Richard, J. F. Gonthier, A. M. James,
    H. R. McAlexander, A. Kumar, M. Saitow, X. Wang, B. P. Pritchard,
    P. Verma, H. F. Schaefer III, K. Patkowski, R. A. King, E. F. Valeev,
    F. A. Evangelista, J. M. Turney, T. D. Crawford, and C. D. Sherrill,
    J. Chem. Theory Comput. 13(7) pp 3185--3197 (2017).
    (doi: 10.1021/acs.jctc.7b00174)

    -----------------------------------------------------------------------


    Psi4 started on: Friday, 30 October 2020 05:31PM

    Process ID: 192883
    PSIDATADIR: /home/fs71337/airmler/src/psi4_uhf/build/stage/usr/local/psi4/share/psi4
    Memory:     500.0 MiB
    Threads:    48
    
  ==> Input File <==

--------------------------------------------------------------------------
# Any line starting with the # character is a comment line
memory 250000 mb
molecule molecule{
1 2
C          0.0000000910        0.0000000000        0.6264717001
C         -0.0000000910        0.0000000000       -0.6264716992
H          0.0000003986        0.0000000000       -1.7031368583
H         -0.0000003989        0.0000000000        1.7031368473
}

set {
  reference uhf
  basis aug-cc-pv(5+d)z
  scf_type OUT_OF_CORE
  freeze_core true
}

energy('ccsd')
--------------------------------------------------------------------------

  Memory set to 232.831 GiB by Python driver.

*** tstart() called on n412-019.vsc4.prov
*** at Fri Oct 30 17:31:03 2020

   => Loading Basis Set <=

    Name: AUG-CC-PV(5+D)Z
    Role: ORBITAL
    Keyword: BASIS
    atoms 1-2 entry C          line   223 file /home/fs71337/airmler/src/psi4_uhf/build/stage/usr/local/psi4/share/psi4/basis/aug-cc-pv_5pd_z.gbs 
    atoms 3-4 entry H          line    56 file /home/fs71337/airmler/src/psi4_uhf/build/stage/usr/local/psi4/share/psi4/basis/aug-cc-pv_5pd_z.gbs 


         ---------------------------------------------------------
                                   SCF
            by Justin Turney, Rob Parrish, Andy Simmonett
                             and Daniel Smith
                              UHF Reference
                       48 Threads, 238418 MiB Core
         ---------------------------------------------------------

  ==> Geometry <==

    Molecular point group: cs
    Full point group: C_inf_v

    Geometry (in Angstrom), charge = 1, multiplicity = 2:

       Center              X                  Y                   Z               Mass       
    ------------   -----------------  -----------------  -----------------  -----------------
           C          0.000000000012     0.000000000000     0.626471700111    12.000000000000
           C          0.000000000012     0.000000000000    -0.626471699189    12.000000000000
           H          0.000000646006     0.000000000000    -1.703136858289     1.007825032070
           H         -0.000000646283     0.000000000000     1.703136847311     1.007825032070

  Running in cs symmetry.

  Rotational constants: A = ************  B =      1.10426  C =      1.10426 [cm^-1]
  Rotational constants: A = ************  B =  33104.98449  C =  33104.98449 [MHz]
  Nuclear repulsion =   23.983647702346037

  Charge       = 1
  Multiplicity = 2
  Electrons    = 13
  Nalpha       = 7
  Nbeta        = 6

  ==> Algorithm <==

  SCF Algorithm Type is OUT_OF_CORE.
  DIIS enabled.
  MOM disabled.
  Fractional occupation disabled.
  Guess Type is GWH.
  Energy threshold   = 1.00e-08
  Density threshold  = 1.00e-08
  Integral threshold = 0.00e+00

  ==> Primary Basis <==

  Basis Set: AUG-CC-PV(5+D)Z
    Blend: AUG-CC-PV(5+D)Z
    Number of shells: 94
    Number of basis function: 414
    Number of Cartesian functions: 574
    Spherical Harmonics?: true
    Max angular momentum: 5

  ==> Pre-Iterations <==

   -------------------------------------------------------
    Irrep   Nso     Nmo     Nalpha   Nbeta   Ndocc  Nsocc
   -------------------------------------------------------
     A'       254     254       0       0       0       0
     A"       160     160       0       0       0       0
   -------------------------------------------------------
    Total     414     414       7       6       6       1
   -------------------------------------------------------

  ==> Integral Setup <==

  ==> DiskJK: Disk-Based J/K Matrices <==

    J tasked:                  Yes
    K tasked:                  Yes
    wK tasked:                  No
    Memory (MB):            178813
    Schwarz Cutoff:          1E-12

  Minimum eigenvalue in the overlap matrix is 1.5522722275E-07.
  Using Symmetric Orthogonalization.

  SCF Guess: Generalized Wolfsberg-Helmholtz.

  ==> Iterations <==

                        Total Energy        Delta E     RMS |[F,P]|

   @UHF iter   1:   -69.61849894503494   -6.96185e+01   1.12973e-01 
   @UHF iter   2:   -76.29554389237187   -6.67704e+00   1.02406e-02 DIIS
   @UHF iter   3:   -76.48356415497493   -1.88020e-01   2.46914e-03 DIIS
   @UHF iter   4:   -76.49497121551762   -1.14071e-02   2.19657e-04 DIIS
   @UHF iter   5:   -76.49518654332373   -2.15328e-04   5.67760e-05 DIIS
   @UHF iter   6:   -76.49520372522953   -1.71819e-05   1.34488e-05 DIIS
   @UHF iter   7:   -76.49520490210186   -1.17687e-06   4.52806e-06 DIIS
   @UHF iter   8:   -76.49520507933944   -1.77238e-07   1.51679e-06 DIIS
   @UHF iter   9:   -76.49520509838406   -1.90446e-08   1.93734e-07 DIIS
   @UHF iter  10:   -76.49520509865275   -2.68685e-10   4.14226e-08 DIIS
   @UHF iter  11:   -76.49520509866305   -1.03029e-11   5.89949e-09 DIIS

  ==> Post-Iterations <==

   @Spin Contamination Metric:   5.093224364E-03
   @S^2 Expected:                7.500000000E-01
   @S^2 Observed:                7.550932244E-01
   @S   Expected:                5.000000000E-01
   @S   Observed:                5.000000000E-01

    Orbital Energies (a.u.)
    -----------------------

    Alpha Occupied:                                                       

       1Ap   -11.636563     2Ap   -11.633499     3Ap    -1.412030  
       4Ap    -1.095950     5Ap    -1.006875     1App   -0.803487  
       6Ap    -0.754591  

    Alpha Virtual:                                                        

       2App   -0.170242     7Ap    -0.143152     8Ap    -0.111888  
       9Ap    -0.096483     3App   -0.079690    10Ap    -0.075249  
      11Ap    -0.063914     4App   -0.036773    12Ap    -0.034066  
      13Ap    -0.033193    14Ap    -0.024363    15Ap     0.005295  
      16Ap     0.013629     5App    0.014357    17Ap     0.024438  
       6App    0.045618    18Ap     0.049088    19Ap     0.059844  
       7App    0.083472    20Ap     0.083498     8App    0.087284  
       9App    0.089175    21Ap     0.095691    22Ap     0.095989  
      23Ap     0.104469    24Ap     0.111587    10App    0.134977  
      25Ap     0.136899    26Ap     0.160686    27Ap     0.200280  
      28Ap     0.212616    11App    0.230429    29Ap     0.235392  
      30Ap     0.238099    12App    0.308425    31Ap     0.308856  
      13App    0.326523    32Ap     0.326617    33Ap     0.335741  
      14App    0.336448    15App    0.336987    34Ap     0.341539  
      35Ap     0.346560    36Ap     0.356405    16App    0.376786  
      37Ap     0.377329    17App    0.394955    38Ap     0.395156  
      18App    0.436072    39Ap     0.441000    19App    0.463116  
      40Ap     0.463169    20App    0.473667    41Ap     0.486298  
      42Ap     0.491360    43Ap     0.497235    21App    0.503082  
      44Ap     0.503283    45Ap     0.511947    46Ap     0.564804  
      22App    0.607163    47Ap     0.620452    23App    0.672447  
      48Ap     0.677368    49Ap     0.679545    50Ap     0.695529  
      51Ap     0.703436    24App    0.732385    52Ap     0.732962  
      25App    0.800460    53Ap     0.812207    26App    0.831717  
      54Ap     0.832032    27App    0.882603    55Ap     0.893023  
      56Ap     0.898031    28App    0.959252    57Ap     0.969111  
      58Ap     0.972008    29App    0.988196    59Ap     0.998780  
      30App    1.016219    60Ap     1.016222    61Ap     1.071856  
      62Ap     1.077103    31App    1.134994    63Ap     1.135162  
      32App    1.157606    64Ap     1.157606    65Ap     1.181575  
      33App    1.203929    66Ap     1.216441    67Ap     1.237045  
      34App    1.237048    68Ap     1.240805    35App    1.248797  
      69Ap     1.248858    36App    1.275653    70Ap     1.275726  
      71Ap     1.278803    37App    1.286518    72Ap     1.292015  
      38App    1.370064    73Ap     1.382025    39App    1.396455  
      74Ap     1.411007    40App    1.458142    75Ap     1.458181  
      41App    1.464525    76Ap     1.470180    77Ap     1.499729  
      78Ap     1.508428    42App    1.508429    79Ap     1.588118  
      80Ap     1.591336    43App    1.591736    81Ap     1.596155  
      44App    1.596319    45App    1.605687    82Ap     1.607680  
      83Ap     1.615727    46App    1.679211    84Ap     1.680781  
      85Ap     1.692291    47App    1.824007    86Ap     1.824041  
      48App    1.914181    87Ap     1.925927    88Ap     1.985112  
      89Ap     2.023261    49App    2.029174    90Ap     2.038767  
      91Ap     2.042427    50App    2.092525    92Ap     2.115305  
      93Ap     2.164089    51App    2.168840    94Ap     2.187998  
      52App    2.265432    95Ap     2.265447    53App    2.297729  
      96Ap     2.324308    97Ap     2.384804    54App    2.491855  
      98Ap     2.513987    55App    2.536936    99Ap     2.547980  
     100Ap     2.611012    56App    2.611120    57App    2.626702  
     101Ap     2.626891   102Ap     2.714404    58App    2.730048  
     103Ap     2.730048   104Ap     2.753096    59App    2.753100  
      60App    2.828050   105Ap     2.837613   106Ap     2.871301  
      61App    2.908015   107Ap     2.908015    62App    2.997142  
     108Ap     2.997149    63App    3.065879   109Ap     3.065879  
     110Ap     3.076749    64App    3.121773   111Ap     3.121774  
      65App    3.135746   112Ap     3.136096    66App    3.152215  
     113Ap     3.158626   114Ap     3.161847   115Ap     3.237956  
      67App    3.263397   116Ap     3.263501   117Ap     3.416650  
      68App    3.440553   118Ap     3.440553   119Ap     3.459691  
      69App    3.459807   120Ap     3.460951    70App    3.461053  
      71App    3.493716   121Ap     3.493728    72App    3.528276  
     122Ap     3.539419   123Ap     3.539576    73App    3.570861  
     124Ap     3.570995   125Ap     3.596376    74App    3.613784  
     126Ap     3.616483   127Ap     3.731429    75App    3.732484  
     128Ap     3.732505    76App    3.782950   129Ap     3.782954  
      77App    3.785252   130Ap     3.803807   131Ap     3.830545  
      78App    3.830545    79App    3.856668   132Ap     3.872953  
     133Ap     3.891689    80App    3.891690   134Ap     3.930399  
     135Ap     3.971157    81App    4.031242   136Ap     4.031315  
      82App    4.061240   137Ap     4.086273    83App    4.213745  
     138Ap     4.213848    84App    4.263424   139Ap     4.263700  
      85App    4.274743   140Ap     4.274750   141Ap     4.287194  
      86App    4.386163   142Ap     4.413836    87App    4.493924  
     143Ap     4.493924    88App    4.620621   144Ap     4.641763  
      89App    4.647944   145Ap     4.648238   146Ap     4.760028  
      90App    4.891811   147Ap     4.916242    91App    4.977188  
     148Ap     4.995322    92App    5.093757   149Ap     5.093767  
      93App    5.138456   150Ap     5.147417   151Ap     5.170178  
     152Ap     5.265796    94App    5.316896   153Ap     5.317134  
      95App    5.344742   154Ap     5.345264    96App    5.413683  
     155Ap     5.429657   156Ap     5.565882    97App    5.670911  
     157Ap     5.670915   158Ap     5.766846    98App    5.800361  
     159Ap     5.800452    99App    5.971336   160Ap     5.971344  
     161Ap     6.082441   100App    6.334302   162Ap     6.334895  
     163Ap     6.472930   101App    6.473891   164Ap     6.511524  
     102App    6.540120   165Ap     6.563390   103App    6.653053  
     166Ap     6.673328   167Ap     6.726168   104App    6.746157  
     168Ap     6.748243   169Ap     6.765342   105App    7.008242  
     170Ap     7.033766   171Ap     7.111948   106App    7.162422  
     172Ap     7.163460   107App    7.278699   173Ap     7.293330  
     174Ap     7.519218   108App    7.624808   175Ap     7.637582  
     176Ap     7.812251   177Ap     8.046126   109App    8.049556  
     178Ap     8.074678   110App    8.419335   179Ap     8.419335  
     111App    8.488142   180Ap     8.488145   112App    8.530168  
     181Ap     8.530168   113App    8.727320   182Ap     8.739697  
     114App    8.758441   183Ap     8.758441   184Ap     9.057079  
     115App    9.057498   185Ap     9.102897   116App    9.205719  
     186Ap     9.230862   187Ap     9.360977   117App    9.360986  
     188Ap     9.389233   118App    9.389233   119App    9.427407  
     189Ap     9.442337   190Ap     9.448538   191Ap     9.560948  
     192Ap     9.605951   120App    9.609591   193Ap     9.609599  
     121App    9.707190   194Ap     9.734276   122App    9.800742  
     195Ap     9.800938   123App    9.911361   196Ap     9.911520  
     124App   10.021117   197Ap    10.021117   125App   10.168915  
     198Ap    10.168936   199Ap    10.170521   126App   10.170521  
     127App   10.340335   200Ap    10.340338   128App   10.410996  
     201Ap    10.433751   202Ap    10.491797   203Ap    10.821160  
     129App   10.967569   204Ap    10.967582   130App   11.072822  
     205Ap    11.087589   131App   11.090536   206Ap    11.096276  
     207Ap    11.163054   208Ap    11.584376   132App   11.584672  
     133App   11.838340   209Ap    11.838484   134App   12.087124  
     210Ap    12.112739   211Ap    12.275040   212Ap    12.439695  
     135App   12.440412   136App   12.454446   213Ap    12.481922  
     214Ap    12.484120   137App   12.575437   215Ap    12.598443  
     138App   12.879906   216Ap    12.879906   139App   12.898366  
     217Ap    12.898366   218Ap    13.118419   140App   13.118748  
     141App   13.251525   219Ap    13.251525   220Ap    13.297601  
     142App   13.359233   221Ap    13.359233   143App   13.420882  
     222Ap    13.420883   144App   13.565387   223Ap    13.581768  
     224Ap    13.731155   145App   13.793059   225Ap    13.793059  
     146App   14.024086   226Ap    14.024097   147App   14.103764  
     227Ap    14.103767   148App   14.297714   228Ap    14.310102  
     229Ap    14.354953   149App   14.611257   230Ap    14.611284  
     150App   14.694159   231Ap    14.694168   151App   14.911532  
     232Ap    14.921821   233Ap    15.142455   234Ap    15.621228  
     152App   15.709972   235Ap    15.710366   153App   15.779477  
     236Ap    15.794645   154App   15.919600   237Ap    15.930399  
     238Ap    16.023646   239Ap    16.324685   155App   16.554615  
     240Ap    16.562141   241Ap    16.634992   156App   16.635176  
     242Ap    16.820133   243Ap    17.494901   157App   17.643403  
     244Ap    17.647296   245Ap    17.690326   158App   18.159397  
     246Ap    18.169258   159App   18.316913   247Ap    18.322632  
     160App   19.439343   248Ap    19.452809   249Ap    19.931727  
     250Ap    21.775312   251Ap    22.470241   252Ap    23.055046  
     253Ap    38.852646   254Ap    41.315620  

    Beta Occupied:                                                        

       1Ap   -11.626060     2Ap   -11.623523     3Ap    -1.325517  
       4Ap    -1.073842     5Ap    -1.000507     6Ap    -0.735579  

    Beta Virtual:                                                         

       1App   -0.307782     7Ap    -0.134280     8Ap    -0.110069  
       9Ap    -0.093897     2App   -0.087536    10Ap    -0.074825  
       3App   -0.070730    11Ap    -0.061322    12Ap    -0.031926  
      13Ap    -0.031102    14Ap    -0.023089     4App   -0.019936  
      15Ap     0.010350    16Ap     0.019369     5App    0.019410  
      17Ap     0.027563    18Ap     0.049256     6App    0.051310  
      19Ap     0.061747     7App    0.083925    20Ap     0.084008  
      21Ap     0.097184    22Ap     0.097852     8App    0.104119  
      23Ap     0.105946     9App    0.111535    24Ap     0.119279  
      10App    0.135536    25Ap     0.136910    26Ap     0.162217  
      27Ap     0.200594    28Ap     0.217690    29Ap     0.235542  
      11App    0.236007    30Ap     0.240232    12App    0.322671  
      31Ap     0.322806    13App    0.329640    32Ap     0.329648  
      33Ap     0.337422    14App    0.339946    34Ap     0.341347  
      35Ap     0.349104    15App    0.361562    36Ap     0.363240  
      16App    0.380395    37Ap     0.380401    17App    0.404928  
      38Ap     0.405121    18App    0.437726    39Ap     0.440985  
      19App    0.464006    40Ap     0.464026    41Ap     0.488396  
      20App    0.491840    42Ap     0.494316    43Ap     0.499534  
      21App    0.503218    44Ap     0.503519    45Ap     0.515768  
      46Ap     0.566824    47Ap     0.622219    22App    0.630725  
      23App    0.673420    48Ap     0.677481    49Ap     0.684490  
      50Ap     0.696727    51Ap     0.713312    24App    0.739844  
      52Ap     0.740068    53Ap     0.813901    25App    0.820984  
      54Ap     0.841443    26App    0.841539    55Ap     0.893486  
      27App    0.899762    56Ap     0.900348    28App    0.966690  
      57Ap     0.969884    58Ap     0.975380    29App    0.997427  
      59Ap     0.999709    30App    1.016792    60Ap     1.016793  
      61Ap     1.076450    62Ap     1.081174    31App    1.137166  
      63Ap     1.137177    32App    1.157825    64Ap     1.157825  
      65Ap     1.187872    33App    1.217937    66Ap     1.218654  
      34App    1.242098    67Ap     1.242098    68Ap     1.243866  
      35App    1.249932    69Ap     1.249987    70Ap     1.289610  
      71Ap     1.291223    36App    1.291226    37App    1.313802  
      72Ap     1.314182    38App    1.377811    73Ap     1.383462  
      74Ap     1.413396    39App    1.415371    40App    1.464745  
      75Ap     1.464781    41App    1.466494    76Ap     1.470275  
      77Ap     1.500424    78Ap     1.511281    42App    1.511281  
      79Ap     1.594939    43App    1.595327    80Ap     1.595734  
      81Ap     1.610229    44App    1.610371    82Ap     1.616043  
      45App    1.616970    83Ap     1.617173    84Ap     1.680550  
      46App    1.690494    85Ap     1.693221    47App    1.827631  
      86Ap     1.827643    48App    1.917448    87Ap     1.925193  
      88Ap     1.991150    89Ap     2.027380    49App    2.040521  
      90Ap     2.043091    91Ap     2.043738    50App    2.117645  
      92Ap     2.118667    93Ap     2.173737    51App    2.174837  
      94Ap     2.193303    52App    2.269507    95Ap     2.269510  
      53App    2.326152    96Ap     2.328613    97Ap     2.386361  
      54App    2.508281    98Ap     2.516598    55App    2.541268  
      99Ap     2.548474   100Ap     2.614782    56App    2.614875  
      57App    2.627514   101Ap     2.627635   102Ap     2.716085  
      58App    2.731649   103Ap     2.731649   104Ap     2.769716  
      59App    2.769813    60App    2.830262   105Ap     2.837880  
     106Ap     2.876517    61App    2.908612   107Ap     2.908612  
      62App    2.999924   108Ap     2.999924   109Ap     3.072512  
      63App    3.072512   110Ap     3.079012    64App    3.122087  
     111Ap     3.122087   112Ap     3.143272    65App    3.154284  
      66App    3.155483   113Ap     3.161759   114Ap     3.162178  
     115Ap     3.241877    67App    3.264143   116Ap     3.264170  
     117Ap     3.417239    68App    3.445317   118Ap     3.445317  
     119Ap     3.469933    69App    3.469966   120Ap     3.472489  
      70App    3.472500    71App    3.514009   121Ap     3.514011  
      72App    3.532132   122Ap     3.539261   123Ap     3.541681  
      73App    3.579300   124Ap     3.579329   125Ap     3.605588  
      74App    3.621793   126Ap     3.622786   127Ap     3.737923  
      75App    3.740187   128Ap     3.740192    76App    3.787998  
     129Ap     3.787999    77App    3.797801   130Ap     3.805665  
     131Ap     3.837238    78App    3.837238    79App    3.865844  
     132Ap     3.874566   133Ap     3.899556    80App    3.899556  
     134Ap     3.936519   135Ap     3.975073    81App    4.037922  
     136Ap     4.037999    82App    4.076293   137Ap     4.089356  
      83App    4.223858   138Ap     4.223878    84App    4.280920  
     139Ap     4.280960    85App    4.282959   140Ap     4.282961  
     141Ap     4.289520    86App    4.405774   142Ap     4.416275  
      87App    4.499956   143Ap     4.499956    88App    4.632001  
     144Ap     4.643682    89App    4.652620   145Ap     4.652788  
     146Ap     4.763477    90App    4.902666   147Ap     4.917907  
      91App    4.987888   148Ap     4.996934    92App    5.098466  
     149Ap     5.098470    93App    5.141554   150Ap     5.147494  
     151Ap     5.178628   152Ap     5.272358    94App    5.324372  
     153Ap     5.324413    95App    5.361313   154Ap     5.361333  
      96App    5.420755   155Ap     5.430950   156Ap     5.569931  
      97App    5.672737   157Ap     5.672739   158Ap     5.768967  
      98App    5.800615   159Ap     5.800662    99App    5.978379  
     160Ap     5.978381   161Ap     6.085849   100App    6.338623  
     162Ap     6.338976   163Ap     6.484519   101App    6.484955  
     164Ap     6.514958   102App    6.549715   165Ap     6.564708  
     103App    6.663618   166Ap     6.674839   167Ap     6.729392  
     104App    6.748825   168Ap     6.750117   169Ap     6.769496  
     105App    7.021308   170Ap     7.036278   171Ap     7.114046  
     106App    7.164774   172Ap     7.165536   107App    7.284472  
     173Ap     7.293829   174Ap     7.520705   108App    7.627023  
     175Ap     7.637310   176Ap     7.815475   177Ap     8.052326  
     109App    8.060349   178Ap     8.076126   179Ap     8.429412  
     110App    8.429412   111App    8.498561   180Ap     8.498562  
     112App    8.540062   181Ap     8.540062   113App    8.729779  
     182Ap     8.739647   114App    8.768030   183Ap     8.768030  
     184Ap     9.066161   115App    9.066331   185Ap     9.104723  
     116App    9.220730   186Ap     9.233812   187Ap     9.366329  
     117App    9.366341   188Ap     9.396644   118App    9.396644  
     119App    9.434614   189Ap     9.447011   190Ap     9.449497  
     191Ap     9.569894   192Ap     9.612051   120App    9.616020  
     193Ap     9.616022   121App    9.722437   194Ap     9.737346  
     122App    9.816184   195Ap     9.816225   123App    9.918767  
     196Ap     9.918828   124App   10.033904   197Ap    10.033904  
     125App   10.178689   198Ap    10.178694   199Ap    10.183684  
     126App   10.183684   127App   10.353135   200Ap    10.353136  
     128App   10.423198   201Ap    10.436102   202Ap    10.496057  
     203Ap    10.826339   129App   10.978901   204Ap    10.978904  
     130App   11.082359   205Ap    11.098237   206Ap    11.098968  
     131App   11.100514   207Ap    11.166969   208Ap    11.595433  
     132App   11.595564   133App   11.851761   209Ap    11.851809  
     134App   12.098087   210Ap    12.115355   211Ap    12.277473  
     212Ap    12.449202   135App   12.449645   136App   12.466837  
     213Ap    12.486165   214Ap    12.487081   137App   12.587124  
     215Ap    12.600379   138App   12.879479   216Ap    12.879479  
     139App   12.897956   217Ap    12.897956   218Ap    13.128289  
     140App   13.128553   141App   13.250841   219Ap    13.250841  
     220Ap    13.302131   142App   13.358998   221Ap    13.358998  
     143App   13.421207   222Ap    13.421207   144App   13.571615  
     223Ap    13.582858   224Ap    13.733328   145App   13.793401  
     225Ap    13.793401   146App   14.023640   226Ap    14.023648  
     147App   14.102780   227Ap    14.102782   148App   14.302293  
     228Ap    14.310617   229Ap    14.355539   149App   14.610919  
     230Ap    14.610939   150App   14.693878   231Ap    14.693881  
     151App   14.914341   232Ap    14.921916   233Ap    15.142390  
     234Ap    15.621585   152App   15.711346   235Ap    15.711597  
     153App   15.783764   236Ap    15.795024   154App   15.921447  
     237Ap    15.929900   238Ap    16.023509   239Ap    16.323751  
     155App   16.555492   240Ap    16.561481   241Ap    16.636471  
     156App   16.636609   242Ap    16.820401   243Ap    17.495796  
     157App   17.642857   244Ap    17.646177   245Ap    17.690934  
     158App   18.161645   246Ap    18.169196   159App   18.316918  
     247Ap    18.321566   160App   19.442479   248Ap    19.453033  
     249Ap    19.932088   250Ap    21.775443   251Ap    22.470676  
     252Ap    23.055241   253Ap    38.856719   254Ap    41.319545  

    Final Occupation by Irrep:
             Ap   App 
    DOCC [     6,    0 ]
    SOCC [     0,    1 ]

  Energy converged.

  @UHF Final Energy:   -76.49520509866305

   => Energetics <=

    Nuclear Repulsion Energy =             23.9836477023460368
    One-Electron Energy =                -145.2296827802095152
    Two-Electron Energy =                  44.7508299792004323
    Total Energy =                        -76.4952050986630496


  UHF NO Occupations:
  HONO-2 :    5 Ap 1.9990984
  HONO-1 :    6 Ap 1.9986711
  HONO-0 :    1App 1.0000000
  LUNO+0 :    7 Ap 0.0013289
  LUNO+1 :    8 Ap 0.0009016
  LUNO+2 :    9 Ap 0.0002040
  LUNO+3 :   10 Ap 0.0001125



Properties will be evaluated at   0.000000,   0.000000,   0.000000 Bohr

Properties computed using the SCF density matrix

  Nuclear Dipole Moment: (a.u.)
     X:    -0.0000      Y:     0.0000      Z:    -0.0000

  Electronic Dipole Moment: (a.u.)
     X:     0.0000      Y:     0.0000      Z:     0.0000

  Dipole Moment: (a.u.)
     X:    -0.0000      Y:     0.0000      Z:     0.0000     Total:     0.0000

  Dipole Moment: (Debye)
     X:    -0.0000      Y:     0.0000      Z:     0.0000     Total:     0.0000


*** tstop() called on n412-019.vsc4.prov at Fri Oct 30 17:59:30 2020
Module time:
	user time   =    1730.28 seconds =      28.84 minutes
	system time =     215.41 seconds =       3.59 minutes
	total time  =       1707 seconds =      28.45 minutes
Total time:
	user time   =    1730.28 seconds =      28.84 minutes
	system time =     215.41 seconds =       3.59 minutes
	total time  =       1707 seconds =      28.45 minutes

*** tstart() called on n412-019.vsc4.prov
*** at Fri Oct 30 17:59:30 2020


	Wfn Parameters:
	--------------------
	Wavefunction         = CCSD
	Number of irreps     = 2
	Number of MOs        = 414
	Number of active MOs = 412
	AO-Basis             = NONE
	Semicanonical        = false
	Reference            = UHF
	Print Level          = 1

	IRREP	# MOs	# FZDC	# DOCC	# SOCC	# VIRT	# FZVR
	-----	-----	------	------	------	------	------
	 Ap	   254	    2	    4	    0	    248	    0
	 App	   160	    0	    0	    1	    159	    0
	Transforming integrals...
	IWL integrals will be deleted.
	(OO|OO)...
	Presorting SO-basis two-electron integrals.
	Sorting File: SO Ints (nn|nn) nbuckets = 1
	Transforming the one-electron integrals and constructing Fock matrices
	Starting AA/AB first half-transformation.
	Sorting AA/AB half-transformed integrals.
	Starting BB first half-transformation.
	Sorting BB half-transformed integrals.
	First half integral transformation complete.
	Starting AA second half-transformation.
	Starting AB second half-transformation.
	Starting BB second half-transformation.
	Two-electron integral transformation complete.
	(OO|OV)...
	Starting AA second half-transformation.
	Starting AB second half-transformation.
	Starting BB second half-transformation.
	Two-electron integral transformation complete.
	(OO|VV)...
	Starting AA second half-transformation.
	Starting AB second half-transformation.
	Starting BB second half-transformation.
	Two-electron integral transformation complete.
	(OV|OO)...
	Starting AA/AB first half-transformation.
	Sorting AA/AB half-transformed integrals.
	Starting BB first half-transformation.
	Sorting BB half-transformed integrals.
	First half integral transformation complete.
	Starting AA second half-transformation.
	Starting AB second half-transformation.
	Starting BB second half-transformation.
	Two-electron integral transformation complete.
	(OV|OV)...
	Starting AA second half-transformation.
	Starting AB second half-transformation.
	Starting BB second half-transformation.
	Two-electron integral transformation complete.
	(OV|VV)...
	Starting AA second half-transformation.
	Starting AB second half-transformation.
	Starting BB second half-transformation.
	Two-electron integral transformation complete.
	(VV|OO)...
	Starting AA/AB first half-transformation.
	Sorting AA/AB half-transformed integrals.
	Starting BB first half-transformation.
	Sorting BB half-transformed integrals.
	First half integral transformation complete.
	Starting AA second half-transformation.
	Starting AB second half-transformation.
	Starting BB second half-transformation.
	Two-electron integral transformation complete.
	(VV|OV)...
	Starting AA second half-transformation.
	Starting AB second half-transformation.
	Starting BB second half-transformation.
	Two-electron integral transformation complete.
	(VV|VV)...
	Starting AA second half-transformation.
	Starting AB second half-transformation.
	Starting BB second half-transformation.
	Two-electron integral transformation complete.
	Frozen core energy     =    -76.04091713195001

	Size of irrep 0 of <AB|CD> integrals:   1865.290 (MW) /  14922.318 (MB)
	Size of irrep 1 of <AB|CD> integrals:   1554.883 (MW) /  12439.061 (MB)
	Total:                                  3420.172 (MW) /  27361.379 (MB)

	Size of irrep 0 of <ab|cd> integrals:   1879.049 (MW) /  15032.393 (MB)
	Size of irrep 1 of <ab|cd> integrals:   1574.502 (MW) /  12596.019 (MB)
	Total:                                  3453.552 (MW) /  27628.412 (MB)

	Size of irrep 0 of <Ab|Cd> integrals:   7559.259 (MW) /  60474.073 (MB)
	Size of irrep 1 of <Ab|Cd> integrals:   6258.709 (MW) /  50069.668 (MB)
	Total:                                 13817.968 (MW) / 110543.741 (MB)

	Size of irrep 0 of <IA|BC> integrals:     99.890 (MW) /    799.116 (MB)
	Size of irrep 1 of <IA|BC> integrals:     69.716 (MW) /    557.726 (MB)
	Total:                                   169.605 (MW) /   1356.842 (MB)

	Size of irrep 0 of <ia|bc> integrals:     86.407 (MW) /    691.257 (MB)
	Size of irrep 1 of <ia|bc> integrals:     50.790 (MW) /    406.323 (MB)
	Total:                                   137.198 (MW) /   1097.581 (MB)

	Size of irrep 0 of <Ia|Bc> integrals:    100.159 (MW) /    801.276 (MB)
	Size of irrep 1 of <Ia|Bc> integrals:     70.251 (MW) /    562.012 (MB)
	Total:                                   170.411 (MW) /   1363.288 (MB)

	Size of irrep 0 of <iA|bC> integrals:     86.248 (MW) /    689.988 (MB)
	Size of irrep 1 of <iA|bC> integrals:     50.315 (MW) /    402.522 (MB)
	Total:                                   136.564 (MW) /   1092.509 (MB)

	Size of irrep 0 of tIjAb amplitudes:       1.391 (MW) /     11.129 (MB)
	Size of irrep 1 of tIjAb amplitudes:       0.316 (MW) /      2.532 (MB)
	Total:                                     1.708 (MW) /     13.660 (MB)

	Nuclear Rep. energy          =     23.98364770234604
	SCF energy                   =    -76.49520509866305
	One-electron energy          =    -39.66749320210405
	Two-electron (AA) energy     =      3.85865810464064
	Two-electron (BB) energy     =      2.18534425635844
	Two-electron (AB) energy     =      9.18555517204595
	Two-electron energy          =     15.22955753304504
	Reference energy             =    -76.49520509866298

*** tstop() called on n412-019.vsc4.prov at Fri Oct 30 18:41:51 2020
Module time:
	user time   =    9729.66 seconds =     162.16 minutes
	system time =     993.95 seconds =      16.57 minutes
	total time  =       2541 seconds =      42.35 minutes
Total time:
	user time   =   11460.10 seconds =     191.00 minutes
	system time =    1209.36 seconds =      20.16 minutes
	total time  =       4248 seconds =      70.80 minutes

*** tstart() called on n412-019.vsc4.prov
*** at Fri Oct 30 18:41:51 2020

            **************************
            *                        *
            *        CCENERGY        *
            *                        *
            **************************

    Nuclear Rep. energy (wfn)     =   23.983647702346037
    SCF energy          (wfn)     =  -76.495205098663050
    Reference energy    (file100) =  -76.495205098662979

    Input parameters:
    -----------------
    Wave function   =     CCSD
    Reference wfn   =     UHF
    Brueckner       =     No
    Memory (Mbytes) =     250000.0
    Maxiter         =     50
    R_Convergence   =     1.0e-07
    E_Convergence   =     1.0e-06
    Restart         =     Yes
    DIIS            =     Yes
    AO Basis        =     NONE
    ABCD            =     NEW
    Cache Level     =     2
    Cache Type      =     LRU
    Print Level     =     1
    Num. of threads =     48
    # Amps to Print =     10
    Print MP2 Amps? =     No
    Analyze T2 Amps =     No
    Print Pair Ener =     No
    Local CC        =     No
    SCS-MP2         =     False
    SCSN-MP2        =     False
    SCS-CCSD        =     False

MP2 correlation energy -0.2720004799563513
                Solving CC Amplitude Equations
                ------------------------------
  Iter             Energy              RMS        T1Diag      D1Diag    New D1Diag    D2Diag
  ----     ---------------------    ---------   ----------  ----------  ----------   --------
     0        -0.272000479956352    0.000e+00    0.000000    0.000000    0.000000    0.000000
     1        -0.279807074889489    5.810e-02    0.013483    0.000000    0.000000    0.000000
     2        -0.288360235302578    1.970e-02    0.015043    0.000000    0.000000    0.000000
     3        -0.289651677897053    7.870e-03    0.016952    0.000000    0.000000    0.000000
     4        -0.289659380081711    2.272e-03    0.017123    0.000000    0.000000    0.000000
     5        -0.289687431160718    5.077e-04    0.017120    0.000000    0.000000    0.000000
     6        -0.289686772760251    1.410e-04    0.017108    0.000000    0.000000    0.000000
     7        -0.289687702967116    3.822e-05    0.017104    0.000000    0.000000    0.000000
     8        -0.289688418285328    1.263e-05    0.017104    0.000000    0.000000    0.000000
     9        -0.289688244639348    4.043e-06    0.017104    0.000000    0.000000    0.000000
    10        -0.289688227635092    1.374e-06    0.017104    0.000000    0.000000    0.000000
    11        -0.289688235860902    4.122e-07    0.017104    0.000000    0.000000    0.000000
    12        -0.289688244095622    1.409e-07    0.017104    0.000000    0.000000    0.000000
    13        -0.289688246702468    4.272e-08    0.017104    0.000000    0.000000    0.000000
    13        -0.289688246702468    4.272e-08    0.017104    0.000000    0.000000    0.000000

    Iterations converged.


    CCSD corr. energy   =   -0.289688246702468
    PPL corr. energy    =    0.085367187817144
    OS PPL corr. energy =    0.073788511668325
    SS PPL corr. energy =    0.011578676148819
    Largest TIA Amplitudes:
              3  15         0.0134827959
              3  34         0.0132270552
              3  49         0.0111293097
              4 266         0.0101187347
              4 273         0.0098882383
              3   3         0.0086747401
              4 254         0.0085376810
              3  59         0.0065620273
              4 279         0.0061831293
              3  50         0.0059700352

    Largest Tia Amplitudes:
              3  14         0.0149551616
              3  34         0.0143316497
              3  49         0.0117774540
              3   3         0.0099619379
              3  59         0.0074498995
              1  17         0.0071048699
              3  50         0.0069328177
              3  89         0.0067291955
              3  27         0.0063516651
              1   8        -0.0059076411

    Largest TIJAB Amplitudes:
      4   3 248   0        -0.0697554883
      4   3 248  14        -0.0235396675
      4   3 248   6        -0.0210670033
      4   3 255   0        -0.0204948376
      4   3 248  28        -0.0198271400
      4   3 261   0        -0.0178518371
      4   2 248  17        -0.0173460177
      4   3 250   0        -0.0171112911
      4   2 248  44         0.0167514683
      4   2 248  29         0.0165736284

    Largest Tijab Amplitudes:
      3   2  17   0         0.0154868840
      3   2  29   0        -0.0140020569
      3   2  44   0        -0.0132229855
      3   2   8   0        -0.0109756831
      1   0 249 248        -0.0094353128
      3   0 259 248         0.0089004194
      3   0 264 248        -0.0076734513
      3   1  21   0        -0.0075918716
      3   0 284 248         0.0075240349
      3   2  40  21         0.0069003535

    Largest TIjAb Amplitudes:
      3   3   0   0        -0.1408460769
      4   3 248   0        -0.0951973369
      3   3   0  15        -0.0510831875
      3   3  14   0        -0.0475623263
      3   3   0   5        -0.0469595056
      3   3   6   0        -0.0425514386
      3   3   0  28        -0.0423491487
      3   3  28   0        -0.0398980532
      1   0 248 248        -0.0362141682
      4   3 248  15        -0.0346083355

    SCF energy       (wfn)                    =  -76.495205098663050
    Reference energy (file100)                =  -76.495205098662979

    Opposite-spin MP2 correlation energy      =   -0.216052182188191
    Same-spin MP2 correlation energy          =   -0.055948297768124
    MP2 correlation energy                    =   -0.272000479956351
      * MP2 total energy                      =  -76.767205578619325

    Opposite-spin CCSD correlation energy     =   -0.237641715001340
    Same-spin CCSD correlation energy         =   -0.052046533181249
    CCSD correlation energy                   =   -0.289688246702468
      * CCSD total energy                     =  -76.784893345365447


*** tstop() called on n412-019.vsc4.prov at Fri Oct 30 19:30:14 2020
Module time:
	user time   =    9289.25 seconds =     154.82 minutes
	system time =    1593.82 seconds =      26.56 minutes
	total time  =       2903 seconds =      48.38 minutes
Total time:
	user time   =   20749.35 seconds =     345.82 minutes
	system time =    2803.18 seconds =      46.72 minutes
	total time  =       7151 seconds =     119.18 minutes

*** Psi4 exiting successfully. Buy a developer a beer!
