
    -----------------------------------------------------------------------
          Psi4: An Open-Source Ab Initio Electronic Structure Package
                               Psi4 1.2a1.dev938 

                         Git: Rev {HEAD} fc51d9a dirty


    R. M. Parrish, L. A. Burns, D. G. A. Smith, A. C. Simmonett,
    A. E. DePrince III, E. G. Hohenstein, U. Bozkaya, A. Yu. Sokolov,
    R. Di Remigio, R. M. Richard, J. F. Gonthier, A. M. James,
    H. R. McAlexander, A. Kumar, M. Saitow, X. Wang, B. P. Pritchard,
    P. Verma, H. F. Schaefer III, K. Patkowski, R. A. King, E. F. Valeev,
    F. A. Evangelista, J. M. Turney, T. D. Crawford, and C. D. Sherrill,
    J. Chem. Theory Comput. 13(7) pp 3185--3197 (2017).
    (doi: 10.1021/acs.jctc.7b00174)

    -----------------------------------------------------------------------


    Psi4 started on: Thursday, 20 August 2020 10:41PM

    Process ID: 425434
    PSIDATADIR: /home/irmler/Programs/psi4/beforeGrueneis3/stage/usr/local/psi4/share/psi4
    Memory:     500.0 MiB
    Threads:    4
    
  ==> Input File <==

--------------------------------------------------------------------------
# Any line starting with the # character is a comment line
memory 250000 mb
molecule molecule{
-1 3
P          0.0000000000        0.0000000000        0.0000000000
}

set {
  reference uhf
  basis aug-cc-pv(q+d)z
  scf_type OUT_OF_CORE
  freeze_core true
}

energy('ccsd')
--------------------------------------------------------------------------

  Memory set to 232.831 GiB by Python driver.

*** tstart() called on cqc05
*** at Thu Aug 20 22:41:29 2020

   => Loading Basis Set <=

    Name: AUG-CC-PV(Q+D)Z
    Role: ORBITAL
    Keyword: BASIS
    atoms 1 entry P          line  1050 file /home/irmler/Programs/psi4/beforeGrueneis3/stage/usr/local/psi4/share/psi4/basis/aug-cc-pv_qpd_z.gbs 


         ---------------------------------------------------------
                                   SCF
            by Justin Turney, Rob Parrish, Andy Simmonett
                             and Daniel Smith
                              UHF Reference
                        4 Threads, 238418 MiB Core
         ---------------------------------------------------------

  ==> Geometry <==

    Molecular point group: d2h
    Geometry (in Angstrom), charge = -1, multiplicity = 3:

       Center              X                  Y                   Z               Mass       
    ------------   -----------------  -----------------  -----------------  -----------------
           P          0.000000000000     0.000000000000     0.000000000000    30.973761629000

  Running in d2h symmetry.

  Rotational constants: A = ************  B = ************  C = ************ [cm^-1]
  Rotational constants: A = ************  B = ************  C = ************ [MHz]
  Nuclear repulsion =    0.000000000000000

  Charge       = -1
  Multiplicity = 3
  Electrons    = 16
  Nalpha       = 9
  Nbeta        = 7

  ==> Algorithm <==

  SCF Algorithm Type is OUT_OF_CORE.
  DIIS enabled.
  MOM disabled.
  Fractional occupation disabled.
  Guess Type is GWH.
  Energy threshold   = 1.00e-08
  Density threshold  = 1.00e-08
  Integral threshold = 0.00e+00

  ==> Primary Basis <==

  Basis Set: AUG-CC-PV(Q+D)Z
    Blend: AUG-CC-PV(Q+D)Z
    Number of shells: 23
    Number of basis function: 89
    Number of Cartesian functions: 115
    Spherical Harmonics?: true
    Max angular momentum: 4

  ==> Pre-Iterations <==

   -------------------------------------------------------
    Irrep   Nso     Nmo     Nalpha   Nbeta   Ndocc  Nsocc
   -------------------------------------------------------
     Ag        23      23       0       0       0       0
     B1g        9       9       0       0       0       0
     B2g        9       9       0       0       0       0
     B3g        9       9       0       0       0       0
     Au         3       3       0       0       0       0
     B1u       12      12       0       0       0       0
     B2u       12      12       0       0       0       0
     B3u       12      12       0       0       0       0
   -------------------------------------------------------
    Total      89      89       9       7       7       2
   -------------------------------------------------------

  ==> Integral Setup <==

  ==> DiskJK: Disk-Based J/K Matrices <==

    J tasked:                  Yes
    K tasked:                  Yes
    wK tasked:                  No
    Memory (MB):            178813
    Schwarz Cutoff:          1E-12

  Minimum eigenvalue in the overlap matrix is 8.0600208741E-04.
  Using Symmetric Orthogonalization.

  SCF Guess: Generalized Wolfsberg-Helmholtz.

  ==> Iterations <==

                        Total Energy        Delta E     RMS |[F,P]|

    Occupation by irrep:
             Ag   B1g   B2g   B3g    Au   B1u   B2u   B3u 
    DOCC [     2,    0,    0,    0,    0,    2,    1,    2 ]
    SOCC [     1,    0,    0,    0,    0,    0,    1,    0 ]

   @UHF iter   1:  -315.71888867787533   -3.15719e+02   3.81932e-01 
    Occupation by irrep:
             Ag   B1g   B2g   B3g    Au   B1u   B2u   B3u 
    DOCC [     3,    0,    0,    0,    0,    2,    1,    1 ]
    SOCC [     0,    0,    0,    0,    0,    0,    1,    1 ]

   @UHF iter   2:  -335.16489426441922   -1.94460e+01   1.38490e-01 DIIS
   @UHF iter   3:  -340.28156711098165   -5.11667e+00   2.77942e-02 DIIS
   @UHF iter   4:  -340.70008539261846   -4.18518e-01   5.66499e-03 DIIS
   @UHF iter   5:  -340.70539189641141   -5.30650e-03   1.58753e-03 DIIS
   @UHF iter   6:  -340.70678448351032   -1.39259e-03   3.37491e-04 DIIS
   @UHF iter   7:  -340.70687026696379   -8.57835e-05   8.57776e-05 DIIS
   @UHF iter   8:  -340.70687838806970   -8.12111e-06   2.12959e-05 DIIS
   @UHF iter   9:  -340.70687990685354   -1.51878e-06   1.31568e-05 DIIS
   @UHF iter  10:  -340.70688107350850   -1.16665e-06   6.13841e-06 DIIS
   @UHF iter  11:  -340.70688132866815   -2.55160e-07   8.06394e-07 DIIS
   @UHF iter  12:  -340.70688133016262   -1.49447e-09   2.35166e-07 DIIS
   @UHF iter  13:  -340.70688133038283   -2.20211e-10   6.39872e-08 DIIS
   @UHF iter  14:  -340.70688133039346   -1.06297e-11   1.34019e-08 DIIS
   @UHF iter  15:  -340.70688133039408   -6.25278e-13   3.35127e-09 DIIS

  ==> Post-Iterations <==

   @Spin Contamination Metric:   2.720471921E-02
   @S^2 Expected:                2.000000000E+00
   @S^2 Observed:                2.027204719E+00
   @S   Expected:                1.000000000E+00
   @S   Observed:                1.000000000E+00

    Orbital Energies (a.u.)
    -----------------------

    Alpha Occupied:                                                       

       1Ag   -79.700985     2Ag    -7.241484     1B3u   -5.142423  
       1B2u   -5.142423     1B1u   -5.129692     3Ag    -0.530198  
       2B3u   -0.123255     2B2u   -0.123255     2B1u   -0.066398  

    Alpha Virtual:                                                        

       3B3u    0.204800     3B2u    0.204800     3B1u    0.214723  
       4Ag     0.225929     5Ag     0.320161     1B1g    0.320161  
       1B3g    0.329750     1B2g    0.329750     6Ag     0.333765  
       4B3u    0.555594     4B2u    0.555594     4B1u    0.582571  
       5B2u    0.620015     5B3u    0.620015     7Ag     0.624192  
       2B1g    0.625890     8Ag     0.625890     5B1u    0.630658  
       1Au     0.630658     6B2u    0.637914     6B3u    0.637914  
       6B1u    0.640799     2B2g    0.652113     2B3g    0.652113  
       9Ag     0.663552     3B1g    1.300258    10Ag     1.300258  
       3B2g    1.327243     3B3g    1.327243    11Ag     1.337410  
       4B1g    1.452161    12Ag     1.452161     7B2u    1.457796  
       7B3u    1.457796     4B2g    1.466099     4B3g    1.466099  
      13Ag     1.476457     5B1g    1.476457     2Au     1.479037  
       7B1u    1.479037     5B3g    1.482853     5B2g    1.482853  
      14Ag     1.485018     8B2u    1.491598     8B3u    1.491598  
       8B1u    1.496055     9B3u    1.590672     9B2u    1.590672  
       9B1u    1.626829    15Ag     1.935853    16Ag     2.757104  
       6B1g    2.757104     6B3g    2.779850     6B2g    2.779850  
      17Ag     2.788337    10B3u    3.284020    10B2u    3.284020  
      10B1u    3.306022     3Au     3.306022    11B2u    3.319623  
      11B3u    3.319623    11B1u    3.324234    18Ag     3.555586  
       7B1g    3.555586     7B2g    3.574370     7B3g    3.574370  
      19Ag     3.588131     8B1g    3.588131     8B3g    3.596535  
       8B2g    3.596535    20Ag     3.599362    12B2u    5.851851  
      12B3u    5.851851    12B1u    5.882920    21Ag     7.866334  
       9B1g    7.866334     9B3g    7.880702     9B2g    7.880702  
      22Ag     7.885607    23Ag    12.952664  

    Beta Occupied:                                                        

       1Ag   -79.689252     2Ag    -7.227934     1B1u   -5.120182  
       1B2u   -5.110777     1B3u   -5.110777     3Ag    -0.351318  
       2B1u   -0.025068  

    Beta Virtual:                                                         

       2B3u    0.188918     2B2u    0.188918     3B1u    0.219699  
       4Ag     0.233785     3B2u    0.300476     3B3u    0.300476  
       5Ag     0.336560     1B2g    0.336939     1B3g    0.336939  
       1B1g    0.338497     6Ag     0.338497     4B1u    0.596459  
       4B2u    0.621939     4B3u    0.621939     5B2u    0.636092  
       5B3u    0.636092     1Au     0.640555     5B1u    0.640555  
       6B3u    0.644237     6B2u    0.644237     6B1u    0.644553  
       7Ag     0.656582     8Ag     0.698708     2B3g    0.702518  
       2B2g    0.702518     9Ag     0.716563     2B1g    0.716563  
      10Ag     1.365455     3B3g    1.365986     3B2g    1.365986  
       3B1g    1.367792    11Ag     1.367792    12Ag     1.477860  
       4B1g    1.477860     4B2g    1.485300     4B3g    1.485300  
      13Ag     1.490668     5B1g    1.490668     5B2g    1.493910  
       5B3g    1.493910    14Ag     1.494994     7B2u    1.512105  
       7B3u    1.512105     7B1u    1.516714     2Au     1.516714  
       8B2u    1.519028     8B3u    1.519028     8B1u    1.519717  
       9B1u    1.642313     9B2u    1.648192     9B3u    1.648192  
      15Ag     1.969516     6B1g    2.785619    16Ag     2.785619  
       6B3g    2.796483     6B2g    2.796483    17Ag     2.800164  
      10B3u    3.331939    10B2u    3.331939    10B1u    3.339720  
       3Au     3.339720    11B2u    3.344390    11B3u    3.344390  
      11B1u    3.345944    18Ag     3.597833     7B1g    3.597833  
       7B2g    3.606828     7B3g    3.606828    19Ag     3.613317  
       8B1g    3.613317     8B3g    3.617235     8B2g    3.617235  
      20Ag     3.618544    12B2u    5.883214    12B3u    5.883214  
      12B1u    5.892908    21Ag     7.882096     9B1g    7.882096  
       9B3g    7.890282     9B2g    7.890282    22Ag     7.893053  
      23Ag    12.969292  

    Final Occupation by Irrep:
             Ag   B1g   B2g   B3g    Au   B1u   B2u   B3u 
    DOCC [     3,    0,    0,    0,    0,    2,    1,    1 ]
    SOCC [     0,    0,    0,    0,    0,    0,    1,    1 ]

  Energy converged.

  @UHF Final Energy:  -340.70688133039408

   => Energetics <=

    Nuclear Repulsion Energy =              0.0000000000000000
    One-Electron Energy =                -475.5783403940137077
    Two-Electron Energy =                 134.8714590636196249
    Total Energy =                       -340.7068813303940829


  UHF NO Occupations:
  HONO-2 :    2B1u 1.9922522
  HONO-1 :    2B3u 1.0000000
  HONO-0 :    2B2u 1.0000000
  LUNO+0 :    3B1u 0.0077478
  LUNO+1 :    4 Ag 0.0058969
  LUNO+2 :    3B3u 0.0000022
  LUNO+3 :    3B2u 0.0000022



Properties will be evaluated at   0.000000,   0.000000,   0.000000 Bohr

Properties computed using the SCF density matrix

  Nuclear Dipole Moment: (a.u.)
     X:     0.0000      Y:     0.0000      Z:     0.0000

  Electronic Dipole Moment: (a.u.)
     X:     0.0000      Y:     0.0000      Z:     0.0000

  Dipole Moment: (a.u.)
     X:     0.0000      Y:     0.0000      Z:     0.0000     Total:     0.0000

  Dipole Moment: (Debye)
     X:     0.0000      Y:     0.0000      Z:     0.0000     Total:     0.0000


*** tstop() called on cqc05 at Thu Aug 20 22:41:30 2020
Module time:
	user time   =       2.05 seconds =       0.03 minutes
	system time =       0.06 seconds =       0.00 minutes
	total time  =          1 seconds =       0.02 minutes
Total time:
	user time   =       2.05 seconds =       0.03 minutes
	system time =       0.06 seconds =       0.00 minutes
	total time  =          1 seconds =       0.02 minutes

*** tstart() called on cqc05
*** at Thu Aug 20 22:41:30 2020


	Wfn Parameters:
	--------------------
	Wavefunction         = CCSD
	Number of irreps     = 8
	Number of MOs        = 89
	Number of active MOs = 84
	AO-Basis             = NONE
	Semicanonical        = false
	Reference            = UHF
	Print Level          = 1

	IRREP	# MOs	# FZDC	# DOCC	# SOCC	# VIRT	# FZVR
	-----	-----	------	------	------	------	------
	 Ag	   23	    2	    1	    0	    20	    0
	 B1g	   9	    0	    0	    0	    9	    0
	 B2g	   9	    0	    0	    0	    9	    0
	 B3g	   9	    0	    0	    0	    9	    0
	 Au	   3	    0	    0	    0	    3	    0
	 B1u	   12	    1	    1	    0	    10	    0
	 B2u	   12	    1	    0	    1	    10	    0
	 B3u	   12	    1	    0	    1	    10	    0
	Transforming integrals...
	IWL integrals will be deleted.
	(OO|OO)...
	Presorting SO-basis two-electron integrals.
	Sorting File: SO Ints (nn|nn) nbuckets = 1
	Transforming the one-electron integrals and constructing Fock matrices
	Starting AA/AB first half-transformation.
	Sorting AA/AB half-transformed integrals.
	Starting BB first half-transformation.
	Sorting BB half-transformed integrals.
	First half integral transformation complete.
	Starting AA second half-transformation.
	Starting AB second half-transformation.
	Starting BB second half-transformation.
	Two-electron integral transformation complete.
	(OO|OV)...
	Starting AA second half-transformation.
	Starting AB second half-transformation.
	Starting BB second half-transformation.
	Two-electron integral transformation complete.
	(OO|VV)...
	Starting AA second half-transformation.
	Starting AB second half-transformation.
	Starting BB second half-transformation.
	Two-electron integral transformation complete.
	(OV|OO)...
	Starting AA/AB first half-transformation.
	Sorting AA/AB half-transformed integrals.
	Starting BB first half-transformation.
	Sorting BB half-transformed integrals.
	First half integral transformation complete.
	Starting AA second half-transformation.
	Starting AB second half-transformation.
	Starting BB second half-transformation.
	Two-electron integral transformation complete.
	(OV|OV)...
	Starting AA second half-transformation.
	Starting AB second half-transformation.
	Starting BB second half-transformation.
	Two-electron integral transformation complete.
	(OV|VV)...
	Starting AA second half-transformation.
	Starting AB second half-transformation.
	Starting BB second half-transformation.
	Two-electron integral transformation complete.
	(VV|OO)...
	Starting AA/AB first half-transformation.
	Sorting AA/AB half-transformed integrals.
	Starting BB first half-transformation.
	Sorting BB half-transformed integrals.
	First half integral transformation complete.
	Starting AA second half-transformation.
	Starting AB second half-transformation.
	Starting BB second half-transformation.
	Two-electron integral transformation complete.
	(VV|OV)...
	Starting AA second half-transformation.
	Starting AB second half-transformation.
	Starting BB second half-transformation.
	Two-electron integral transformation complete.
	(VV|VV)...
	Starting AA second half-transformation.
	Starting AB second half-transformation.
	Starting BB second half-transformation.
	Two-electron integral transformation complete.
	Frozen core energy     =   -334.36243250626444

	Size of irrep 0 of <AB|CD> integrals:      0.190 (MW) /      1.521 (MB)
	Size of irrep 1 of <AB|CD> integrals:      0.153 (MW) /      1.223 (MB)
	Size of irrep 2 of <AB|CD> integrals:      0.153 (MW) /      1.223 (MB)
	Size of irrep 3 of <AB|CD> integrals:      0.153 (MW) /      1.223 (MB)
	Size of irrep 4 of <AB|CD> integrals:      0.109 (MW) /      0.871 (MB)
	Size of irrep 5 of <AB|CD> integrals:      0.166 (MW) /      1.325 (MB)
	Size of irrep 6 of <AB|CD> integrals:      0.166 (MW) /      1.325 (MB)
	Size of irrep 7 of <AB|CD> integrals:      0.166 (MW) /      1.325 (MB)
	Total:                                     1.255 (MW) /     10.037 (MB)

	Size of irrep 0 of <ab|cd> integrals:      0.208 (MW) /      1.663 (MB)
	Size of irrep 1 of <ab|cd> integrals:      0.170 (MW) /      1.358 (MB)
	Size of irrep 2 of <ab|cd> integrals:      0.163 (MW) /      1.306 (MB)
	Size of irrep 3 of <ab|cd> integrals:      0.163 (MW) /      1.306 (MB)
	Size of irrep 4 of <ab|cd> integrals:      0.121 (MW) /      0.969 (MB)
	Size of irrep 5 of <ab|cd> integrals:      0.181 (MW) /      1.445 (MB)
	Size of irrep 6 of <ab|cd> integrals:      0.190 (MW) /      1.521 (MB)
	Size of irrep 7 of <ab|cd> integrals:      0.190 (MW) /      1.521 (MB)
	Total:                                     1.386 (MW) /     11.088 (MB)

	Size of irrep 0 of <Ab|Cd> integrals:      0.945 (MW) /      7.558 (MB)
	Size of irrep 1 of <Ab|Cd> integrals:      0.643 (MW) /      5.146 (MB)
	Size of irrep 2 of <Ab|Cd> integrals:      0.632 (MW) /      5.056 (MB)
	Size of irrep 3 of <Ab|Cd> integrals:      0.632 (MW) /      5.056 (MB)
	Size of irrep 4 of <Ab|Cd> integrals:      0.460 (MW) /      3.677 (MB)
	Size of irrep 5 of <Ab|Cd> integrals:      0.692 (MW) /      5.538 (MB)
	Size of irrep 6 of <Ab|Cd> integrals:      0.711 (MW) /      5.685 (MB)
	Size of irrep 7 of <Ab|Cd> integrals:      0.711 (MW) /      5.685 (MB)
	Total:                                     5.425 (MW) /     43.402 (MB)

	Size of irrep 0 of <IA|BC> integrals:      0.048 (MW) /      0.381 (MB)
	Size of irrep 1 of <IA|BC> integrals:      0.025 (MW) /      0.200 (MB)
	Size of irrep 2 of <IA|BC> integrals:      0.025 (MW) /      0.200 (MB)
	Size of irrep 3 of <IA|BC> integrals:      0.025 (MW) /      0.200 (MB)
	Size of irrep 4 of <IA|BC> integrals:      0.020 (MW) /      0.158 (MB)
	Size of irrep 5 of <IA|BC> integrals:      0.039 (MW) /      0.313 (MB)
	Size of irrep 6 of <IA|BC> integrals:      0.039 (MW) /      0.313 (MB)
	Size of irrep 7 of <IA|BC> integrals:      0.039 (MW) /      0.313 (MB)
	Total:                                     0.260 (MW) /      2.078 (MB)

	Size of irrep 0 of <ia|bc> integrals:      0.030 (MW) /      0.239 (MB)
	Size of irrep 1 of <ia|bc> integrals:      0.010 (MW) /      0.079 (MB)
	Size of irrep 2 of <ia|bc> integrals:      0.016 (MW) /      0.129 (MB)
	Size of irrep 3 of <ia|bc> integrals:      0.016 (MW) /      0.129 (MB)
	Size of irrep 4 of <ia|bc> integrals:      0.008 (MW) /      0.067 (MB)
	Size of irrep 5 of <ia|bc> integrals:      0.025 (MW) /      0.204 (MB)
	Size of irrep 6 of <ia|bc> integrals:      0.017 (MW) /      0.140 (MB)
	Size of irrep 7 of <ia|bc> integrals:      0.017 (MW) /      0.140 (MB)
	Total:                                     0.141 (MW) /      1.126 (MB)

	Size of irrep 0 of <Ia|Bc> integrals:      0.051 (MW) /      0.404 (MB)
	Size of irrep 1 of <Ia|Bc> integrals:      0.027 (MW) /      0.218 (MB)
	Size of irrep 2 of <Ia|Bc> integrals:      0.026 (MW) /      0.210 (MB)
	Size of irrep 3 of <Ia|Bc> integrals:      0.026 (MW) /      0.210 (MB)
	Size of irrep 4 of <Ia|Bc> integrals:      0.020 (MW) /      0.163 (MB)
	Size of irrep 5 of <Ia|Bc> integrals:      0.040 (MW) /      0.319 (MB)
	Size of irrep 6 of <Ia|Bc> integrals:      0.041 (MW) /      0.330 (MB)
	Size of irrep 7 of <Ia|Bc> integrals:      0.041 (MW) /      0.330 (MB)
	Total:                                     0.273 (MW) /      2.185 (MB)

	Size of irrep 0 of <iA|bC> integrals:      0.029 (MW) /      0.233 (MB)
	Size of irrep 1 of <iA|bC> integrals:      0.010 (MW) /      0.077 (MB)
	Size of irrep 2 of <iA|bC> integrals:      0.015 (MW) /      0.121 (MB)
	Size of irrep 3 of <iA|bC> integrals:      0.015 (MW) /      0.121 (MB)
	Size of irrep 4 of <iA|bC> integrals:      0.008 (MW) /      0.065 (MB)
	Size of irrep 5 of <iA|bC> integrals:      0.025 (MW) /      0.200 (MB)
	Size of irrep 6 of <iA|bC> integrals:      0.016 (MW) /      0.128 (MB)
	Size of irrep 7 of <iA|bC> integrals:      0.016 (MW) /      0.128 (MB)
	Total:                                     0.134 (MW) /      1.073 (MB)

	Size of irrep 0 of tIjAb amplitudes:       0.002 (MW) /      0.016 (MB)
	Size of irrep 1 of tIjAb amplitudes:       0.000 (MW) /      0.000 (MB)
	Size of irrep 2 of tIjAb amplitudes:       0.001 (MW) /      0.006 (MB)
	Size of irrep 3 of tIjAb amplitudes:       0.001 (MW) /      0.006 (MB)
	Size of irrep 4 of tIjAb amplitudes:       0.000 (MW) /      0.000 (MB)
	Size of irrep 5 of tIjAb amplitudes:       0.002 (MW) /      0.013 (MB)
	Size of irrep 6 of tIjAb amplitudes:       0.001 (MW) /      0.007 (MB)
	Size of irrep 7 of tIjAb amplitudes:       0.001 (MW) /      0.007 (MB)
	Total:                                     0.007 (MW) /      0.055 (MB)

	Nuclear Rep. energy          =      0.00000000000000
	SCF energy                   =   -340.70688133039408
	One-electron energy          =    -11.46940552059301
	Two-electron (AA) energy     =      1.88236435022241
	Two-electron (BB) energy     =      0.28407354009053
	Two-electron (AB) energy     =      2.95851880615068
	Two-electron energy          =      5.12495669646362
	Reference energy             =   -340.70688133039386

*** tstop() called on cqc05 at Thu Aug 20 22:41:32 2020
Module time:
	user time   =       0.58 seconds =       0.01 minutes
	system time =       0.39 seconds =       0.01 minutes
	total time  =          2 seconds =       0.03 minutes
Total time:
	user time   =       2.63 seconds =       0.04 minutes
	system time =       0.45 seconds =       0.01 minutes
	total time  =          3 seconds =       0.05 minutes

*** tstart() called on cqc05
*** at Thu Aug 20 22:41:32 2020

            **************************
            *                        *
            *        CCENERGY        *
            *                        *
            **************************

    Nuclear Rep. energy (wfn)     =    0.000000000000000
    SCF energy          (wfn)     = -340.706881330394083
    Reference energy    (file100) = -340.706881330393855

    Input parameters:
    -----------------
    Wave function   =     CCSD
    Reference wfn   =     UHF
    Brueckner       =     No
    Memory (Mbytes) =     250000.0
    Maxiter         =     50
    R_Convergence   =     1.0e-07
    E_Convergence   =     1.0e-06
    Restart         =     Yes
    DIIS            =     Yes
    AO Basis        =     NONE
    ABCD            =     NEW
    Cache Level     =     2
    Cache Type      =     LRU
    Print Level     =     1
    Num. of threads =     4
    # Amps to Print =     10
    Print MP2 Amps? =     No
    Analyze T2 Amps =     No
    Print Pair Ener =     No
    Local CC        =     No
    SCS-MP2         =     False
    SCSN-MP2        =     False
    SCS-CCSD        =     False

MP2 correlation energy -0.1213939209738436
                Solving CC Amplitude Equations
                ------------------------------
  Iter             Energy              RMS        T1Diag      D1Diag    New D1Diag    D2Diag
  ----     ---------------------    ---------   ----------  ----------  ----------   --------
     0        -0.121393920973853    0.000e+00    0.000000    0.000000    0.000000    0.000000
     1        -0.134371453981812    5.152e-02    0.010990    0.000000    0.000000    0.000000
     2        -0.139249523957518    1.948e-02    0.016734    0.000000    0.000000    0.000000
     3        -0.139693705967492    7.031e-03    0.019260    0.000000    0.000000    0.000000
     4        -0.139735742021959    3.447e-03    0.020567    0.000000    0.000000    0.000000
     5        -0.139713838737590    1.681e-03    0.021097    0.000000    0.000000    0.000000
     6        -0.139718048268138    7.140e-04    0.021301    0.000000    0.000000    0.000000
     7        -0.139724241317925    2.670e-04    0.021299    0.000000    0.000000    0.000000
     8        -0.139724257627234    1.266e-04    0.021292    0.000000    0.000000    0.000000
     9        -0.139723753875065    4.519e-05    0.021287    0.000000    0.000000    0.000000
    10        -0.139723932959705    1.674e-05    0.021283    0.000000    0.000000    0.000000
    11        -0.139724005970070    5.734e-06    0.021283    0.000000    0.000000    0.000000
    12        -0.139724071753355    2.199e-06    0.021282    0.000000    0.000000    0.000000
    13        -0.139724060776851    8.793e-07    0.021282    0.000000    0.000000    0.000000
    14        -0.139724051605246    3.392e-07    0.021282    0.000000    0.000000    0.000000
    15        -0.139724047242028    1.395e-07    0.021282    0.000000    0.000000    0.000000
    16        -0.139724047225023    4.030e-08    0.021282    0.000000    0.000000    0.000000
    16        -0.139724047225023    4.030e-08    0.021282    0.000000    0.000000    0.000000

    Iterations converged.


    CCSD corr. energy   =   -0.139724047225023
    PPL corr. energy    =    0.045624882022610
    OS PPL corr. energy =    0.038538483589954
    SS PPL corr. energy =    0.007086398432656
    Largest TIA Amplitudes:
              3  70        -0.0158786946
              2  60        -0.0158786937
              0   3        -0.0077346592
              0   5         0.0070382515
              1  51         0.0068697833
              1  50         0.0052916882
              0   2        -0.0049356902
              1  56        -0.0041729772
              1  53        -0.0040011115
              0   7        -0.0033316039

    Largest Tia Amplitudes:
              0   4         0.0256072019
              1  50        -0.0196879311
              0   1         0.0191613160
              1  51         0.0133876825
              0   0        -0.0094479222
              0   6         0.0087219983
              1  53         0.0078847565
              0   3         0.0060146689
              1  56        -0.0054936585
              1  55         0.0042864152

    Largest TIJAB Amplitudes:
      3   2  21   4         0.0401647195
      2   1  39   5         0.0357409122
      3   1  30   5         0.0357409121
      3   2  20   4         0.0235713336
      3   2  21   1         0.0235713336
      3   2  71  61        -0.0235532068
      2   1  61  51         0.0233469519
      3   1  71  51         0.0233469519
      3   2  39  30         0.0222451402
      3   1  30   2        -0.0212284206

    Largest Tijab Amplitudes:
      1   0  61  39         0.0196347101
      1   0  72  30         0.0196347100
      1   0  61  38         0.0139382556
      1   0  72  29         0.0139382556
      1   0  51   3        -0.0124312414
      1   0  62  39        -0.0113934994
      1   0  73  30        -0.0113934994
      1   0  50   3         0.0110271863
      1   0  50   0        -0.0106545805
      1   0  51   4        -0.0101923053

    Largest TIjAb Amplitudes:
      1   1   5   4        -0.0575262062
      3   0   4  72         0.0538373544
      3   0  21  61         0.0538373543
      2   0  21  72         0.0538373542
      2   0   4  61        -0.0538373541
      1   1  50  50        -0.0527082959
      1   1  51  51        -0.0522729539
      1   0  39  61        -0.0515944010
      1   0  30  72        -0.0515944010
      1   1  30  30        -0.0456325161

    SCF energy       (wfn)                    = -340.706881330394083
    Reference energy (file100)                = -340.706881330393855

    Opposite-spin MP2 correlation energy      =   -0.093819590470983
    Same-spin MP2 correlation energy          =   -0.027574330502719
    MP2 correlation energy                    =   -0.121393920973844
      * MP2 total energy                      = -340.828275251367700

    Opposite-spin CCSD correlation energy     =   -0.111573114976625
    Same-spin CCSD correlation energy         =   -0.028150933436592
    CCSD correlation energy                   =   -0.139724047225023
      * CCSD total energy                     = -340.846605377618857


*** tstop() called on cqc05 at Thu Aug 20 22:41:34 2020
Module time:
	user time   =       0.72 seconds =       0.01 minutes
	system time =       0.56 seconds =       0.01 minutes
	total time  =          2 seconds =       0.03 minutes
Total time:
	user time   =       3.35 seconds =       0.06 minutes
	system time =       1.01 seconds =       0.02 minutes
	total time  =          5 seconds =       0.08 minutes

*** Psi4 exiting successfully. Buy a developer a beer!
