
    -----------------------------------------------------------------------
          Psi4: An Open-Source Ab Initio Electronic Structure Package
                               Psi4 1.2a1.dev938 

                         Git: Rev {HEAD} fc51d9a dirty


    R. M. Parrish, L. A. Burns, D. G. A. Smith, A. C. Simmonett,
    A. E. DePrince III, E. G. Hohenstein, U. Bozkaya, A. Yu. Sokolov,
    R. Di Remigio, R. M. Richard, J. F. Gonthier, A. M. James,
    H. R. McAlexander, A. Kumar, M. Saitow, X. Wang, B. P. Pritchard,
    P. Verma, H. F. Schaefer III, K. Patkowski, R. A. King, E. F. Valeev,
    F. A. Evangelista, J. M. Turney, T. D. Crawford, and C. D. Sherrill,
    J. Chem. Theory Comput. 13(7) pp 3185--3197 (2017).
    (doi: 10.1021/acs.jctc.7b00174)

    -----------------------------------------------------------------------


    Psi4 started on: Thursday, 20 August 2020 08:11PM

    Process ID: 424112
    PSIDATADIR: /home/irmler/Programs/psi4/beforeGrueneis3/stage/usr/local/psi4/share/psi4
    Memory:     500.0 MiB
    Threads:    4
    
  ==> Input File <==

--------------------------------------------------------------------------
# Any line starting with the # character is a comment line
memory 250000 mb
molecule molecule{
-1 3
P          0.0000000000        0.0000000000        0.0000000000
}

set {
  reference uhf
  basis aug-cc-pv(t+d)z
  scf_type OUT_OF_CORE
  freeze_core true
}

energy('ccsd')
--------------------------------------------------------------------------

  Memory set to 232.831 GiB by Python driver.

*** tstart() called on cqc05
*** at Thu Aug 20 20:11:02 2020

   => Loading Basis Set <=

    Name: AUG-CC-PV(T+D)Z
    Role: ORBITAL
    Keyword: BASIS
    atoms 1 entry P          line   844 file /home/irmler/Programs/psi4/beforeGrueneis3/stage/usr/local/psi4/share/psi4/basis/aug-cc-pv_tpd_z.gbs 


         ---------------------------------------------------------
                                   SCF
            by Justin Turney, Rob Parrish, Andy Simmonett
                             and Daniel Smith
                              UHF Reference
                        4 Threads, 238418 MiB Core
         ---------------------------------------------------------

  ==> Geometry <==

    Molecular point group: d2h
    Geometry (in Angstrom), charge = -1, multiplicity = 3:

       Center              X                  Y                   Z               Mass       
    ------------   -----------------  -----------------  -----------------  -----------------
           P          0.000000000000     0.000000000000     0.000000000000    30.973761629000

  Running in d2h symmetry.

  Rotational constants: A = ************  B = ************  C = ************ [cm^-1]
  Rotational constants: A = ************  B = ************  C = ************ [MHz]
  Nuclear repulsion =    0.000000000000000

  Charge       = -1
  Multiplicity = 3
  Electrons    = 16
  Nalpha       = 9
  Nbeta        = 7

  ==> Algorithm <==

  SCF Algorithm Type is OUT_OF_CORE.
  DIIS enabled.
  MOM disabled.
  Fractional occupation disabled.
  Guess Type is GWH.
  Energy threshold   = 1.00e-08
  Density threshold  = 1.00e-08
  Integral threshold = 0.00e+00

  ==> Primary Basis <==

  Basis Set: AUG-CC-PV(T+D)Z
    Blend: AUG-CC-PV(T+D)Z
    Number of shells: 17
    Number of basis function: 55
    Number of Cartesian functions: 65
    Spherical Harmonics?: true
    Max angular momentum: 3

  ==> Pre-Iterations <==

   -------------------------------------------------------
    Irrep   Nso     Nmo     Nalpha   Nbeta   Ndocc  Nsocc
   -------------------------------------------------------
     Ag        14      14       0       0       0       0
     B1g        4       4       0       0       0       0
     B2g        4       4       0       0       0       0
     B3g        4       4       0       0       0       0
     Au         2       2       0       0       0       0
     B1u        9       9       0       0       0       0
     B2u        9       9       0       0       0       0
     B3u        9       9       0       0       0       0
   -------------------------------------------------------
    Total      55      55       9       7       7       2
   -------------------------------------------------------

  ==> Integral Setup <==

  ==> DiskJK: Disk-Based J/K Matrices <==

    J tasked:                  Yes
    K tasked:                  Yes
    wK tasked:                  No
    Memory (MB):            178813
    Schwarz Cutoff:          1E-12

  Minimum eigenvalue in the overlap matrix is 1.2437712170E-02.
  Using Symmetric Orthogonalization.

  SCF Guess: Generalized Wolfsberg-Helmholtz.

  ==> Iterations <==

                        Total Energy        Delta E     RMS |[F,P]|

   @UHF iter   1:  -338.86993574635039   -3.38870e+02   1.38473e-01 
   @UHF iter   2:  -339.57181262688306   -7.01877e-01   4.40182e-02 DIIS
   @UHF iter   3:  -340.45715494465651   -8.85342e-01   3.55577e-02 DIIS
   @UHF iter   4:  -340.66862963209957   -2.11475e-01   1.10996e-02 DIIS
   @UHF iter   5:  -340.70343222047478   -3.48026e-02   1.52605e-03 DIIS
   @UHF iter   6:  -340.70450082411969   -1.06860e-03   3.50487e-04 DIIS
   @UHF iter   7:  -340.70461398724086   -1.13163e-04   1.58029e-04 DIIS
   @UHF iter   8:  -340.70465151389760   -3.75267e-05   9.07410e-05 DIIS
   @UHF iter   9:  -340.70466848209998   -1.69682e-05   4.61716e-05 DIIS
   @UHF iter  10:  -340.70467366543670   -5.18334e-06   1.64648e-05 DIIS
   @UHF iter  11:  -340.70467438159244   -7.16156e-07   2.75837e-06 DIIS
   @UHF iter  12:  -340.70467440148002   -1.98876e-08   5.71073e-07 DIIS
   @UHF iter  13:  -340.70467440214759   -6.67569e-10   8.68806e-08 DIIS
   @UHF iter  14:  -340.70467440215248   -4.88853e-12   1.57271e-08 DIIS
   @UHF iter  15:  -340.70467440215265   -1.70530e-13   1.45011e-09 DIIS

  ==> Post-Iterations <==

   @Spin Contamination Metric:   2.477408967E-02
   @S^2 Expected:                2.000000000E+00
   @S^2 Observed:                2.024774090E+00
   @S   Expected:                1.000000000E+00
   @S   Observed:                1.000000000E+00

    Orbital Energies (a.u.)
    -----------------------

    Alpha Occupied:                                                       

       1Ag   -79.700296     2Ag    -7.240693     1B2u   -5.141531  
       1B3u   -5.141531     1B1u   -5.128686     3Ag    -0.529198  
       2B3u   -0.122445     2B2u   -0.122445     2B1u   -0.065322  

    Alpha Virtual:                                                        

       3B3u    0.231586     3B2u    0.231586     3B1u    0.244501  
       4Ag     0.253351     1B1g    0.382961     5Ag     0.382961  
       1B2g    0.397521     1B3g    0.397521     6Ag     0.403324  
       4B3u    0.715684     4B2u    0.715684     4B1u    0.748742  
       2B1g    0.784648     7Ag     0.784648     2B3g    0.815155  
       2B2g    0.815155     8Ag     0.824324     9Ag     0.830552  
       5B3u    0.852538     5B2u    0.852538     5B1u    0.868246  
       1Au     0.868246     6B2u    0.878506     6B3u    0.878506  
       6B1u    0.882182     3B1g    1.830147    10Ag     1.830147  
       3B2g    1.855483     3B3g    1.855483    11Ag     1.864725  
       7B3u    2.107369     7B2u    2.107369     7B1u    2.131294  
       2Au     2.131294     8B3u    2.146122     8B2u    2.146122  
       8B1u    2.151169     9B2u    2.536839     9B3u    2.536839  
       9B1u    2.570459    12Ag     3.579810     4B1g    6.461560  
      13Ag     6.461560     4B2g    6.475668     4B3g    6.475668  
      14Ag     6.480511  

    Beta Occupied:                                                        

       1Ag   -79.688331     2Ag    -7.227452     1B1u   -5.119473  
       1B2u   -5.109880     1B3u   -5.109880     3Ag    -0.351228  
       2B1u   -0.025470  

    Beta Virtual:                                                         

       2B3u    0.204168     2B2u    0.204168     3B1u    0.251205  
       4Ag     0.265474     3B3u    0.325384     3B2u    0.325384  
       5Ag     0.413970     1B2g    0.415405     1B3g    0.415405  
       1B1g    0.421036     6Ag     0.421036     4B1u    0.765511  
       4B3u    0.789745     4B2u    0.789745     7Ag     0.865196  
       8Ag     0.870258     2B2g    0.873852     2B3g    0.873852  
       5B3u    0.886430     5B2u    0.886430     2B1g    0.889328  
       9Ag     0.889328     5B1u    0.890650     1Au     0.890650  
       6B2u    0.893192     6B3u    0.893192     6B1u    0.893934  
       3B1g    1.877513    10Ag     1.877513     3B2g    1.882669  
       3B3g    1.882669    11Ag     1.884302     7B3u    2.170668  
       7B2u    2.170668     7B1u    2.175508     2Au     2.175508  
       8B3u    2.178215     8B2u    2.178215     8B1u    2.179085  
       9B1u    2.584610     9B3u    2.589423     9B2u    2.589423  
      12Ag     3.606247     4B1g    6.476074    13Ag     6.476074  
       4B2g    6.484327     4B3g    6.484327    14Ag     6.487100  

    Final Occupation by Irrep:
             Ag   B1g   B2g   B3g    Au   B1u   B2u   B3u 
    DOCC [     3,    0,    0,    0,    0,    2,    1,    1 ]
    SOCC [     0,    0,    0,    0,    0,    0,    1,    1 ]

  Energy converged.

  @UHF Final Energy:  -340.70467440215265

   => Energetics <=

    Nuclear Repulsion Energy =              0.0000000000000000
    One-Electron Energy =                -475.5854888243000005
    Two-Electron Energy =                 134.8808144221473242
    Total Energy =                       -340.7046744021527047


  UHF NO Occupations:
  HONO-2 :    2B1u 1.9934852
  HONO-1 :    2B3u 1.0000000
  HONO-0 :    2B2u 1.0000000
  LUNO+0 :    3B1u 0.0065148
  LUNO+1 :    4 Ag 0.0059050
  LUNO+2 :    3B3u 0.0000027
  LUNO+3 :    3B2u 0.0000027



Properties will be evaluated at   0.000000,   0.000000,   0.000000 Bohr

Properties computed using the SCF density matrix

  Nuclear Dipole Moment: (a.u.)
     X:     0.0000      Y:     0.0000      Z:     0.0000

  Electronic Dipole Moment: (a.u.)
     X:     0.0000      Y:     0.0000      Z:     0.0000

  Dipole Moment: (a.u.)
     X:     0.0000      Y:     0.0000      Z:     0.0000     Total:     0.0000

  Dipole Moment: (Debye)
     X:     0.0000      Y:     0.0000      Z:     0.0000     Total:     0.0000


*** tstop() called on cqc05 at Thu Aug 20 20:11:03 2020
Module time:
	user time   =       0.65 seconds =       0.01 minutes
	system time =       0.01 seconds =       0.00 minutes
	total time  =          1 seconds =       0.02 minutes
Total time:
	user time   =       0.65 seconds =       0.01 minutes
	system time =       0.01 seconds =       0.00 minutes
	total time  =          1 seconds =       0.02 minutes

*** tstart() called on cqc05
*** at Thu Aug 20 20:11:03 2020


	Wfn Parameters:
	--------------------
	Wavefunction         = CCSD
	Number of irreps     = 8
	Number of MOs        = 55
	Number of active MOs = 50
	AO-Basis             = NONE
	Semicanonical        = false
	Reference            = UHF
	Print Level          = 1

	IRREP	# MOs	# FZDC	# DOCC	# SOCC	# VIRT	# FZVR
	-----	-----	------	------	------	------	------
	 Ag	   14	    2	    1	    0	    11	    0
	 B1g	   4	    0	    0	    0	    4	    0
	 B2g	   4	    0	    0	    0	    4	    0
	 B3g	   4	    0	    0	    0	    4	    0
	 Au	   2	    0	    0	    0	    2	    0
	 B1u	   9	    1	    1	    0	    7	    0
	 B2u	   9	    1	    0	    1	    7	    0
	 B3u	   9	    1	    0	    1	    7	    0
	Transforming integrals...
	IWL integrals will be deleted.
	(OO|OO)...
	Presorting SO-basis two-electron integrals.
	Sorting File: SO Ints (nn|nn) nbuckets = 1
	Transforming the one-electron integrals and constructing Fock matrices
	Starting AA/AB first half-transformation.
	Sorting AA/AB half-transformed integrals.
	Starting BB first half-transformation.
	Sorting BB half-transformed integrals.
	First half integral transformation complete.
	Starting AA second half-transformation.
	Starting AB second half-transformation.
	Starting BB second half-transformation.
	Two-electron integral transformation complete.
	(OO|OV)...
	Starting AA second half-transformation.
	Starting AB second half-transformation.
	Starting BB second half-transformation.
	Two-electron integral transformation complete.
	(OO|VV)...
	Starting AA second half-transformation.
	Starting AB second half-transformation.
	Starting BB second half-transformation.
	Two-electron integral transformation complete.
	(OV|OO)...
	Starting AA/AB first half-transformation.
	Sorting AA/AB half-transformed integrals.
	Starting BB first half-transformation.
	Sorting BB half-transformed integrals.
	First half integral transformation complete.
	Starting AA second half-transformation.
	Starting AB second half-transformation.
	Starting BB second half-transformation.
	Two-electron integral transformation complete.
	(OV|OV)...
	Starting AA second half-transformation.
	Starting AB second half-transformation.
	Starting BB second half-transformation.
	Two-electron integral transformation complete.
	(OV|VV)...
	Starting AA second half-transformation.
	Starting AB second half-transformation.
	Starting BB second half-transformation.
	Two-electron integral transformation complete.
	(VV|OO)...
	Starting AA/AB first half-transformation.
	Sorting AA/AB half-transformed integrals.
	Starting BB first half-transformation.
	Sorting BB half-transformed integrals.
	First half integral transformation complete.
	Starting AA second half-transformation.
	Starting AB second half-transformation.
	Starting BB second half-transformation.
	Two-electron integral transformation complete.
	(VV|OV)...
	Starting AA second half-transformation.
	Starting AB second half-transformation.
	Starting BB second half-transformation.
	Two-electron integral transformation complete.
	(VV|VV)...
	Starting AA second half-transformation.
	Starting AB second half-transformation.
	Starting BB second half-transformation.
	Two-electron integral transformation complete.
	Frozen core energy     =   -334.36053162499240

	Size of irrep 0 of <AB|CD> integrals:      0.019 (MW) /      0.150 (MB)
	Size of irrep 1 of <AB|CD> integrals:      0.015 (MW) /      0.121 (MB)
	Size of irrep 2 of <AB|CD> integrals:      0.015 (MW) /      0.121 (MB)
	Size of irrep 3 of <AB|CD> integrals:      0.015 (MW) /      0.121 (MB)
	Size of irrep 4 of <AB|CD> integrals:      0.011 (MW) /      0.090 (MB)
	Size of irrep 5 of <AB|CD> integrals:      0.020 (MW) /      0.159 (MB)
	Size of irrep 6 of <AB|CD> integrals:      0.020 (MW) /      0.159 (MB)
	Size of irrep 7 of <AB|CD> integrals:      0.020 (MW) /      0.159 (MB)
	Total:                                     0.135 (MW) /      1.080 (MB)

	Size of irrep 0 of <ab|cd> integrals:      0.023 (MW) /      0.182 (MB)
	Size of irrep 1 of <ab|cd> integrals:      0.019 (MW) /      0.152 (MB)
	Size of irrep 2 of <ab|cd> integrals:      0.017 (MW) /      0.139 (MB)
	Size of irrep 3 of <ab|cd> integrals:      0.017 (MW) /      0.139 (MB)
	Size of irrep 4 of <ab|cd> integrals:      0.013 (MW) /      0.104 (MB)
	Size of irrep 5 of <ab|cd> integrals:      0.022 (MW) /      0.178 (MB)
	Size of irrep 6 of <ab|cd> integrals:      0.024 (MW) /      0.195 (MB)
	Size of irrep 7 of <ab|cd> integrals:      0.024 (MW) /      0.195 (MB)
	Total:                                     0.161 (MW) /      1.284 (MB)

	Size of irrep 0 of <Ab|Cd> integrals:      0.112 (MW) /      0.892 (MB)
	Size of irrep 1 of <Ab|Cd> integrals:      0.068 (MW) /      0.541 (MB)
	Size of irrep 2 of <Ab|Cd> integrals:      0.065 (MW) /      0.520 (MB)
	Size of irrep 3 of <Ab|Cd> integrals:      0.065 (MW) /      0.520 (MB)
	Size of irrep 4 of <Ab|Cd> integrals:      0.048 (MW) /      0.387 (MB)
	Size of irrep 5 of <Ab|Cd> integrals:      0.084 (MW) /      0.673 (MB)
	Size of irrep 6 of <Ab|Cd> integrals:      0.088 (MW) /      0.706 (MB)
	Size of irrep 7 of <Ab|Cd> integrals:      0.088 (MW) /      0.706 (MB)
	Total:                                     0.618 (MW) /      4.945 (MB)

	Size of irrep 0 of <IA|BC> integrals:      0.010 (MW) /      0.082 (MB)
	Size of irrep 1 of <IA|BC> integrals:      0.005 (MW) /      0.039 (MB)
	Size of irrep 2 of <IA|BC> integrals:      0.005 (MW) /      0.039 (MB)
	Size of irrep 3 of <IA|BC> integrals:      0.005 (MW) /      0.039 (MB)
	Size of irrep 4 of <IA|BC> integrals:      0.003 (MW) /      0.024 (MB)
	Size of irrep 5 of <IA|BC> integrals:      0.007 (MW) /      0.059 (MB)
	Size of irrep 6 of <IA|BC> integrals:      0.007 (MW) /      0.059 (MB)
	Size of irrep 7 of <IA|BC> integrals:      0.007 (MW) /      0.059 (MB)
	Total:                                     0.050 (MW) /      0.400 (MB)

	Size of irrep 0 of <ia|bc> integrals:      0.006 (MW) /      0.050 (MB)
	Size of irrep 1 of <ia|bc> integrals:      0.002 (MW) /      0.013 (MB)
	Size of irrep 2 of <ia|bc> integrals:      0.003 (MW) /      0.025 (MB)
	Size of irrep 3 of <ia|bc> integrals:      0.003 (MW) /      0.025 (MB)
	Size of irrep 4 of <ia|bc> integrals:      0.001 (MW) /      0.011 (MB)
	Size of irrep 5 of <ia|bc> integrals:      0.005 (MW) /      0.043 (MB)
	Size of irrep 6 of <ia|bc> integrals:      0.004 (MW) /      0.030 (MB)
	Size of irrep 7 of <ia|bc> integrals:      0.004 (MW) /      0.030 (MB)
	Total:                                     0.029 (MW) /      0.228 (MB)

	Size of irrep 0 of <Ia|Bc> integrals:      0.011 (MW) /      0.091 (MB)
	Size of irrep 1 of <Ia|Bc> integrals:      0.006 (MW) /      0.046 (MB)
	Size of irrep 2 of <Ia|Bc> integrals:      0.005 (MW) /      0.043 (MB)
	Size of irrep 3 of <Ia|Bc> integrals:      0.005 (MW) /      0.043 (MB)
	Size of irrep 4 of <Ia|Bc> integrals:      0.003 (MW) /      0.025 (MB)
	Size of irrep 5 of <Ia|Bc> integrals:      0.008 (MW) /      0.060 (MB)
	Size of irrep 6 of <Ia|Bc> integrals:      0.008 (MW) /      0.064 (MB)
	Size of irrep 7 of <Ia|Bc> integrals:      0.008 (MW) /      0.064 (MB)
	Total:                                     0.054 (MW) /      0.436 (MB)

	Size of irrep 0 of <iA|bC> integrals:      0.006 (MW) /      0.048 (MB)
	Size of irrep 1 of <iA|bC> integrals:      0.002 (MW) /      0.012 (MB)
	Size of irrep 2 of <iA|bC> integrals:      0.003 (MW) /      0.022 (MB)
	Size of irrep 3 of <iA|bC> integrals:      0.003 (MW) /      0.022 (MB)
	Size of irrep 4 of <iA|bC> integrals:      0.001 (MW) /      0.011 (MB)
	Size of irrep 5 of <iA|bC> integrals:      0.005 (MW) /      0.042 (MB)
	Size of irrep 6 of <iA|bC> integrals:      0.003 (MW) /      0.026 (MB)
	Size of irrep 7 of <iA|bC> integrals:      0.003 (MW) /      0.026 (MB)
	Total:                                     0.026 (MW) /      0.210 (MB)

	Size of irrep 0 of tIjAb amplitudes:       0.001 (MW) /      0.005 (MB)
	Size of irrep 1 of tIjAb amplitudes:       0.000 (MW) /      0.000 (MB)
	Size of irrep 2 of tIjAb amplitudes:       0.000 (MW) /      0.002 (MB)
	Size of irrep 3 of tIjAb amplitudes:       0.000 (MW) /      0.002 (MB)
	Size of irrep 4 of tIjAb amplitudes:       0.000 (MW) /      0.000 (MB)
	Size of irrep 5 of tIjAb amplitudes:       0.001 (MW) /      0.005 (MB)
	Size of irrep 6 of tIjAb amplitudes:       0.000 (MW) /      0.002 (MB)
	Size of irrep 7 of tIjAb amplitudes:       0.000 (MW) /      0.002 (MB)
	Total:                                     0.002 (MW) /      0.019 (MB)

	Nuclear Rep. energy          =      0.00000000000000
	SCF energy                   =   -340.70467440215265
	One-electron energy          =    -11.47217908148965
	Two-electron (AA) energy     =      1.88061971584455
	Two-electron (BB) energy     =      0.28509249328252
	Two-electron (AB) energy     =      2.96232409520247
	Two-electron energy          =      5.12803630432954
	Reference energy             =   -340.70467440215253

*** tstop() called on cqc05 at Thu Aug 20 20:11:03 2020
Module time:
	user time   =       0.12 seconds =       0.00 minutes
	system time =       0.09 seconds =       0.00 minutes
	total time  =          0 seconds =       0.00 minutes
Total time:
	user time   =       0.77 seconds =       0.01 minutes
	system time =       0.10 seconds =       0.00 minutes
	total time  =          1 seconds =       0.02 minutes

*** tstart() called on cqc05
*** at Thu Aug 20 20:11:03 2020

            **************************
            *                        *
            *        CCENERGY        *
            *                        *
            **************************

    Nuclear Rep. energy (wfn)     =    0.000000000000000
    SCF energy          (wfn)     = -340.704674402152648
    Reference energy    (file100) = -340.704674402152534

    Input parameters:
    -----------------
    Wave function   =     CCSD
    Reference wfn   =     UHF
    Brueckner       =     No
    Memory (Mbytes) =     250000.0
    Maxiter         =     50
    R_Convergence   =     1.0e-07
    E_Convergence   =     1.0e-06
    Restart         =     Yes
    DIIS            =     Yes
    AO Basis        =     NONE
    ABCD            =     NEW
    Cache Level     =     2
    Cache Type      =     LRU
    Print Level     =     1
    Num. of threads =     4
    # Amps to Print =     10
    Print MP2 Amps? =     No
    Analyze T2 Amps =     No
    Print Pair Ener =     No
    Local CC        =     No
    SCS-MP2         =     False
    SCSN-MP2        =     False
    SCS-CCSD        =     False

MP2 correlation energy -0.1134227418473615
                Solving CC Amplitude Equations
                ------------------------------
  Iter             Energy              RMS        T1Diag      D1Diag    New D1Diag    D2Diag
  ----     ---------------------    ---------   ----------  ----------  ----------   --------
     0        -0.113422741847362    0.000e+00    0.000000    0.000000    0.000000    0.000000
     1        -0.128541135980814    5.280e-02    0.010239    0.000000    0.000000    0.000000
     2        -0.133654768104589    1.972e-02    0.016105    0.000000    0.000000    0.000000
     3        -0.134084342499638    6.578e-03    0.018517    0.000000    0.000000    0.000000
     4        -0.134098983322679    2.853e-03    0.019357    0.000000    0.000000    0.000000
     5        -0.134084935124843    1.442e-03    0.019709    0.000000    0.000000    0.000000
     6        -0.134092865230380    5.767e-04    0.019770    0.000000    0.000000    0.000000
     7        -0.134097413927636    2.142e-04    0.019755    0.000000    0.000000    0.000000
     8        -0.134096771127020    1.026e-04    0.019745    0.000000    0.000000    0.000000
     9        -0.134096747617767    3.111e-05    0.019741    0.000000    0.000000    0.000000
    10        -0.134096917683339    1.071e-05    0.019740    0.000000    0.000000    0.000000
    11        -0.134096896753436    3.160e-06    0.019740    0.000000    0.000000    0.000000
    12        -0.134096862655392    1.406e-06    0.019740    0.000000    0.000000    0.000000
    13        -0.134096837032754    5.539e-07    0.019739    0.000000    0.000000    0.000000
    14        -0.134096832242340    1.890e-07    0.019739    0.000000    0.000000    0.000000
    15        -0.134096832791412    6.397e-08    0.019739    0.000000    0.000000    0.000000
    15        -0.134096832791412    6.397e-08    0.019739    0.000000    0.000000    0.000000

    Iterations converged.


    CCSD corr. energy   =   -0.134096832791412
    PPL corr. energy    =    0.041159039761896
    OS PPL corr. energy =    0.034412688110397
    SS PPL corr. energy =    0.006746351651499
    Largest TIA Amplitudes:
              2  32        -0.0169062812
              3  39        -0.0169062812
              0   4        -0.0096803245
              1  26        -0.0074506273
              0   2        -0.0064478680
              1  25        -0.0056334048
              0   0         0.0032562574
              1  28         0.0032046065
              1  31         0.0023271627
              2  38         0.0019631927

    Largest Tia Amplitudes:
              0   1        -0.0243930636
              0   4        -0.0225360182
              1  26        -0.0104473734
              1  25         0.0104201888
              0   0         0.0093708203
              1  28        -0.0071501482
              0   3         0.0038407620
              0   7         0.0032042179
              1  30        -0.0029143554
              1  31         0.0028157032

    Largest TIJAB Amplitudes:
      3   2  12   3         0.0341122647
      3   2  11   1         0.0324481768
      3   1  15   2        -0.0288979733
      2   1  19   2        -0.0288979733
      3   2  11   3         0.0262644697
      3   2  12   1         0.0262644697
      3   1  16   2        -0.0238454929
      2   1  20   2        -0.0238454929
      3   2  40  33        -0.0231301058
      3   1  16   4        -0.0228673391

    Largest Tijab Amplitudes:
      1   0  33  19        -0.0182455795
      1   0  41  15        -0.0182455795
      1   0  33  20        -0.0177539520
      1   0  41  16        -0.0177539520
      1   0  26   4        -0.0140186337
      1   0  25   0        -0.0137071869
      1   0  25   4         0.0132988970
      1   0  34  20         0.0106935670
      1   0  42  16         0.0106935670
      1   0  32  19         0.0088143317

    Largest TIjAb Amplitudes:
      1   1  25  25        -0.0668293056
      2   0   3  33        -0.0513832196
      2   0  12  41         0.0513832196
      3   0   3  41         0.0513832196
      3   0  12  33         0.0513832196
      1   0  16  41         0.0494047461
      1   0  20  33         0.0494047461
      1   1   2   1         0.0489680956
      1   1  26  26        -0.0481796955
      1   1  26  25         0.0442186528

    SCF energy       (wfn)                    = -340.704674402152648
    Reference energy (file100)                = -340.704674402152534

    Opposite-spin MP2 correlation energy      =   -0.086569532559520
    Same-spin MP2 correlation energy          =   -0.026853209287841
    MP2 correlation energy                    =   -0.113422741847361
      * MP2 total energy                      = -340.818097143999921

    Opposite-spin CCSD correlation energy     =   -0.106543377785443
    Same-spin CCSD correlation energy         =   -0.027553454866399
    CCSD correlation energy                   =   -0.134096832791412
      * CCSD total energy                     = -340.838771234943920


*** tstop() called on cqc05 at Thu Aug 20 20:11:05 2020
Module time:
	user time   =       0.29 seconds =       0.00 minutes
	system time =       0.22 seconds =       0.00 minutes
	total time  =          2 seconds =       0.03 minutes
Total time:
	user time   =       1.06 seconds =       0.02 minutes
	system time =       0.32 seconds =       0.01 minutes
	total time  =          3 seconds =       0.05 minutes

*** Psi4 exiting successfully. Buy a developer a beer!
