
    -----------------------------------------------------------------------
          Psi4: An Open-Source Ab Initio Electronic Structure Package
                               Psi4 1.4a3.dev88 

                         Git: Rev {master} 262e345 


    D. G. A. Smith, L. A. Burns, A. C. Simmonett, R. M. Parrish,
    M. C. Schieber, R. Galvelis, P. Kraus, H. Kruse, R. Di Remigio,
    A. Alenaizan, A. M. James, S. Lehtola, J. P. Misiewicz, M. Scheurer,
    R. A. Shaw, J. B. Schriber, Y. Xie, Z. L. Glick, D. A. Sirianni,
    J. S. O'Brien, J. M. Waldrop, A. Kumar, E. G. Hohenstein,
    B. P. Pritchard, B. R. Brooks, H. F. Schaefer III, A. Yu. Sokolov,
    K. Patkowski, A. E. DePrince III, U. Bozkaya, R. A. King,
    F. A. Evangelista, J. M. Turney, T. D. Crawford, C. D. Sherrill,
    J. Chem. Phys. 152(18) 184108 (2020). https://doi.org/10.1063/5.0006002

                            Additional Code Authors
    E. T. Seidl, C. L. Janssen, E. F. Valeev, M. L. Leininger,
    J. F. Gonthier, R. M. Richard, H. R. McAlexander, M. Saitow, X. Wang,
    P. Verma, and M. H. Lechner

             Previous Authors, Complete List of Code Contributors,
                       and Citations for Specific Modules
    https://github.com/psi4/psi4/blob/master/codemeta.json
    https://github.com/psi4/psi4/graphs/contributors
    http://psicode.org/psi4manual/master/introduction.html#citing-psifour

    -----------------------------------------------------------------------


    Psi4 started on: Tuesday, 26 January 2021 06:33PM

    Process ID: 407954
    Host:       n412-039.vsc4.prov
    PSIDATADIR: /home/fs71337/gallo4/psi4/eri-6/psi4/build/stage/share/psi4
    Memory:     500.0 MiB
    Threads:    48
    
  ==> Input File <==

--------------------------------------------------------------------------
# Any line starting with the # character is a comment line
memory 250000 mb
molecule molecule{
0 1
P          0.0000000000        0.0000000000        0.9601625849
P          0.0000000000        0.0000000000       -0.9601625849
}

set {
  reference rhf
  basis aug-cc-pV(d+d)Z
  scf_type OUT_OF_CORE
  freeze_core true
}

energy('ccsd(t)')
--------------------------------------------------------------------------

  Memory set to 232.831 GiB by Python driver.

Scratch directory: /binfl/lv71337/airmler/temp/

*** tstart() called on n412-039.vsc4.prov
*** at Tue Jan 26 18:33:03 2021

   => Loading Basis Set <=

    Name: AUG-CC-PV(D+D)Z
    Role: ORBITAL
    Keyword: BASIS
    atoms 1-2 entry P          line   672 file /home/fs71337/gallo4/psi4/eri-6/psi4/build/stage/share/psi4/basis/aug-cc-pv_dpd_z.gbs 


         ---------------------------------------------------------
                                   SCF
               by Justin Turney, Rob Parrish, Andy Simmonett
                          and Daniel G. A. Smith
                              RHF Reference
                       48 Threads, 238418 MiB Core
         ---------------------------------------------------------

  ==> Geometry <==

    Molecular point group: d2h
    Full point group: D_inf_h

    Geometry (in Angstrom), charge = 0, multiplicity = 1:

       Center              X                  Y                   Z               Mass       
    ------------   -----------------  -----------------  -----------------  -----------------
         P            0.000000000000     0.000000000000     0.960162584900    30.973761998420
         P            0.000000000000     0.000000000000    -0.960162584900    30.973761998420

  Running in d2h symmetry.

  Rotational constants: A = ************  B =      0.29518  C =      0.29518 [cm^-1]
  Rotational constants: A = ************  B =   8849.19346  C =   8849.19346 [MHz]
  Nuclear repulsion =   62.002453685044671

  Charge       = 0
  Multiplicity = 1
  Electrons    = 30
  Nalpha       = 15
  Nbeta        = 15

  ==> Algorithm <==

  SCF Algorithm Type is OUT_OF_CORE.
  DIIS enabled.
  MOM disabled.
  Fractional occupation disabled.
  Guess Type is SAD.
  Energy threshold   = 1.00e-08
  Density threshold  = 1.00e-08
  Integral threshold = 1.00e-12

  ==> Primary Basis <==

  Basis Set: AUG-CC-PV(D+D)Z
    Blend: AUG-CC-PV(D+D)Z
    Number of shells: 24
    Number of basis function: 64
    Number of Cartesian functions: 70
    Spherical Harmonics?: true
    Max angular momentum: 2

  ==> Integral Setup <==

  ==> DiskJK: Disk-Based J/K Matrices <==

    J tasked:                  Yes
    K tasked:                  Yes
    wK tasked:                  No
    Memory [MiB]:           178813
    Schwarz Cutoff:          1E-12

  Minimum eigenvalue in the overlap matrix is 1.1573498045E-03.
  Reciprocal condition number of the overlap matrix is 2.8391975260E-04.
    Using symmetric orthogonalization.

  ==> Pre-Iterations <==

  SCF Guess: Superposition of Atomic Densities via on-the-fly atomic UHF (no occupation information).


 WARNING: Atomic UHF is not converging! Try casting from a smaller basis or call Rob at CCMST.
   -------------------------
    Irrep   Nso     Nmo    
   -------------------------
     Ag        15      15 
     B1g        3       3 
     B2g        7       7 
     B3g        7       7 
     Au         3       3 
     B1u       15      15 
     B2u        7       7 
     B3u        7       7 
   -------------------------
    Total      64      64
   -------------------------

  ==> Iterations <==

                        Total Energy        Delta E     RMS |[F,P]|

   @RHF iter SAD:  -678.16147661862135   -6.78161e+02   0.00000e+00 
   @RHF iter   1:  -681.32383337180056   -3.16236e+00   1.70765e-02 DIIS
   @RHF iter   2:  -681.46034423315859   -1.36511e-01   6.65996e-03 DIIS
   @RHF iter   3:  -681.47362398271059   -1.32797e-02   8.92256e-04 DIIS
   @RHF iter   4:  -681.47431134393878   -6.87361e-04   1.92072e-04 DIIS
   @RHF iter   5:  -681.47434613672783   -3.47928e-05   2.23698e-05 DIIS
   @RHF iter   6:  -681.47434662278761   -4.86060e-07   3.98569e-06 DIIS
   @RHF iter   7:  -681.47434663540650   -1.26189e-08   4.56981e-07 DIIS
   @RHF iter   8:  -681.47434663572210   -3.15595e-10   7.40126e-08 DIIS
   @RHF iter   9:  -681.47434663572949   -7.38964e-12   1.20442e-08 DIIS
   @RHF iter  10:  -681.47434663572926    2.27374e-13   2.51046e-09 DIIS
  Energy and wave function converged.


  ==> Post-Iterations <==

    Orbital Energies [Eh]
    ---------------------

    Doubly Occupied:                                                      

       1Ag   -79.985570     1B1u  -79.985566     2Ag    -7.525467  
       2B1u   -7.524894     3Ag    -5.417655     1B3u   -5.416659  
       1B2u   -5.416659     1B2g   -5.416436     1B3g   -5.416436  
       3B1u   -5.415632     4Ag    -0.899397     4B1u   -0.612409  
       5Ag    -0.410206     2B3u   -0.368486     2B2u   -0.368486  

    Virtual:                                                              

       2B3g    0.011623     2B2g    0.011623     5B1u    0.058199  
       6Ag     0.091284     3B3u    0.100384     3B2u    0.100384  
       7Ag     0.109881     3B2g    0.139833     3B3g    0.139833  
       6B1u    0.197935     1B1g    0.242687     8Ag     0.242687  
       7B1u    0.246596     4B3u    0.311563     4B2u    0.311563  
       9Ag     0.355914     1Au     0.377369     8B1u    0.377369  
       4B2g    0.492002     4B3g    0.492002     9B1u    0.523785  
       5B3u    0.692079     5B2u    0.692079    10Ag     0.710922  
      10B1u    0.766025    11Ag     0.770021     6B3u    0.783941  
       6B2u    0.783941     5B2g    0.808231     5B3g    0.808231  
       2B1g    0.828476    12Ag     0.828476     2Au     0.910236  
      11B1u    0.910236    13Ag     0.983189     6B2g    1.062957  
       6B3g    1.062957    12B1u    1.293610    13B1u    1.523327  
       3B1g    4.294012    14Ag     4.294012     7B3u    4.294126  
       7B2u    4.294126     3Au     4.344502    14B1u    4.344502  
       7B2g    4.436197     7B3g    4.436197    15B1u    4.440524  
      15Ag     4.468549  

    Final Occupation by Irrep:
             Ag   B1g   B2g   B3g    Au   B1u   B2u   B3u 
    DOCC [     5,    0,    1,    1,    0,    4,    2,    2 ]

  @RHF Final Energy:  -681.47434663572926

   => Energetics <=

    Nuclear Repulsion Energy =             62.0024536850446708
    One-Electron Energy =               -1066.5936845711476053
    Two-Electron Energy =                 323.1168842503736869
    Total Energy =                       -681.4743466357292618

Computation Completed


Properties will be evaluated at   0.000000,   0.000000,   0.000000 [a0]

Properties computed using the SCF density matrix

  Nuclear Dipole Moment: [e a0]
     X:     0.0000      Y:     0.0000      Z:     0.0000

  Electronic Dipole Moment: [e a0]
     X:     0.0000      Y:     0.0000      Z:     0.0000

  Dipole Moment: [e a0]
     X:     0.0000      Y:     0.0000      Z:     0.0000     Total:     0.0000

  Dipole Moment: [D]
     X:     0.0000      Y:     0.0000      Z:     0.0000     Total:     0.0000


*** tstop() called on n412-039.vsc4.prov at Tue Jan 26 18:33:08 2021
Module time:
	user time   =      20.07 seconds =       0.33 minutes
	system time =       1.61 seconds =       0.03 minutes
	total time  =          5 seconds =       0.08 minutes
Total time:
	user time   =      20.07 seconds =       0.33 minutes
	system time =       1.61 seconds =       0.03 minutes
	total time  =          5 seconds =       0.08 minutes

*** tstart() called on n412-039.vsc4.prov
*** at Tue Jan 26 18:33:08 2021


	Wfn Parameters:
	--------------------
	Wavefunction         = CCSD_T
	Number of irreps     = 8
	Number of MOs        = 64
	Number of active MOs = 54
	AO-Basis             = NONE
	Semicanonical        = false
	Reference            = RHF
	Print Level          = 1

	IRREP	# MOs	# FZDC	# DOCC	# SOCC	# VIRT	# FZVR
	-----	-----	------	------	------	------	------
	 Ag	   15	    3	    2	    0	    10	    0
	 B1g	   3	    0	    0	    0	    3	    0
	 B2g	   7	    1	    0	    0	    6	    0
	 B3g	   7	    1	    0	    0	    6	    0
	 Au	   3	    0	    0	    0	    3	    0
	 B1u	   15	    3	    1	    0	    11	    0
	 B2u	   7	    1	    1	    0	    5	    0
	 B3u	   7	    1	    1	    0	    5	    0
	Transforming integrals...
	IWL integrals will be deleted.
	(OO|OO)...
	Presorting SO-basis two-electron integrals.
	Sorting File: SO Ints (nn|nn) nbuckets = 1
	Constructing frozen core operators
	Starting first half-transformation.
	Sorting half-transformed integrals.
	First half integral transformation complete.
	Starting second half-transformation.
	Two-electron integral transformation complete.
	(OO|OV)...
	Starting second half-transformation.
	Two-electron integral transformation complete.
	(OO|VV)...
	Starting second half-transformation.
	Two-electron integral transformation complete.
	(OV|OO)...
	Starting first half-transformation.
	Sorting half-transformed integrals.
	First half integral transformation complete.
	Starting second half-transformation.
	Two-electron integral transformation complete.
	(OV|OV)...
	Starting second half-transformation.
	Two-electron integral transformation complete.
	(OV|VV)...
	Starting second half-transformation.
	Two-electron integral transformation complete.
	(VV|OO)...
	Starting first half-transformation.
	Sorting half-transformed integrals.
	First half integral transformation complete.
	Starting second half-transformation.
	Two-electron integral transformation complete.
	(VV|OV)...
	Starting second half-transformation.
	Two-electron integral transformation complete.
	(VV|VV)...
	Starting second half-transformation.
	Two-electron integral transformation complete.
	Frozen core energy     =   -723.82614483974066

	Size of irrep 0 of <ab|cd> integrals:      0.130 (MW) /      1.043 (MB)
	Size of irrep 1 of <ab|cd> integrals:      0.062 (MW) /      0.492 (MB)
	Size of irrep 2 of <ab|cd> integrals:      0.088 (MW) /      0.701 (MB)
	Size of irrep 3 of <ab|cd> integrals:      0.088 (MW) /      0.701 (MB)
	Size of irrep 4 of <ab|cd> integrals:      0.061 (MW) /      0.484 (MB)
	Size of irrep 5 of <ab|cd> integrals:      0.128 (MW) /      1.025 (MB)
	Size of irrep 6 of <ab|cd> integrals:      0.089 (MW) /      0.710 (MB)
	Size of irrep 7 of <ab|cd> integrals:      0.089 (MW) /      0.710 (MB)
	Total:                                     0.733 (MW) /      5.867 (MB)

	Size of irrep 0 of <ia|bc> integrals:      0.015 (MW) /      0.118 (MB)
	Size of irrep 1 of <ia|bc> integrals:      0.005 (MW) /      0.038 (MB)
	Size of irrep 2 of <ia|bc> integrals:      0.009 (MW) /      0.073 (MB)
	Size of irrep 3 of <ia|bc> integrals:      0.009 (MW) /      0.073 (MB)
	Size of irrep 4 of <ia|bc> integrals:      0.005 (MW) /      0.041 (MB)
	Size of irrep 5 of <ia|bc> integrals:      0.016 (MW) /      0.126 (MB)
	Size of irrep 6 of <ia|bc> integrals:      0.009 (MW) /      0.069 (MB)
	Size of irrep 7 of <ia|bc> integrals:      0.009 (MW) /      0.069 (MB)
	Total:                                     0.076 (MW) /      0.609 (MB)

	Size of irrep 0 of tijab amplitudes:       0.003 (MW) /      0.020 (MB)
	Size of irrep 1 of tijab amplitudes:       0.000 (MW) /      0.004 (MB)
	Size of irrep 2 of tijab amplitudes:       0.001 (MW) /      0.005 (MB)
	Size of irrep 3 of tijab amplitudes:       0.001 (MW) /      0.005 (MB)
	Size of irrep 4 of tijab amplitudes:       0.000 (MW) /      0.000 (MB)
	Size of irrep 5 of tijab amplitudes:       0.001 (MW) /      0.011 (MB)
	Size of irrep 6 of tijab amplitudes:       0.001 (MW) /      0.010 (MB)
	Size of irrep 7 of tijab amplitudes:       0.001 (MW) /      0.010 (MB)
	Total:                                     0.008 (MW) /      0.064 (MB)

	Nuclear Rep. energy          =     62.00245368504467
	SCF energy                   =   -681.47434663572926
	One-electron energy          =    -33.98334318826372
	Two-electron energy          =     14.33268770722952
	Reference energy             =   -681.47434663573017

*** tstop() called on n412-039.vsc4.prov at Tue Jan 26 18:33:09 2021
Module time:
	user time   =       0.13 seconds =       0.00 minutes
	system time =       0.19 seconds =       0.00 minutes
	total time  =          1 seconds =       0.02 minutes
Total time:
	user time   =      20.21 seconds =       0.34 minutes
	system time =       1.80 seconds =       0.03 minutes
	total time  =          6 seconds =       0.10 minutes
            **************************
            *                        *
            *        CCENERGY        *
            *                        *
            **************************

    Nuclear Rep. energy (wfn)     =   62.002453685044671
    SCF energy          (wfn)     = -681.474346635729262
    Reference energy    (file100) = -681.474346635730171

    Input parameters:
    -----------------
    Wave function   =     CCSD_T
    Reference wfn   =     RHF
    Brueckner       =     No
    Memory (Mbytes) =     250000.0
    Maxiter         =     50
    R_Convergence   =     1.0e-07
    E_Convergence   =     1.0e-06
    Restart         =     Yes
    DIIS            =     Yes
    AO Basis        =     NONE
    ABCD            =     NEW
    Cache Level     =     2
    Cache Type      =     LOW
    Print Level     =     1
    Num. of threads =     48
    # Amps to Print =     10
    Print MP2 Amps? =     No
    Analyze T2 Amps =     No
    Print Pair Ener =     No
    Local CC        =     No
    SCS-MP2         =     False
    SCSN-MP2        =     False
    SCS-CCSD        =     False

MP2 correlation energy -0.2394583881776084
                Solving CC Amplitude Equations
                ------------------------------
  Iter             Energy              RMS        T1Diag      D1Diag    New D1Diag    D2Diag
  ----     ---------------------    ---------   ----------  ----------  ----------   --------
     0        -0.239458388177608    0.000e+00    0.000000    0.000000    0.000000    0.188776
     1        -0.243754931934406    7.689e-02    0.013880    0.026768    0.026768    0.190283
     2        -0.254439990711603    3.302e-02    0.014607    0.028070    0.028070    0.205679
     3        -0.257309454958620    1.371e-02    0.017220    0.032920    0.032920    0.214072
     4        -0.257640763258061    4.381e-03    0.017522    0.033564    0.033564    0.217283
     5        -0.257688301889406    1.108e-03    0.017567    0.033639    0.033639    0.218005
     6        -0.257688636954985    3.517e-04    0.017549    0.033630    0.033630    0.218131
     7        -0.257697168975153    9.170e-05    0.017540    0.033618    0.033618    0.218168
     8        -0.257697643799540    2.572e-05    0.017537    0.033615    0.033615    0.218174
     9        -0.257697231409973    7.661e-06    0.017536    0.033613    0.033613    0.218175
    10        -0.257697296877742    2.208e-06    0.017536    0.033613    0.033613    0.218176
    11        -0.257697266353444    6.151e-07    0.017536    0.033613    0.033613    0.218175
    12        -0.257697284584473    1.818e-07    0.017536    0.033613    0.033613    0.218175
    13        -0.257697286292187    5.623e-08    0.017536    0.033613    0.033613    0.218175

    Iterations converged.


    Largest TIA Amplitudes:
              4  45         0.0246155485
              3  40         0.0246155482
              2  30         0.0178951266
              4  47        -0.0173184976
              3  42        -0.0173184975
              2  29         0.0151555904
              3  41        -0.0118436370
              4  46        -0.0118436369
              3  39         0.0091211595
              4  44         0.0091211588

    Largest TIjAb Amplitudes:
      3   3  19  19        -0.1117737750
      4   4  13  13        -0.1117737734
      3   4  19  13        -0.0632707558
      4   3  13  19        -0.0632707558
      3   3  19  20        -0.0464537073
      3   3  20  19        -0.0464537073
      4   4  13  14        -0.0464537071
      4   4  14  13        -0.0464537071
      2   2  19  19        -0.0386074376
      2   2  13  13        -0.0386074375

    SCF energy       (wfn)                    = -681.474346635729262
    Reference energy (file100)                = -681.474346635730171

    Opposite-spin MP2 correlation energy      =   -0.178142629636131
    Same-spin MP2 correlation energy          =   -0.061315758541477
    Singles MP2 correlation energy            =   -0.000000000000000
    MP2 correlation energy                    =   -0.239458388177608
      * MP2 total energy                      = -681.713805023907753

    Opposite-spin CCSD correlation energy     =   -0.205723544203062
    Same-spin CCSD correlation energy         =   -0.051973742089125
    Singles CCSD correlation energy           =    0.000000000000000
    CCSD correlation energy                   =   -0.257697286292187
      * CCSD total energy                     = -681.732043922022399

            **************************
            *                        *
            *        CCTRIPLES       *
            *                        *
            **************************


    Wave function   =    CCSD_T
    Reference wfn   =      RHF

    Nuclear Rep. energy (wfn)                =   62.002453685044671
    SCF energy          (wfn)                = -681.474346635729262
    Reference energy    (file100)            = -681.474346635730171
    CCSD energy         (file100)            =   -0.257697286292187
    Total CCSD energy   (file100)            = -681.732043922022399

    Number of ijk index combinations:               35
    Memory available in words        :     31250000000
    ~Words needed per explicit thread:            5324
    Number of threads for explicit ijk threading:   48

    (T) energy                                =   -0.016816939057893
      * CCSD(T) total energy                  = -681.748860861080288


    Psi4 stopped on: Tuesday, 26 January 2021 06:33PM
    Psi4 wall time for execution: 0:00:09.57

*** Psi4 exiting successfully. Buy a developer a beer!
