
    -----------------------------------------------------------------------
          Psi4: An Open-Source Ab Initio Electronic Structure Package
                               Psi4 1.4a3.dev88 

                         Git: Rev {master} 262e345 


    D. G. A. Smith, L. A. Burns, A. C. Simmonett, R. M. Parrish,
    M. C. Schieber, R. Galvelis, P. Kraus, H. Kruse, R. Di Remigio,
    A. Alenaizan, A. M. James, S. Lehtola, J. P. Misiewicz, M. Scheurer,
    R. A. Shaw, J. B. Schriber, Y. Xie, Z. L. Glick, D. A. Sirianni,
    J. S. O'Brien, J. M. Waldrop, A. Kumar, E. G. Hohenstein,
    B. P. Pritchard, B. R. Brooks, H. F. Schaefer III, A. Yu. Sokolov,
    K. Patkowski, A. E. DePrince III, U. Bozkaya, R. A. King,
    F. A. Evangelista, J. M. Turney, T. D. Crawford, C. D. Sherrill,
    J. Chem. Phys. 152(18) 184108 (2020). https://doi.org/10.1063/5.0006002

                            Additional Code Authors
    E. T. Seidl, C. L. Janssen, E. F. Valeev, M. L. Leininger,
    J. F. Gonthier, R. M. Richard, H. R. McAlexander, M. Saitow, X. Wang,
    P. Verma, and M. H. Lechner

             Previous Authors, Complete List of Code Contributors,
                       and Citations for Specific Modules
    https://github.com/psi4/psi4/blob/master/codemeta.json
    https://github.com/psi4/psi4/graphs/contributors
    http://psicode.org/psi4manual/master/introduction.html#citing-psifour

    -----------------------------------------------------------------------


    Psi4 started on: Sunday, 24 January 2021 12:28AM

    Process ID: 70343
    Host:       n412-047.vsc4.prov
    PSIDATADIR: /home/fs71337/gallo4/psi4/eri-6/psi4/build/stage/share/psi4
    Memory:     500.0 MiB
    Threads:    48
    
  ==> Input File <==

--------------------------------------------------------------------------
# Any line starting with the # character is a comment line
memory 250000 mb
molecule molecule{
0 1
P          0.0000000000        0.0000000000        0.9601625849
P          0.0000000000        0.0000000000       -0.9601625849
}

set {
  reference rhf
  basis aug-cc-pV(6+d)Z
  scf_type OUT_OF_CORE
  freeze_core true
}

energy('ccsd(t)')
--------------------------------------------------------------------------

  Memory set to 232.831 GiB by Python driver.

Scratch directory: /binfl/lv71337/airmler/temp/

*** tstart() called on n412-047.vsc4.prov
*** at Sun Jan 24 00:28:58 2021

   => Loading Basis Set <=

    Name: AUG-CC-PV(6+D)Z
    Role: ORBITAL
    Keyword: BASIS
    atoms 1-2 entry P          line  1025 file /home/fs71337/gallo4/psi4/eri-6/psi4/build/stage/share/psi4/basis/aug-cc-pv_6pd_z.gbs 


         ---------------------------------------------------------
                                   SCF
               by Justin Turney, Rob Parrish, Andy Simmonett
                          and Daniel G. A. Smith
                              RHF Reference
                       48 Threads, 238418 MiB Core
         ---------------------------------------------------------

  ==> Geometry <==

    Molecular point group: d2h
    Full point group: D_inf_h

    Geometry (in Angstrom), charge = 0, multiplicity = 1:

       Center              X                  Y                   Z               Mass       
    ------------   -----------------  -----------------  -----------------  -----------------
         P            0.000000000000     0.000000000000     0.960162584900    30.973761998420
         P            0.000000000000     0.000000000000    -0.960162584900    30.973761998420

  Running in d2h symmetry.

  Rotational constants: A = ************  B =      0.29518  C =      0.29518 [cm^-1]
  Rotational constants: A = ************  B =   8849.19346  C =   8849.19346 [MHz]
  Nuclear repulsion =   62.002453685044671

  Charge       = 0
  Multiplicity = 1
  Electrons    = 30
  Nalpha       = 15
  Nbeta        = 15

  ==> Algorithm <==

  SCF Algorithm Type is OUT_OF_CORE.
  DIIS enabled.
  MOM disabled.
  Fractional occupation disabled.
  Guess Type is SAD.
  Energy threshold   = 1.00e-08
  Density threshold  = 1.00e-08
  Integral threshold = 1.00e-12

  ==> Primary Basis <==

  Basis Set: AUG-CC-PV(6+D)Z
    Blend: AUG-CC-PV(6+D)Z
    Number of shells: 76
    Number of basis function: 396
    Number of Cartesian functions: 608
    Spherical Harmonics?: true
    Max angular momentum: 6

  ==> Integral Setup <==

  ==> DiskJK: Disk-Based J/K Matrices <==

    J tasked:                  Yes
    K tasked:                  Yes
    wK tasked:                  No
    Memory [MiB]:           178813
    Schwarz Cutoff:          1E-12

  Minimum eigenvalue in the overlap matrix is 4.7053397593E-06.
  Reciprocal condition number of the overlap matrix is 6.6648690716E-07.
    Using symmetric orthogonalization.

  ==> Pre-Iterations <==

  SCF Guess: Superposition of Atomic Densities via on-the-fly atomic UHF (no occupation information).


 WARNING: Atomic UHF is not converging! Try casting from a smaller basis or call Rob at CCMST.
   -------------------------
    Irrep   Nso     Nmo    
   -------------------------
     Ag        70      70 
     B1g       32      32 
     B2g       48      48 
     B3g       48      48 
     Au        32      32 
     B1u       70      70 
     B2u       48      48 
     B3u       48      48 
   -------------------------
    Total     396     396
   -------------------------

  ==> Iterations <==

                        Total Energy        Delta E     RMS |[F,P]|

   @RHF iter SAD:   677.00871553251318    6.77009e+02   0.00000e+00 
    Occupation by irrep:
             Ag   B1g   B2g   B3g    Au   B1u   B2u   B3u 
    DOCC [     5,    0,    1,    1,    0,    5,    1,    2 ]

   @RHF iter   1:  -676.41926992439699   -1.35343e+03   4.17951e-02 DIIS
    Occupation by irrep:
             Ag   B1g   B2g   B3g    Au   B1u   B2u   B3u 
    DOCC [     5,    0,    1,    1,    0,    4,    2,    2 ]

   @RHF iter   2:  -676.40183388641549    1.74360e-02   1.58023e-02 DIIS
   @RHF iter   3:  -680.58737720280135   -4.18554e+00   8.94564e-03 DIIS
   @RHF iter   4:  -681.44845109359107   -8.61074e-01   1.75942e-03 DIIS
   @RHF iter   5:  -681.49656956359399   -4.81185e-02   2.76202e-04 DIIS
   @RHF iter   6:  -681.49770533739991   -1.13577e-03   7.94876e-05 DIIS
   @RHF iter   7:  -681.49779621382436   -9.08764e-05   1.51888e-05 DIIS
   @RHF iter   8:  -681.49780236117567   -6.14735e-06   3.09272e-06 DIIS
   @RHF iter   9:  -681.49780268022755   -3.19052e-07   5.27270e-07 DIIS
   @RHF iter  10:  -681.49780269087796   -1.06504e-08   8.46259e-08 DIIS
   @RHF iter  11:  -681.49780269118628   -3.08319e-10   1.20870e-08 DIIS
   @RHF iter  12:  -681.49780269119049   -4.20641e-12   1.89533e-09 DIIS
  Energy and wave function converged.


  ==> Post-Iterations <==

    Orbital Energies [Eh]
    ---------------------

    Doubly Occupied:                                                      

       1Ag   -79.978738     1B1u  -79.978732     2Ag    -7.520033  
       2B1u   -7.519405     3Ag    -5.412030     1B3u   -5.411256  
       1B2u   -5.411256     1B2g   -5.411033     1B3g   -5.411033  
       3B1u   -5.409963     4Ag    -0.894544     4B1u   -0.610744  
       5Ag    -0.408344     2B3u   -0.367610     2B2u   -0.367610  

    Virtual:                                                              

       2B2g    0.011543     2B3g    0.011543     5B1u    0.031691  
       6Ag     0.047886     3B3u    0.051909     3B2u    0.051909  
       3B2g    0.068933     3B3g    0.068933     7Ag     0.069039  
       6B1u    0.106336     8Ag     0.132283     1B1g    0.132283  
       9Ag     0.158014     7B1u    0.164506     4B3u    0.172163  
       4B2u    0.172163     8B1u    0.173591     1Au     0.173591  
       4B2g    0.184111     4B3g    0.184111     9B1u    0.227978  
       5B3u    0.229001     5B2u    0.229001    10Ag     0.272126  
      11Ag     0.308065    10B1u    0.323919     6B2u    0.324717  
       6B3u    0.324717     5B2g    0.333005     5B3g    0.333005  
      12Ag     0.338899     2B1g    0.338899     7B2u    0.344811  
       7B3u    0.344811    11B1u    0.368500     2Au     0.368500  
       6B2g    0.400530     6B3g    0.400530    13Ag     0.409345  
       3B1g    0.410086    14Ag     0.410086     7B3g    0.412701  
       7B2g    0.412701    12B1u    0.424222     8B3u    0.478623  
       8B2u    0.478623    13B1u    0.525184     3Au     0.556811  
      14B1u    0.556811    15Ag     0.560477    16Ag     0.674401  
       4B1g    0.674401     9B3u    0.685178     9B2u    0.685178  
       8B3g    0.704578     8B2g    0.704578    10B2u    0.758815  
      10B3u    0.758815    15B1u    0.759970     4Au     0.784976  
      16B1u    0.784976    17B1u    0.791036     5Au     0.791036  
      18B1u    0.805939     5B1g    0.834623    17Ag     0.834623  
      11B3u    0.835520    11B2u    0.835520     9B2g    0.844218  
       9B3g    0.844218    18Ag     0.856126    10B3g    0.866296  
      10B2g    0.866296    19Ag     0.878079    12B2u    0.894650  
      12B3u    0.894650     6B1g    0.896060    20Ag     0.896060  
      13B2u    0.931942    13B3u    0.931942    11B2g    0.936257  
      11B3g    0.936257    21Ag     0.981960     6Au     1.007098  
      19B1u    1.007098     7B1g    1.013803    22Ag     1.013803  
      23Ag     1.022563    20B1u    1.024148    12B3g    1.070177  
      12B2g    1.070177    13B3g    1.085713    13B2g    1.085713  
      21B1u    1.243658    14B3u    1.347461    14B2u    1.347461  
       7Au     1.381796    22B1u    1.381796    23B1u    1.440369  
      15B2u    1.563710    15B3u    1.563710     8B1g    1.605235  
      24Ag     1.605235    14B3g    1.616444    14B2g    1.616444  
      25Ag     1.695277    16B2u    1.696916    16B3u    1.696916  
       9B1g    1.720278    26Ag     1.720278    15B3g    1.720694  
      15B2g    1.720694    24B1u    1.763035     8Au     1.805998  
      25B1u    1.805998    10B1g    1.815625    27Ag     1.815625  
      17B2u    1.841139    17B3u    1.841139    18B2u    1.862130  
      18B3u    1.862130     9Au     1.869015    26B1u    1.869015  
      16B2g    1.870737    16B3g    1.870737    28Ag     1.873283  
      17B3g    1.885224    17B2g    1.885224    19B2u    1.886389  
      19B3u    1.886389    11B1g    1.886646    29Ag     1.886646  
      27B1u    1.900068    10Au     1.905515    28B1u    1.905515  
      30Ag     1.913157    11Au     1.978674    29B1u    1.978674  
      20B2u    2.043585    20B3u    2.043585    21B2u    2.052876  
      21B3u    2.052876    30B1u    2.055832    12B1g    2.072855  
      31Ag     2.072855    18B2g    2.107404    18B3g    2.107404  
      19B3g    2.171930    19B2g    2.171930    20B3g    2.261178  
      20B2g    2.261178    22B2u    2.299052    22B3u    2.299052  
      12Au     2.336614    31B1u    2.336614    32Ag     2.342966  
      33Ag     2.362757    21B2g    2.401295    21B3g    2.401295  
      13B1g    2.468139    34Ag     2.468139    32B1u    2.489019  
      22B3g    2.655475    22B2g    2.655475    33B1u    2.849106  
      23B2u    2.912979    23B3u    2.912979    13Au     3.039548  
      34B1u    3.039548    35Ag     3.179939    24B3u    3.267808  
      24B2u    3.267808    35B1u    3.345619    36Ag     3.352445  
      14B1g    3.352445    15B1g    3.403661    37Ag     3.403661  
      25B2u    3.435134    25B3u    3.435134    23B3g    3.474785  
      23B2g    3.474785    14Au     3.474836    36B1u    3.474836  
      38Ag     3.519392    16B1g    3.519392    17B1g    3.604950  
      39Ag     3.604950    26B2u    3.650660    26B3u    3.650660  
      15Au     3.668597    37B1u    3.668597    27B2u    3.676008  
      27B3u    3.676008    16Au     3.706169    38B1u    3.706169  
      18B1g    3.721366    40Ag     3.721366    41Ag     3.727200  
      24B3g    3.738415    24B2g    3.738415    25B3g    3.775266  
      25B2g    3.775266    26B3g    3.800962    26B2g    3.800962  
      28B2u    3.804681    28B3u    3.804681    29B2u    3.812502  
      29B3u    3.812502    39B1u    3.869583    27B3g    3.878126  
      27B2g    3.878126    42Ag     3.926055    19B1g    3.926055  
      43Ag     3.929244    17Au     3.934576    40B1u    3.934576  
      44Ag     4.007782    18Au     4.016126    41B1u    4.016126  
      30B2u    4.041537    30B3u    4.041537    42B1u    4.067472  
      31B3u    4.129424    31B2u    4.129424    28B3g    4.153192  
      28B2g    4.153192    43B1u    4.260551    19Au     4.260551  
      29B2g    4.267536    29B3g    4.267536    32B2u    4.292144  
      32B3u    4.292144    20B1g    4.331225    45Ag     4.331225  
      20Au     4.376443    44B1u    4.376443    46Ag     4.382341  
      21B1g    4.382341    45B1u    4.496158    30B3g    4.502202  
      30B2g    4.502202    31B3g    4.649358    31B2g    4.649358  
      47Ag     4.700102    33B2u    4.732883    33B3u    4.732883  
      46B1u    4.904443    48Ag     4.974728    22B1g    4.974728  
      49Ag     4.975446    21Au     5.077255    47B1u    5.077255  
      32B3g    5.079693    32B2g    5.079693    33B2g    5.096988  
      33B3g    5.096988    50Ag     5.164881    48B1u    5.476400  
      34B2u    5.656851    34B3u    5.656851    49B1u    5.964814  
      22Au     5.964814    34B3g    6.076791    34B2g    6.076791  
      50B1u    6.512391    35B2u    6.586070    35B3u    6.586070  
      51Ag     6.982994    35B3g    7.011619    35B2g    7.011619  
      23B1g    7.083136    52Ag     7.083136    53Ag     7.106994  
      24B1g    7.106994    36B2u    7.109363    36B3u    7.109363  
      23Au     7.147068    51B1u    7.147068    37B2u    7.159929  
      37B3u    7.159929    36B3g    7.318710    36B2g    7.318710  
      38B3u    7.395912    38B2u    7.395912    39B3u    7.450143  
      39B2u    7.450143    54Ag     7.452113    25B1g    7.452113  
      26B1g    7.477083    55Ag     7.477083    24Au     7.534018  
      52B1u    7.534018    53B1u    7.606924    27B1g    7.624845  
      56Ag     7.624845    54B1u    7.633931    25Au     7.633931  
      57Ag     7.636191    37B2g    7.663682    37B3g    7.663682  
      40B2u    7.680062    40B3u    7.680062    41B2u    7.858241  
      41B3u    7.858241    58Ag     7.878245    28B1g    7.878245  
      38B3g    7.921189    38B2g    7.921189    55B1u    7.923531  
      56B1u    7.959177    26Au     7.959177    39B3g    7.996487  
      39B2g    7.996487    57B1u    8.055029    27Au     8.055029  
      42B3u    8.056628    42B2u    8.056628    59Ag     8.164857  
      58B1u    8.224507    28Au     8.224507    40B2g    8.236242  
      40B3g    8.236242    41B3g    8.302778    41B2g    8.302778  
      60Ag     8.336408    29B1g    8.336408    59B1u    8.447678  
      43B2u    8.491331    43B3u    8.491331    42B2g    8.491551  
      42B3g    8.491551    61Ag     8.870772    60B1u    8.883325  
      61B1u    8.917727    29Au     8.917727    44B3u    9.027718  
      44B2u    9.027718    43B2g    9.170223    43B3g    9.170223  
      30B1g    9.182592    62Ag     9.182592    31B1g    9.336634  
      63Ag     9.336634    44B3g    9.420642    44B2g    9.420642  
      62B1u    9.608063    30Au     9.614244    63B1u    9.614244  
      64Ag     9.795459    45B2u    9.810512    45B3u    9.810512  
      64B1u   10.173306    31Au    10.173306    45B3g   10.185295  
      45B2g   10.185295    65Ag    10.380376    46B2u   10.399727  
      46B3u   10.399727    46B3g   11.109066    46B2g   11.109066  
      65B1u   11.258550    66Ag    11.889392    66B1u   13.725274  
      32B1g   25.894305    67Ag    25.894305    47B3u   26.073903  
      47B2u   26.073903    32Au    26.259524    67B1u   26.259524  
      68Ag    26.340054    68B1u   26.535026    48B3u   26.556413  
      48B2u   26.556413    47B3g   26.570843    47B2g   26.570843  
      48B2g   27.475258    48B3g   27.475258    69B1u   29.053380  
      69Ag    30.685671    70Ag   211.600229    70B1u  215.539092  

    Final Occupation by Irrep:
             Ag   B1g   B2g   B3g    Au   B1u   B2u   B3u 
    DOCC [     5,    0,    1,    1,    0,    4,    2,    2 ]

  @RHF Final Energy:  -681.49780269119049

   => Energetics <=

    Nuclear Repulsion Energy =             62.0024536850446708
    One-Electron Energy =               -1066.7758548828714993
    Two-Electron Energy =                 323.2755985066363564
    Total Energy =                       -681.4978026911904863

Computation Completed


Properties will be evaluated at   0.000000,   0.000000,   0.000000 [a0]

Properties computed using the SCF density matrix

  Nuclear Dipole Moment: [e a0]
     X:     0.0000      Y:     0.0000      Z:     0.0000

  Electronic Dipole Moment: [e a0]
     X:     0.0000      Y:     0.0000      Z:     0.0000

  Dipole Moment: [e a0]
     X:     0.0000      Y:     0.0000      Z:     0.0000     Total:     0.0000

  Dipole Moment: [D]
     X:     0.0000      Y:     0.0000      Z:     0.0000     Total:     0.0000


*** tstop() called on n412-047.vsc4.prov at Sun Jan 24 00:41:36 2021
Module time:
	user time   =     664.94 seconds =      11.08 minutes
	system time =      40.46 seconds =       0.67 minutes
	total time  =        758 seconds =      12.63 minutes
Total time:
	user time   =     664.94 seconds =      11.08 minutes
	system time =      40.46 seconds =       0.67 minutes
	total time  =        758 seconds =      12.63 minutes

*** tstart() called on n412-047.vsc4.prov
*** at Sun Jan 24 00:41:36 2021


	Wfn Parameters:
	--------------------
	Wavefunction         = CCSD_T
	Number of irreps     = 8
	Number of MOs        = 396
	Number of active MOs = 386
	AO-Basis             = NONE
	Semicanonical        = false
	Reference            = RHF
	Print Level          = 1

	IRREP	# MOs	# FZDC	# DOCC	# SOCC	# VIRT	# FZVR
	-----	-----	------	------	------	------	------
	 Ag	   70	    3	    2	    0	    65	    0
	 B1g	   32	    0	    0	    0	    32	    0
	 B2g	   48	    1	    0	    0	    47	    0
	 B3g	   48	    1	    0	    0	    47	    0
	 Au	   32	    0	    0	    0	    32	    0
	 B1u	   70	    3	    1	    0	    66	    0
	 B2u	   48	    1	    1	    0	    46	    0
	 B3u	   48	    1	    1	    0	    46	    0
	Transforming integrals...
	IWL integrals will be deleted.
	(OO|OO)...
	Presorting SO-basis two-electron integrals.
	Sorting File: SO Ints (nn|nn) nbuckets = 1
	Constructing frozen core operators
	Starting first half-transformation.
	Sorting half-transformed integrals.
	First half integral transformation complete.
	Starting second half-transformation.
	Two-electron integral transformation complete.
	(OO|OV)...
	Starting second half-transformation.
	Two-electron integral transformation complete.
	(OO|VV)...
	Starting second half-transformation.
	Two-electron integral transformation complete.
	(OV|OO)...
	Starting first half-transformation.
	Sorting half-transformed integrals.
	First half integral transformation complete.
	Starting second half-transformation.
	Two-electron integral transformation complete.
	(OV|OV)...
	Starting second half-transformation.
	Two-electron integral transformation complete.
	(OV|VV)...
	Starting second half-transformation.
	Two-electron integral transformation complete.
	(VV|OO)...
	Starting first half-transformation.
	Sorting half-transformed integrals.
	First half integral transformation complete.
	Starting second half-transformation.
	Two-electron integral transformation complete.
	(VV|OV)...
	Starting second half-transformation.
	Two-electron integral transformation complete.
	(VV|VV)...
	Starting second half-transformation.
	Two-electron integral transformation complete.
	Frozen core energy     =   -723.83862542787745

	Size of irrep 0 of <ab|cd> integrals:    371.680 (MW) /   2973.439 (MB)
	Size of irrep 1 of <ab|cd> integrals:    290.157 (MW) /   2321.257 (MB)
	Size of irrep 2 of <ab|cd> integrals:    328.842 (MW) /   2630.736 (MB)
	Size of irrep 3 of <ab|cd> integrals:    328.842 (MW) /   2630.736 (MB)
	Size of irrep 4 of <ab|cd> integrals:    290.089 (MW) /   2320.712 (MB)
	Size of irrep 5 of <ab|cd> integrals:    371.564 (MW) /   2972.513 (MB)
	Size of irrep 6 of <ab|cd> integrals:    328.914 (MW) /   2631.316 (MB)
	Size of irrep 7 of <ab|cd> integrals:    328.914 (MW) /   2631.316 (MB)
	Total:                                  2639.003 (MW) /  21112.025 (MB)

	Size of irrep 0 of <ia|bc> integrals:      5.552 (MW) /     44.419 (MB)
	Size of irrep 1 of <ia|bc> integrals:      3.202 (MW) /     25.619 (MB)
	Size of irrep 2 of <ia|bc> integrals:      4.316 (MW) /     34.527 (MB)
	Size of irrep 3 of <ia|bc> integrals:      4.316 (MW) /     34.527 (MB)
	Size of irrep 4 of <ia|bc> integrals:      3.236 (MW) /     25.889 (MB)
	Size of irrep 5 of <ia|bc> integrals:      5.609 (MW) /     44.875 (MB)
	Size of irrep 6 of <ia|bc> integrals:      4.280 (MW) /     34.241 (MB)
	Size of irrep 7 of <ia|bc> integrals:      4.280 (MW) /     34.241 (MB)
	Total:                                    34.792 (MW) /    278.337 (MB)

	Size of irrep 0 of tijab amplitudes:       0.135 (MW) /      1.080 (MB)
	Size of irrep 1 of tijab amplitudes:       0.034 (MW) /      0.273 (MB)
	Size of irrep 2 of tijab amplitudes:       0.036 (MW) /      0.290 (MB)
	Size of irrep 3 of tijab amplitudes:       0.036 (MW) /      0.290 (MB)
	Size of irrep 4 of tijab amplitudes:       0.000 (MW) /      0.000 (MB)
	Size of irrep 5 of tijab amplitudes:       0.077 (MW) /      0.617 (MB)
	Size of irrep 6 of tijab amplitudes:       0.073 (MW) /      0.580 (MB)
	Size of irrep 7 of tijab amplitudes:       0.073 (MW) /      0.580 (MB)
	Total:                                     0.464 (MW) /      3.710 (MB)

	Nuclear Rep. energy          =     62.00245368504467
	SCF energy                   =   -681.49780269119049
	One-electron energy          =    -34.02555824827948
	Two-electron energy          =     14.36392729991983
	Reference energy             =   -681.49780269119242

*** tstop() called on n412-047.vsc4.prov at Sun Jan 24 00:49:35 2021
Module time:
	user time   =     141.40 seconds =       2.36 minutes
	system time =     100.98 seconds =       1.68 minutes
	total time  =        479 seconds =       7.98 minutes
Total time:
	user time   =     806.34 seconds =      13.44 minutes
	system time =     141.44 seconds =       2.36 minutes
	total time  =       1237 seconds =      20.62 minutes
            **************************
            *                        *
            *        CCENERGY        *
            *                        *
            **************************

    Nuclear Rep. energy (wfn)     =   62.002453685044671
    SCF energy          (wfn)     = -681.497802691190486
    Reference energy    (file100) = -681.497802691192419

    Input parameters:
    -----------------
    Wave function   =     CCSD_T
    Reference wfn   =     RHF
    Brueckner       =     No
    Memory (Mbytes) =     250000.0
    Maxiter         =     50
    R_Convergence   =     1.0e-07
    E_Convergence   =     1.0e-06
    Restart         =     Yes
    DIIS            =     Yes
    AO Basis        =     NONE
    ABCD            =     NEW
    Cache Level     =     2
    Cache Type      =     LOW
    Print Level     =     1
    Num. of threads =     48
    # Amps to Print =     10
    Print MP2 Amps? =     No
    Analyze T2 Amps =     No
    Print Pair Ener =     No
    Local CC        =     No
    SCS-MP2         =     False
    SCSN-MP2        =     False
    SCS-CCSD        =     False

MP2 correlation energy -0.3165797668992495
                Solving CC Amplitude Equations
                ------------------------------
  Iter             Energy              RMS        T1Diag      D1Diag    New D1Diag    D2Diag
  ----     ---------------------    ---------   ----------  ----------  ----------   --------
     0        -0.316579766899250    0.000e+00    0.000000    0.000000    0.000000    0.197904
     1        -0.306143537993708    7.800e-02    0.014611    0.027650    0.027650    0.189526
     2        -0.318280206032476    3.511e-02    0.014515    0.027374    0.027374    0.203946
     3        -0.321819870723924    1.392e-02    0.017391    0.032940    0.032940    0.211830
     4        -0.321796501106054    3.667e-03    0.017644    0.033457    0.033457    0.213649
     5        -0.321914191344567    1.281e-03    0.017750    0.033666    0.033666    0.214460
     6        -0.321928664925425    3.341e-04    0.017751    0.033677    0.033677    0.214587
     7        -0.321928773146085    1.058e-04    0.017745    0.033665    0.033665    0.214619
     8        -0.321931595361390    3.194e-05    0.017743    0.033665    0.033665    0.214632
     9        -0.321931914407825    9.027e-06    0.017742    0.033664    0.033664    0.214633
    10        -0.321931608976879    2.982e-06    0.017742    0.033664    0.033664    0.214633
    11        -0.321931710645136    9.729e-07    0.017742    0.033663    0.033663    0.214633
    12        -0.321931684950094    2.577e-07    0.017742    0.033663    0.033663    0.214633
    13        -0.321931697223303    8.255e-08    0.017742    0.033663    0.033663    0.214633

    Iterations converged.


    Largest TIA Amplitudes:
              3 293         0.0193602239
              4 339         0.0193602225
              2 227         0.0183856581
              3 291         0.0149608171
              4 337         0.0149608149
              2 224        -0.0116511600
              3 297        -0.0115392611
              4 343        -0.0115392611
              3 294         0.0110495315
              4 340         0.0110495311

    Largest TIjAb Amplitudes:
      4   4  97  97        -0.0994998402
      3   3 144 144        -0.0994998352
      3   4 144  97        -0.0574930683
      4   3  97 144        -0.0574930683
      2   2  97  97        -0.0360889713
      2   2 144 144        -0.0360889691
      1   1  97  97        -0.0350004122
      1   1 144 144        -0.0350004078
      3   3 144 145         0.0342641993
      3   3 145 144         0.0342641993

    SCF energy       (wfn)                    = -681.497802691190486
    Reference energy (file100)                = -681.497802691192419

    Opposite-spin MP2 correlation energy      =   -0.244605531398435
    Same-spin MP2 correlation energy          =   -0.071974235500815
    Singles MP2 correlation energy            =   -0.000000000000000
    MP2 correlation energy                    =   -0.316579766899250
      * MP2 total energy                      = -681.814382458091700

    Opposite-spin CCSD correlation energy     =   -0.260372830479057
    Same-spin CCSD correlation energy         =   -0.061558866744340
    Singles CCSD correlation energy           =    0.000000000000000
    CCSD correlation energy                   =   -0.321931697223303
      * CCSD total energy                     = -681.819734388415668

            **************************
            *                        *
            *        CCTRIPLES       *
            *                        *
            **************************


    Wave function   =    CCSD_T
    Reference wfn   =      RHF

    Nuclear Rep. energy (wfn)                =   62.002453685044671
    SCF energy          (wfn)                = -681.497802691190486
    Reference energy    (file100)            = -681.497802691192419
    CCSD energy         (file100)            =   -0.321931697223303
    Total CCSD energy   (file100)            = -681.819734388415668

    Number of ijk index combinations:               35
    Memory available in words        :     31250000000
    ~Words needed per explicit thread:         1149984
    Number of threads for explicit ijk threading:   48

    (T) energy                                =   -0.025466126089430
      * CCSD(T) total energy                  = -681.845200514505109


    Psi4 stopped on: Sunday, 24 January 2021 12:54AM
    Psi4 wall time for execution: 0:25:10.44

*** Psi4 exiting successfully. Buy a developer a beer!
