
    -----------------------------------------------------------------------
          Psi4: An Open-Source Ab Initio Electronic Structure Package
                               Psi4 1.4a3.dev88 

                         Git: Rev {master} 262e345 


    D. G. A. Smith, L. A. Burns, A. C. Simmonett, R. M. Parrish,
    M. C. Schieber, R. Galvelis, P. Kraus, H. Kruse, R. Di Remigio,
    A. Alenaizan, A. M. James, S. Lehtola, J. P. Misiewicz, M. Scheurer,
    R. A. Shaw, J. B. Schriber, Y. Xie, Z. L. Glick, D. A. Sirianni,
    J. S. O'Brien, J. M. Waldrop, A. Kumar, E. G. Hohenstein,
    B. P. Pritchard, B. R. Brooks, H. F. Schaefer III, A. Yu. Sokolov,
    K. Patkowski, A. E. DePrince III, U. Bozkaya, R. A. King,
    F. A. Evangelista, J. M. Turney, T. D. Crawford, C. D. Sherrill,
    J. Chem. Phys. 152(18) 184108 (2020). https://doi.org/10.1063/5.0006002

                            Additional Code Authors
    E. T. Seidl, C. L. Janssen, E. F. Valeev, M. L. Leininger,
    J. F. Gonthier, R. M. Richard, H. R. McAlexander, M. Saitow, X. Wang,
    P. Verma, and M. H. Lechner

             Previous Authors, Complete List of Code Contributors,
                       and Citations for Specific Modules
    https://github.com/psi4/psi4/blob/master/codemeta.json
    https://github.com/psi4/psi4/graphs/contributors
    http://psicode.org/psi4manual/master/introduction.html#citing-psifour

    -----------------------------------------------------------------------


    Psi4 started on: Thursday, 21 January 2021 02:10PM

    Process ID: 233804
    Host:       n411-011.vsc4.prov
    PSIDATADIR: /home/fs71337/gallo4/psi4/eri-6/psi4/build/stage/share/psi4
    Memory:     500.0 MiB
    Threads:    48
    
  ==> Input File <==

--------------------------------------------------------------------------
# Any line starting with the # character is a comment line
memory 250000 mb
molecule molecule{
0 2
Cl          0.0000000000        0.0000000000        0.0000000000
}

set {
  reference uhf
  basis aug-cc-pV(6+d)Z
  scf_type OUT_OF_CORE
  freeze_core true
}

energy('ccsd(t)')
--------------------------------------------------------------------------

  Memory set to 232.831 GiB by Python driver.

Scratch directory: /binfl/lv71337/airmler/temp/

*** tstart() called on n411-011.vsc4.prov
*** at Thu Jan 21 14:10:07 2021

   => Loading Basis Set <=

    Name: AUG-CC-PV(6+D)Z
    Role: ORBITAL
    Keyword: BASIS
    atoms 1 entry CL         line  1303 file /home/fs71337/gallo4/psi4/eri-6/psi4/build/stage/share/psi4/basis/aug-cc-pv_6pd_z.gbs 


         ---------------------------------------------------------
                                   SCF
               by Justin Turney, Rob Parrish, Andy Simmonett
                          and Daniel G. A. Smith
                              UHF Reference
                       48 Threads, 238418 MiB Core
         ---------------------------------------------------------

  ==> Geometry <==

    Molecular point group: d2h
    Geometry (in Angstrom), charge = 0, multiplicity = 2:

       Center              X                  Y                   Z               Mass       
    ------------   -----------------  -----------------  -----------------  -----------------
         CL           0.000000000000     0.000000000000     0.000000000000    34.968852682000

  Running in d2h symmetry.

  Rotational constants: A = ************  B = ************  C = ************ [cm^-1]
  Rotational constants: A = ************  B = ************  C = ************ [MHz]
  Nuclear repulsion =    0.000000000000000

  Charge       = 0
  Multiplicity = 2
  Electrons    = 17
  Nalpha       = 9
  Nbeta        = 8

  ==> Algorithm <==

  SCF Algorithm Type is OUT_OF_CORE.
  DIIS enabled.
  MOM disabled.
  Fractional occupation disabled.
  Guess Type is CORE.
  Energy threshold   = 1.00e-08
  Density threshold  = 1.00e-08
  Integral threshold = 1.00e-12

  ==> Primary Basis <==

  Basis Set: AUG-CC-PV(6+D)Z
    Blend: AUG-CC-PV(6+D)Z
    Number of shells: 38
    Number of basis function: 198
    Number of Cartesian functions: 304
    Spherical Harmonics?: true
    Max angular momentum: 6

  ==> Integral Setup <==

  ==> DiskJK: Disk-Based J/K Matrices <==

    J tasked:                  Yes
    K tasked:                  Yes
    wK tasked:                  No
    Memory [MiB]:           178813
    Schwarz Cutoff:          1E-12

  Minimum eigenvalue in the overlap matrix is 3.7601642238E-05.
  Reciprocal condition number of the overlap matrix is 7.8107936838E-06.
    Using symmetric orthogonalization.

  ==> Pre-Iterations <==

  SCF Guess: Core (One-Electron) Hamiltonian.

   -------------------------------------------------------
    Irrep   Nso     Nmo     Nalpha   Nbeta   Ndocc  Nsocc
   -------------------------------------------------------
     Ag        43      43       3       3       3       0
     B1g       21      21       1       0       0       1
     B2g       21      21       1       1       1       0
     B3g       21      21       1       1       1       0
     Au        11      11       0       0       0       0
     B1u       27      27       1       1       1       0
     B2u       27      27       1       1       1       0
     B3u       27      27       1       1       1       0
   -------------------------------------------------------
    Total     198     198       9       8       8       1
   -------------------------------------------------------

  ==> Iterations <==

                        Total Energy        Delta E     RMS |[F,P]|

    Occupation by irrep:
             Ag   B1g   B2g   B3g    Au   B1u   B2u   B3u 
    DOCC [     3,    0,    0,    0,    0,    1,    2,    2 ]
    SOCC [     0,    0,    0,    0,    0,    1,    0,    0 ]

   @UHF iter   1:  -390.41736739723325   -3.90417e+02   4.07798e-01 DIIS
   @UHF iter   2:  -435.75348507097976   -4.53361e+01   1.74991e-01 DIIS
   @UHF iter   3:  -458.36880711389040   -2.26153e+01   3.31225e-02 DIIS
   @UHF iter   4:  -459.48397172008924   -1.11516e+00   3.64209e-03 DIIS
   @UHF iter   5:  -459.48916644065611   -5.19472e-03   6.54081e-04 DIIS
   @UHF iter   6:  -459.48987483501486   -7.08394e-04   1.00632e-04 DIIS
   @UHF iter   7:  -459.48990980498496   -3.49700e-05   3.19954e-05 DIIS
   @UHF iter   8:  -459.48991612994439   -6.32496e-06   5.86463e-06 DIIS
   @UHF iter   9:  -459.48991642260506   -2.92661e-07   1.45260e-06 DIIS
   @UHF iter  10:  -459.48991644090330   -1.82982e-08   2.28152e-07 DIIS
   @UHF iter  11:  -459.48991644120093   -2.97632e-10   3.30859e-08 DIIS
   @UHF iter  12:  -459.48991644120605   -5.11591e-12   5.03970e-09 DIIS
  Energy and wave function converged.


  ==> Post-Iterations <==

   @Spin Contamination Metric:   1.081755600E-02
   @S^2 Expected:                7.500000000E-01
   @S^2 Observed:                7.608175560E-01
   @S   Expected:                5.000000000E-01
   @S   Observed:                5.000000000E-01

    Orbital Energies [Eh]
    ---------------------

    Alpha Occupied:                                                       

       1Ag  -104.889544     2Ag   -10.612204     1B1u   -8.098049  
       1B3u   -8.073826     1B2u   -8.073826     3Ag    -1.136090  
       2B1u   -0.581758     2B2u   -0.502517     2B3u   -0.502517  

    Alpha Virtual:                                                        

       3B1u    0.070575     3B3u    0.075172     3B2u    0.075172  
       4Ag     0.081143     5Ag     0.210169     1B3g    0.213050  
       1B2g    0.213050     6Ag     0.222868     1B1g    0.222868  
       4B1u    0.304245     4B3u    0.320358     4B2u    0.320358  
       7Ag     0.459359     8Ag     0.517093     2B3g    0.526097  
       2B2g    0.526097     5B1u    0.543875     5B2u    0.545392  
       5B3u    0.545392     6B1u    0.550006     1Au     0.550006  
       6B2u    0.558035     6B3u    0.558035     9Ag     0.558349  
       2B1g    0.558349     7B1u    0.984249    10Ag     1.016737  
       3B2g    1.017857     3B3g    1.017857     7B2u    1.019287  
       7B3u    1.019287    11Ag     1.021220     3B1g    1.021220  
       4B3g    1.026850     4B2g    1.026850     4B1g    1.034893  
      12Ag     1.034893    13Ag     1.247363     5B2g    1.257434  
       5B3g    1.257434    14Ag     1.291848     5B1g    1.291848  
       8B1u    1.374220     8B3u    1.378160     8B2u    1.378160  
       9B1u    1.390163     2Au     1.390163     9B2u    1.411098  
       9B3u    1.411098    15Ag     1.638875    10B1u    2.401259  
      10B2u    2.402548    10B3u    2.402548    11B1u    2.406431  
       3Au     2.406431    11B3u    2.412966    11B2u    2.412966  
      12B1u    2.422256     4Au     2.422256    16Ag     2.430543  
       6B2g    2.433107     6B3g    2.433107    12B3u    2.434456  
      12B2u    2.434456    17Ag     2.440810     6B1g    2.440810  
       7B3g    2.453701     7B2g    2.453701    18Ag     2.471929  
       7B1g    2.471929    13B1u    2.837634    13B2u    2.886438  
      13B3u    2.886438    14B1u    2.900018    14B3u    2.908207  
      14B2u    2.908207    15B1u    2.922685     5Au     2.922685  
      19Ag     2.923666     8B2g    2.934185     8B3g    2.934185  
      15B3u    2.954266    15B2u    2.954266    20Ag     2.968826  
       8B1g    2.968826    21Ag     4.932902    22Ag     4.983655  
       9B2g    4.987500     9B3g    4.987500    23Ag     4.999075  
       9B1g    4.999075    10B3g    5.018484    10B2g    5.018484  
      10B1g    5.045912    24Ag     5.045912    25Ag     5.169785  
      11B2g    5.171163    11B3g    5.171163    26Ag     5.175310  
      11B1g    5.175310    12B3g    5.182267    12B2g    5.182267  
      27Ag     5.192113    12B1g    5.192113    13B2g    5.204982  
      13B3g    5.204982    28Ag     5.221152    13B1g    5.221152  
      16B1u    5.341801    16B3u    5.344071    16B2u    5.344071  
      17B1u    5.350910     6Au     5.350910    17B3u    5.362398  
      17B2u    5.362398    18B1u    5.378683     7Au     5.378683  
      18B3u    5.399983    18B2u    5.399983    19B1u    5.986889  
      19B3u    5.993372    19B2u    5.993372    20B1u    6.013022  
       8Au     6.013022    20B3u    6.046553    20B2u    6.046553  
      29Ag     6.332077    14B2g    6.343044    14B3g    6.343044  
      14B1g    6.379063    30Ag     6.379063    21B1u    8.020016  
      21B2u    8.067301    21B3u    8.067301    31Ag     9.852517  
      15B2g    9.856425    15B3g    9.856425    32Ag     9.868191  
      15B1g    9.868191    16B3g    9.887950    16B2g    9.887950  
      16B1g    9.915930    33Ag     9.915930    34Ag    10.941398  
      17B2g   10.943300    17B3g   10.943300    35Ag    10.949019  
      17B1g   10.949019    18B3g   10.958604    18B2g   10.958604  
      36Ag    10.972137    18B1g   10.972137    19B3g   10.989734  
      19B2g   10.989734    37Ag    11.011557    19B1g   11.011557  
      22B1u   11.200964    22B3u   11.203673    22B2u   11.203673  
      23B1u   11.211828     9Au    11.211828    23B2u   11.225502  
      23B3u   11.225502    24B1u   11.244824    10Au    11.244824  
      24B2u   11.269980    24B3u   11.269980    25B1u   12.361214  
      25B2u   12.366444    25B3u   12.366444    11Au    12.382288  
      26B1u   12.382288    26B3u   12.409252    26B2u   12.409252  
      38Ag    13.354719    20B3g   13.364954    20B2g   13.364954  
      20B1g   13.395754    39Ag    13.395754    40Ag    14.855187  
      27B1u   34.966062    27B2u   34.992470    27B3u   34.992470  
      41Ag    39.114800    21B3g   39.120845    21B2g   39.120845  
      42Ag    39.139236    21B1g   39.139236    43Ag   284.639676  

    Beta Occupied:                                                        

       1Ag  -104.877620     2Ag   -10.601023     1B2u   -8.067717  
       1B3u   -8.067717     1B1u   -8.047733     3Ag    -1.014406  
       2B2u   -0.480927     2B3u   -0.480927  

    Beta Virtual:                                                         

       2B1u   -0.040769     3B3u    0.075529     3B2u    0.075529  
       3B1u    0.081618     4Ag     0.084327     1B1g    0.222529  
       5Ag     0.222529     1B3g    0.222701     1B2g    0.222701  
       6Ag     0.222960     4B2u    0.322644     4B3u    0.322644  
       4B1u    0.340713     7Ag     0.471460     5B1u    0.548303  
       5B3u    0.549301     5B2u    0.549301     1Au     0.552371  
       6B1u    0.552371     6B3u    0.557587     6B2u    0.557587  
       2B1g    0.560352     8Ag     0.560352     2B2g    0.581770  
       2B3g    0.581770     9Ag     0.590316    10Ag     1.020038  
       3B2g    1.020937     3B3g    1.020937     3B1g    1.023643  
      11Ag     1.023643     7B2u    1.024916     7B3u    1.024916  
       4B3g    1.028157     4B2g    1.028157    12Ag     1.034439  
       4B1g    1.034439     7B1u    1.042285     5B1g    1.295092  
      13Ag     1.295092     5B3g    1.300522     5B2g    1.300522  
      14Ag     1.302854     8B1u    1.399307     8B3u    1.400588  
       8B2u    1.400588     2Au     1.404444     9B1u    1.404444  
       9B3u    1.410772     9B2u    1.410772    15Ag     1.659156  
      10B1u    2.408012    10B3u    2.409027    10B2u    2.409027  
       3Au     2.412078    11B1u    2.412078    11B3u    2.417188  
      11B2u    2.417188    12B1u    2.424392     4Au     2.424392  
      12B3u    2.433739    12B2u    2.433739    16Ag     2.446773  
       6B2g    2.448316     6B3g    2.448316     6B1g    2.452938  
      17Ag     2.452938     7B3g    2.460606     7B2g    2.460606  
       7B1g    2.471269    18Ag     2.471269    13B1u    2.896747  
      13B2u    2.896843    13B3u    2.896843    14B1u    2.939986  
      14B2u    2.941390    14B3u    2.941390     5Au     2.946071  
      15B1u    2.946071    19Ag     2.949740     8B3g    2.955022  
       8B2g    2.955022    15B3u    2.955207    15B2u    2.955207  
       8B1g    2.970816    20Ag     2.970816    21Ag     4.951557  
      22Ag     5.011746     9B2g    5.013879     9B3g    5.013879  
       9B1g    5.020282    23Ag     5.020282    10B3g    5.030964  
      10B2g    5.030964    10B1g    5.045932    24Ag     5.045932  
      25Ag     5.180239    11B2g    5.181326    11B3g    5.181326  
      11B1g    5.184594    26Ag     5.184594    12B2g    5.190069  
      12B3g    5.190069    27Ag     5.197791    12B1g    5.197791  
      13B3g    5.207823    13B2g    5.207823    28Ag     5.220259  
      13B1g    5.220259    16B1u    5.359632    16B3u    5.361198  
      16B2u    5.361198     6Au     5.365906    17B1u    5.365906  
      17B2u    5.373785    17B3u    5.373785    18B1u    5.384880  
       7Au     5.384880    18B3u    5.399256    18B2u    5.399256  
      19B1u    6.017377    19B2u    6.020712    19B3u    6.020712  
       8Au     6.030770    20B1u    6.030770    20B3u    6.047681  
      20B2u    6.047681    29Ag     6.352271    14B3g    6.359224  
      14B2g    6.359224    14B1g    6.381055    30Ag     6.381055  
      21B1u    8.062561    21B2u    8.073053    21B3u    8.073053  
      31Ag     9.875234    15B3g    9.877759    15B2g    9.877759  
      15B1g    9.885356    32Ag     9.885356    16B3g    9.898090  
      16B2g    9.898090    16B1g    9.916072    33Ag     9.916072  
      34Ag    10.958473    17B2g   10.959899    17B3g   10.959899  
      17B1g   10.964189    35Ag    10.964189    18B3g   10.971369  
      18B2g   10.971369    36Ag    10.981490    18B1g   10.981490  
      19B3g   10.994617    19B2g   10.994617    37Ag    11.010842  
      19B1g   11.010842    22B1u   11.221915    22B3u   11.223795  
      22B2u   11.223795     9Au    11.229449    23B1u   11.229449  
      23B2u   11.238918    23B3u   11.238918    24B1u   11.252271  
      10Au    11.252271    24B2u   11.269606    24B3u   11.269606  
      25B1u   12.373217    25B2u   12.377199    25B3u   12.377199  
      11Au    12.389236    26B1u   12.389236    26B3u   12.409610  
      26B2u   12.409610    38Ag    13.373183    20B3g   13.379392  
      20B2g   13.379392    39Ag    13.397911    20B1g   13.397911  
      40Ag    14.866830    27B2u   34.996743    27B3u   34.996743  
      27B1u   34.996804    41Ag    39.135897    21B3g   39.137465  
      21B2g   39.137465    42Ag    39.142341    21B1g   39.142341  
      43Ag   284.644113  

    Final Occupation by Irrep:
             Ag   B1g   B2g   B3g    Au   B1u   B2u   B3u 
    DOCC [     3,    0,    0,    0,    0,    1,    2,    2 ]
    SOCC [     0,    0,    0,    0,    0,    1,    0,    0 ]

  @UHF Final Energy:  -459.48991644120605

   => Energetics <=

    Nuclear Repulsion Energy =              0.0000000000000000
    One-Electron Energy =                -634.8714332792146706
    Two-Electron Energy =                 175.3815168380086220
    Total Energy =                       -459.4899164412060486

  UHF NO Occupations:
  HONO-2 :    2B3u 1.9996181
  HONO-1 :    3 Ag 1.9953491
  HONO-0 :    2B1u 1.0000000
  LUNO+0 :    4 Ag 0.0046509
  LUNO+1 :    3B3u 0.0003819
  LUNO+2 :    3B2u 0.0003819
  LUNO+3 :    3B1u 0.0000046


Computation Completed


Properties will be evaluated at   0.000000,   0.000000,   0.000000 [a0]

Properties computed using the SCF density matrix

  Nuclear Dipole Moment: [e a0]
     X:     0.0000      Y:     0.0000      Z:     0.0000

  Electronic Dipole Moment: [e a0]
     X:     0.0000      Y:     0.0000      Z:     0.0000

  Dipole Moment: [e a0]
     X:     0.0000      Y:     0.0000      Z:     0.0000     Total:     0.0000

  Dipole Moment: [D]
     X:     0.0000      Y:     0.0000      Z:     0.0000     Total:     0.0000


*** tstop() called on n411-011.vsc4.prov at Thu Jan 21 14:12:11 2021
Module time:
	user time   =     131.21 seconds =       2.19 minutes
	system time =       5.40 seconds =       0.09 minutes
	total time  =        124 seconds =       2.07 minutes
Total time:
	user time   =     131.21 seconds =       2.19 minutes
	system time =       5.40 seconds =       0.09 minutes
	total time  =        124 seconds =       2.07 minutes

*** tstart() called on n411-011.vsc4.prov
*** at Thu Jan 21 14:12:11 2021


	Wfn Parameters:
	--------------------
	Wavefunction         = CCSD_T
	Number of irreps     = 8
	Number of MOs        = 198
	Number of active MOs = 193
	AO-Basis             = NONE
	Semicanonical        = false
	Reference            = UHF
	Print Level          = 1

	IRREP	# MOs	# FZDC	# DOCC	# SOCC	# VIRT	# FZVR
	-----	-----	------	------	------	------	------
	 Ag	   43	    2	    1	    0	    40	    0
	 B1g	   21	    0	    0	    0	    21	    0
	 B2g	   21	    0	    0	    0	    21	    0
	 B3g	   21	    0	    0	    0	    21	    0
	 Au	   11	    0	    0	    0	    11	    0
	 B1u	   27	    1	    0	    1	    25	    0
	 B2u	   27	    1	    1	    0	    25	    0
	 B3u	   27	    1	    1	    0	    25	    0
	Transforming integrals...
	IWL integrals will be deleted.
	(OO|OO)...
	Presorting SO-basis two-electron integrals.
	Sorting File: SO Ints (nn|nn) nbuckets = 1
	Constructing frozen core operators
	Starting AA/AB first half-transformation.
	Sorting AA/AB half-transformed integrals.
	Starting BB first half-transformation.
	Sorting BB half-transformed integrals.
	First half integral transformation complete.
	Starting AA second half-transformation.
	Starting AB second half-transformation.
	Starting BB second half-transformation.
	Two-electron integral transformation complete.
	(OO|OV)...
	Starting AA second half-transformation.
	Starting AB second half-transformation.
	Starting BB second half-transformation.
	Two-electron integral transformation complete.
	(OO|VV)...
	Starting AA second half-transformation.
	Starting AB second half-transformation.
	Starting BB second half-transformation.
	Two-electron integral transformation complete.
	(OV|OO)...
	Starting AA/AB first half-transformation.
	Sorting AA/AB half-transformed integrals.
	Starting BB first half-transformation.
	Sorting BB half-transformed integrals.
	First half integral transformation complete.
	Starting AA second half-transformation.
	Starting AB second half-transformation.
	Starting BB second half-transformation.
	Two-electron integral transformation complete.
	(OV|OV)...
	Starting AA second half-transformation.
	Starting AB second half-transformation.
	Starting BB second half-transformation.
	Two-electron integral transformation complete.
	(OV|VV)...
	Starting AA second half-transformation.
	Starting AB second half-transformation.
	Starting BB second half-transformation.
	Two-electron integral transformation complete.
	(VV|OO)...
	Starting AA/AB first half-transformation.
	Sorting AA/AB half-transformed integrals.
	Starting BB first half-transformation.
	Sorting BB half-transformed integrals.
	First half integral transformation complete.
	Starting AA second half-transformation.
	Starting AB second half-transformation.
	Starting BB second half-transformation.
	Two-electron integral transformation complete.
	(VV|OV)...
	Starting AA second half-transformation.
	Starting AB second half-transformation.
	Starting BB second half-transformation.
	Two-electron integral transformation complete.
	(VV|VV)...
	Starting AA second half-transformation.
	Starting AB second half-transformation.
	Starting BB second half-transformation.
	Two-electron integral transformation complete.
	Frozen core energy     =   -444.74728711091171

	Size of irrep 0 of <AB|CD> integrals:      5.593 (MW) /     44.746 (MB)
	Size of irrep 1 of <AB|CD> integrals:      4.757 (MW) /     38.054 (MB)
	Size of irrep 2 of <AB|CD> integrals:      4.757 (MW) /     38.054 (MB)
	Size of irrep 3 of <AB|CD> integrals:      4.757 (MW) /     38.054 (MB)
	Size of irrep 4 of <AB|CD> integrals:      4.060 (MW) /     32.482 (MB)
	Size of irrep 5 of <AB|CD> integrals:      5.203 (MW) /     41.624 (MB)
	Size of irrep 6 of <AB|CD> integrals:      5.203 (MW) /     41.624 (MB)
	Size of irrep 7 of <AB|CD> integrals:      5.203 (MW) /     41.624 (MB)
	Total:                                    39.533 (MW) /    316.261 (MB)

	Size of irrep 0 of <ab|cd> integrals:      5.712 (MW) /     45.697 (MB)
	Size of irrep 1 of <ab|cd> integrals:      4.805 (MW) /     38.439 (MB)
	Size of irrep 2 of <ab|cd> integrals:      4.866 (MW) /     38.931 (MB)
	Size of irrep 3 of <ab|cd> integrals:      4.866 (MW) /     38.931 (MB)
	Size of irrep 4 of <ab|cd> integrals:      4.145 (MW) /     33.162 (MB)
	Size of irrep 5 of <ab|cd> integrals:      5.387 (MW) /     43.096 (MB)
	Size of irrep 6 of <ab|cd> integrals:      5.299 (MW) /     42.394 (MB)
	Size of irrep 7 of <ab|cd> integrals:      5.299 (MW) /     42.394 (MB)
	Total:                                    40.381 (MW) /    323.045 (MB)

	Size of irrep 0 of <Ab|Cd> integrals:     24.443 (MW) /    195.545 (MB)
	Size of irrep 1 of <Ab|Cd> integrals:     19.123 (MW) /    152.985 (MB)
	Size of irrep 2 of <Ab|Cd> integrals:     19.246 (MW) /    153.966 (MB)
	Size of irrep 3 of <Ab|Cd> integrals:     19.246 (MW) /    153.966 (MB)
	Size of irrep 4 of <Ab|Cd> integrals:     16.411 (MW) /    131.285 (MB)
	Size of irrep 5 of <Ab|Cd> integrals:     21.178 (MW) /    169.427 (MB)
	Size of irrep 6 of <Ab|Cd> integrals:     21.004 (MW) /    168.031 (MB)
	Size of irrep 7 of <Ab|Cd> integrals:     21.004 (MW) /    168.031 (MB)
	Total:                                   161.655 (MW) /   1293.237 (MB)

	Size of irrep 0 of <IA|BC> integrals:      0.566 (MW) /      4.525 (MB)
	Size of irrep 1 of <IA|BC> integrals:      0.358 (MW) /      2.861 (MB)
	Size of irrep 2 of <IA|BC> integrals:      0.358 (MW) /      2.861 (MB)
	Size of irrep 3 of <IA|BC> integrals:      0.358 (MW) /      2.861 (MB)
	Size of irrep 4 of <IA|BC> integrals:      0.298 (MW) /      2.386 (MB)
	Size of irrep 5 of <IA|BC> integrals:      0.488 (MW) /      3.905 (MB)
	Size of irrep 6 of <IA|BC> integrals:      0.488 (MW) /      3.905 (MB)
	Size of irrep 7 of <IA|BC> integrals:      0.488 (MW) /      3.905 (MB)
	Total:                                     3.401 (MW) /     27.211 (MB)

	Size of irrep 0 of <ia|bc> integrals:      0.447 (MW) /      3.578 (MB)
	Size of irrep 1 of <ia|bc> integrals:      0.311 (MW) /      2.490 (MB)
	Size of irrep 2 of <ia|bc> integrals:      0.256 (MW) /      2.047 (MB)
	Size of irrep 3 of <ia|bc> integrals:      0.256 (MW) /      2.047 (MB)
	Size of irrep 4 of <ia|bc> integrals:      0.216 (MW) /      1.727 (MB)
	Size of irrep 5 of <ia|bc> integrals:      0.316 (MW) /      2.525 (MB)
	Size of irrep 6 of <ia|bc> integrals:      0.396 (MW) /      3.168 (MB)
	Size of irrep 7 of <ia|bc> integrals:      0.396 (MW) /      3.168 (MB)
	Total:                                     2.594 (MW) /     20.750 (MB)

	Size of irrep 0 of <Ia|Bc> integrals:      0.574 (MW) /      4.588 (MB)
	Size of irrep 1 of <Ia|Bc> integrals:      0.359 (MW) /      2.869 (MB)
	Size of irrep 2 of <Ia|Bc> integrals:      0.364 (MW) /      2.913 (MB)
	Size of irrep 3 of <Ia|Bc> integrals:      0.364 (MW) /      2.913 (MB)
	Size of irrep 4 of <Ia|Bc> integrals:      0.300 (MW) /      2.398 (MB)
	Size of irrep 5 of <Ia|Bc> integrals:      0.497 (MW) /      3.976 (MB)
	Size of irrep 6 of <Ia|Bc> integrals:      0.490 (MW) /      3.923 (MB)
	Size of irrep 7 of <Ia|Bc> integrals:      0.490 (MW) /      3.923 (MB)
	Total:                                     3.438 (MW) /     27.503 (MB)

	Size of irrep 0 of <iA|bC> integrals:      0.445 (MW) /      3.560 (MB)
	Size of irrep 1 of <iA|bC> integrals:      0.310 (MW) /      2.484 (MB)
	Size of irrep 2 of <iA|bC> integrals:      0.250 (MW) /      2.000 (MB)
	Size of irrep 3 of <iA|bC> integrals:      0.250 (MW) /      2.000 (MB)
	Size of irrep 4 of <iA|bC> integrals:      0.215 (MW) /      1.718 (MB)
	Size of irrep 5 of <iA|bC> integrals:      0.308 (MW) /      2.467 (MB)
	Size of irrep 6 of <iA|bC> integrals:      0.394 (MW) /      3.153 (MB)
	Size of irrep 7 of <iA|bC> integrals:      0.394 (MW) /      3.153 (MB)
	Total:                                     2.567 (MW) /     20.535 (MB)

	Size of irrep 0 of tIjAb amplitudes:       0.015 (MW) /      0.119 (MB)
	Size of irrep 1 of tIjAb amplitudes:       0.009 (MW) /      0.070 (MB)
	Size of irrep 2 of tIjAb amplitudes:       0.004 (MW) /      0.035 (MB)
	Size of irrep 3 of tIjAb amplitudes:       0.004 (MW) /      0.035 (MB)
	Size of irrep 4 of tIjAb amplitudes:       0.000 (MW) /      0.000 (MB)
	Size of irrep 5 of tIjAb amplitudes:       0.005 (MW) /      0.037 (MB)
	Size of irrep 6 of tIjAb amplitudes:       0.009 (MW) /      0.073 (MB)
	Size of irrep 7 of tIjAb amplitudes:       0.009 (MW) /      0.073 (MB)
	Total:                                     0.055 (MW) /      0.442 (MB)

	Nuclear Rep. energy          =      0.00000000000000
	SCF energy                   =   -459.48991644120605
	One-electron energy          =    -24.78611815056350
	Two-electron (AA) energy     =      2.59586797200980
	Two-electron (BB) energy     =      1.26077190963157
	Two-electron (AB) energy     =      6.18684893862850
	Two-electron energy          =     10.04348882026987
	Reference energy             =   -459.48991644120537

*** tstop() called on n411-011.vsc4.prov at Thu Jan 21 14:13:26 2021
Module time:
	user time   =      19.85 seconds =       0.33 minutes
	system time =      13.87 seconds =       0.23 minutes
	total time  =         75 seconds =       1.25 minutes
Total time:
	user time   =     151.06 seconds =       2.52 minutes
	system time =      19.27 seconds =       0.32 minutes
	total time  =        199 seconds =       3.32 minutes
            **************************
            *                        *
            *        CCENERGY        *
            *                        *
            **************************

    Nuclear Rep. energy (wfn)     =    0.000000000000000
    SCF energy          (wfn)     = -459.489916441206049
    Reference energy    (file100) = -459.489916441205366

    Input parameters:
    -----------------
    Wave function   =     CCSD_T
    Reference wfn   =     UHF
    Brueckner       =     No
    Memory (Mbytes) =     250000.0
    Maxiter         =     50
    R_Convergence   =     1.0e-07
    E_Convergence   =     1.0e-06
    Restart         =     Yes
    DIIS            =     Yes
    AO Basis        =     NONE
    ABCD            =     NEW
    Cache Level     =     2
    Cache Type      =     LRU
    Print Level     =     1
    Num. of threads =     48
    # Amps to Print =     10
    Print MP2 Amps? =     No
    Analyze T2 Amps =     No
    Print Pair Ener =     No
    Local CC        =     No
    SCS-MP2         =     False
    SCSN-MP2        =     False
    SCS-CCSD        =     False

MP2 correlation energy -0.1873382508632051
                Solving CC Amplitude Equations
                ------------------------------
  Iter             Energy              RMS        T1Diag      D1Diag    New D1Diag    D2Diag
  ----     ---------------------    ---------   ----------  ----------  ----------   --------
     0        -0.187338250863205    0.000e+00    0.000000    0.000000    0.000000    0.000000
     1        -0.200510727062968    3.857e-02    0.007216    0.000000    0.000000    0.000000
     2        -0.205745140692878    1.293e-02    0.010088    0.000000    0.000000    0.000000
     3        -0.205949068270682    3.184e-03    0.011019    0.000000    0.000000    0.000000
     4        -0.205958838218339    8.814e-04    0.011245    0.000000    0.000000    0.000000
     5        -0.205953797119343    2.030e-04    0.011262    0.000000    0.000000    0.000000
     6        -0.205952653819775    7.176e-05    0.011267    0.000000    0.000000    0.000000
     7        -0.205953310362971    2.371e-05    0.011266    0.000000    0.000000    0.000000
     8        -0.205953394941357    6.882e-06    0.011265    0.000000    0.000000    0.000000
     9        -0.205953333496262    2.287e-06    0.011265    0.000000    0.000000    0.000000
    10        -0.205953336272464    6.738e-07    0.011265    0.000000    0.000000    0.000000
    11        -0.205953341280896    1.541e-07    0.011265    0.000000    0.000000    0.000000
    12        -0.205953345594405    4.319e-08    0.011265    0.000000    0.000000    0.000000

    Iterations converged.


    Largest TIA Amplitudes:
              0   4        -0.0062304436
              2 140        -0.0039673419
              3 165        -0.0039673419
              2 143         0.0039623577
              3 168         0.0039623577
              0   1         0.0034522880
              0   9         0.0030028547
              0   3         0.0029500699
              1 114         0.0027659137
              0  11        -0.0026762026

    Largest Tia Amplitudes:
              0   5        -0.0196928324
              0  10        -0.0098988634
              0   2         0.0098070438
              2 169         0.0038525474
              1 144         0.0038525474
              0   3        -0.0036766787
              2 166        -0.0036696925
              1 141        -0.0036696925
              1 145         0.0030892974
              2 170         0.0030892974

    Largest TIJAB Amplitudes:
      3   2  41   5         0.0290163614
      3   1  62   4        -0.0233748877
      2   1  83   4        -0.0233748877
      2   1  83   5         0.0147307083
      3   1  83  41        -0.0147307083
      2   1  62  41        -0.0147307083
      3   1  62   5        -0.0147307083
      3   2  41   2         0.0146582628
      3   2  40   5         0.0146582627
      3   2  44   5         0.0144441985

    Largest Tijab Amplitudes:
      2   1  41   4         0.0282079031
      2   0 114  62        -0.0157130115
      1   0 114  83        -0.0157130115
      2   1  40   4         0.0145132633
      2   1  41   1         0.0145132633
      2   1  83  62         0.0141822599
      2   1  41   9         0.0138122495
      2   1  44   4         0.0138122495
      2   1  44   9         0.0099272208
      2   1 166 141        -0.0088871903

    Largest TIjAb Amplitudes:
      1   0   4 114         0.0411810724
      2   0  83 114         0.0354881692
      3   0  62 114         0.0354881692
      3   2  62  62        -0.0300986660
      2   1  83  83        -0.0300986660
      3   2   5   4        -0.0289257445
      3   2  41  41        -0.0289257445
      2   1  41  41        -0.0289257445
      2   1   5   4        -0.0289257445
      1   0   9 114        -0.0218877524

    SCF energy       (wfn)                    = -459.489916441206049
    Reference energy (file100)                = -459.489916441205366

    Opposite-spin MP2 correlation energy      =   -0.148012536605577
    Same-spin MP2 correlation energy          =   -0.039325714257628
    Singles MP2 correlation energy            =   -0.000000000000000
    MP2 correlation energy                    =   -0.187338250863205
      * MP2 total energy                      = -459.677254692068573

    Opposite-spin CCSD correlation energy     =   -0.166746657805478
    Same-spin CCSD correlation energy         =   -0.039206687788928
    Singles CCSD correlation energy           =    0.000000000000001
    CCSD correlation energy                   =   -0.205953345594405
      * CCSD total energy                     = -459.695869786799790

            **************************
            *                        *
            *        CCTRIPLES       *
            *                        *
            **************************


    Wave function   =    CCSD_T
    Reference wfn   =      UHF

    Nuclear Rep. energy (wfn)                =    0.000000000000000
    SCF energy          (wfn)                = -459.489916441206049
    Reference energy    (file100)            = -459.489916441205366
    CCSD energy         (file100)            =   -0.205953345594405
    Total CCSD energy   (file100)            = -459.695869786799790

    Number of ijk index combinations:
    Spin Case AAA:                                   4
    Spin Case BBB:                                   1
    Spin Case AAB:                                  18
    Spin Case ABB:                                  12
    AAA (T) energy                             =   -0.000272722506430
    BBB (T) energy                             =   -0.000048611562166
    AAB (T) energy                             =   -0.004736568474935
    ABB (T) energy                             =   -0.002960709355261
    (T) energy                                   =   -0.008018611898793
      * CCSD(T) total energy                     = -459.703888398698552


    Psi4 stopped on: Thursday, 21 January 2021 02:14PM
    Psi4 wall time for execution: 0:04:16.73

*** Psi4 exiting successfully. Buy a developer a beer!
