
    -----------------------------------------------------------------------
          Psi4: An Open-Source Ab Initio Electronic Structure Package
                               Psi4 1.2a1.dev939 

                         Git: Rev {HEAD} fa1ec19 


    R. M. Parrish, L. A. Burns, D. G. A. Smith, A. C. Simmonett,
    A. E. DePrince III, E. G. Hohenstein, U. Bozkaya, A. Yu. Sokolov,
    R. Di Remigio, R. M. Richard, J. F. Gonthier, A. M. James,
    H. R. McAlexander, A. Kumar, M. Saitow, X. Wang, B. P. Pritchard,
    P. Verma, H. F. Schaefer III, K. Patkowski, R. A. King, E. F. Valeev,
    F. A. Evangelista, J. M. Turney, T. D. Crawford, and C. D. Sherrill,
    J. Chem. Theory Comput. 13(7) pp 3185--3197 (2017).
    (doi: 10.1021/acs.jctc.7b00174)

    -----------------------------------------------------------------------


    Psi4 started on: Sunday, 28 April 2019 08:59AM

    Process ID:  21477
    PSIDATADIR: /home/grueneis/src/psi4/objdir/stage/usr/local/psi4/share/psi4
    Memory:     500.0 MiB
    Threads:    1
    
  ==> Input File <==

--------------------------------------------------------------------------
# Any line starting with the # character is a comment line

memory 32000 mb

molecule molecule {
0 1
O         -0.0631131193        0.0000000000       -1.1364191151
H          0.8724867027        0.0000000000       -1.3867383703
Cl         0.0036769186        0.0000000000        0.5522740830
}

set {
  reference rhf
  basis aug-cc-pv(Q+d)z
  scf_type OUT_OF_CORE
  freeze_core true
}

energy('ccsd')
--------------------------------------------------------------------------

  Memory set to  29.802 GiB by Python driver.

*** tstart() called on cqc01
*** at Sun Apr 28 08:59:26 2019

   => Loading Basis Set <=

    Name: AUG-CC-PV(Q+D)Z
    Role: ORBITAL
    Keyword: BASIS
    atoms 1 entry O          line   439 file /home/grueneis/src/psi4/objdir/stage/usr/local/psi4/share/psi4/basis/aug-cc-pv_qpd_z.gbs 
    atoms 2 entry H          line    56 file /home/grueneis/src/psi4/objdir/stage/usr/local/psi4/share/psi4/basis/aug-cc-pv_qpd_z.gbs 
    atoms 3 entry CL         line  1246 file /home/grueneis/src/psi4/objdir/stage/usr/local/psi4/share/psi4/basis/aug-cc-pv_qpd_z.gbs 


         ---------------------------------------------------------
                                   SCF
            by Justin Turney, Rob Parrish, Andy Simmonett
                             and Daniel Smith
                              RHF Reference
                        1 Threads,  30517 MiB Core
         ---------------------------------------------------------

  ==> Geometry <==

    Molecular point group: cs
    Full point group: Cs

    Geometry (in Angstrom), charge = 0, multiplicity = 1:

       Center              X                  Y                   Z               Mass       
    ------------   -----------------  -----------------  -----------------  -----------------
           O          0.063082383459    -1.131375488374     0.000000000000    15.994914619560
           H         -0.872517438541    -1.381694743574     0.000000000000     1.007825032070
          CL         -0.003707654441     0.557317709726     0.000000000000    34.968852682000

  Running in cs symmetry.

  Rotational constants: A =     20.27682  B =      0.50686  C =      0.49450 [cm^-1]
  Rotational constants: A = 607883.77486  B =  15195.20568  C =  14824.63584 [MHz]
  Nuclear repulsion =   51.189306733400876

  Charge       = 0
  Multiplicity = 1
  Electrons    = 26
  Nalpha       = 13
  Nbeta        = 13

  ==> Algorithm <==

  SCF Algorithm Type is OUT_OF_CORE.
  DIIS enabled.
  MOM disabled.
  Fractional occupation disabled.
  Guess Type is SAD.
  Energy threshold   = 1.00e-08
  Density threshold  = 1.00e-08
  Integral threshold = 0.00e+00

  ==> Primary Basis <==

  Basis Set: AUG-CC-PV(Q+D)Z
    Blend: AUG-CC-PV(Q+D)Z
    Number of shells: 57
    Number of basis function: 215
    Number of Cartesian functions: 275
    Spherical Harmonics?: true
    Max angular momentum: 4

  ==> Pre-Iterations <==

   -------------------------------------------------------
    Irrep   Nso     Nmo     Nalpha   Nbeta   Ndocc  Nsocc
   -------------------------------------------------------
     A'       136     136       0       0       0       0
     A"        79      79       0       0       0       0
   -------------------------------------------------------
    Total     215     215      13      13      13       0
   -------------------------------------------------------

  ==> Integral Setup <==

  ==> DiskJK: Disk-Based J/K Matrices <==

    J tasked:                  Yes
    K tasked:                  Yes
    wK tasked:                  No
    Memory (MB):             22888
    Schwarz Cutoff:          1E-12

  Minimum eigenvalue in the overlap matrix is 8.1161549311E-05.
  Using Symmetric Orthogonalization.

  SCF Guess: Superposition of Atomic Densities via on-the-fly atomic UHF.

  ==> Iterations <==

                        Total Energy        Delta E     RMS |[F,P]|

   @RHF iter   0:  -534.84124131572310   -5.34841e+02   1.02173e-02 
   @RHF iter   1:  -534.91373711319306   -7.24958e-02   1.31227e-03 
   @RHF iter   2:  -534.92877955462711   -1.50424e-02   5.69441e-04 DIIS
   @RHF iter   3:  -534.93162389561064   -2.84434e-03   2.13485e-04 DIIS
   @RHF iter   4:  -534.93215915570545   -5.35260e-04   5.34357e-05 DIIS
   @RHF iter   5:  -534.93223495915572   -7.58035e-05   1.58771e-05 DIIS
   @RHF iter   6:  -534.93224369205961   -8.73290e-06   6.39755e-06 DIIS
   @RHF iter   7:  -534.93224596509435   -2.27303e-06   2.18650e-06 DIIS
   @RHF iter   8:  -534.93224625334358   -2.88249e-07   7.34332e-07 DIIS
   @RHF iter   9:  -534.93224628611426   -3.27707e-08   2.37281e-07 DIIS
   @RHF iter  10:  -534.93224628935263   -3.23837e-09   5.97156e-08 DIIS
   @RHF iter  11:  -534.93224628952112   -1.68484e-10   1.47045e-08 DIIS
   @RHF iter  12:  -534.93224628953101   -9.89075e-12   5.63192e-09 DIIS

  ==> Post-Iterations <==

    Orbital Energies (a.u.)
    -----------------------

    Doubly Occupied:                                                      

       1Ap  -104.890144     2Ap   -20.641878     3Ap   -10.610306  
       4Ap    -8.077711     5Ap    -8.074853     1App   -8.074699  
       6Ap    -1.412536     7Ap    -1.060982     8Ap    -0.721173  
       2App   -0.614281     9Ap    -0.604914    10Ap    -0.468495  
       3App   -0.444302  

    Virtual:                                                              

      11Ap     0.025402    12Ap     0.056135    13Ap     0.090366  
       4App    0.097643    14Ap     0.122364    15Ap     0.133509  
      16Ap     0.146057    17Ap     0.148496     5App    0.158353  
      18Ap     0.199216     6App    0.203980    19Ap     0.255910  
      20Ap     0.273238     7App    0.299476    21Ap     0.317191  
       8App    0.324687    22Ap     0.330136    23Ap     0.354199  
      24Ap     0.357424     9App    0.452625    25Ap     0.458347  
      26Ap     0.508421    10App    0.530365    27Ap     0.535312  
      28Ap     0.548233    11App    0.572568    29Ap     0.574632  
      12App    0.639470    30Ap     0.645039    31Ap     0.656313  
      13App    0.669453    32Ap     0.682732    14App    0.688054  
      33Ap     0.723340    34Ap     0.746687    15App    0.753608  
      35Ap     0.767763    36Ap     0.783315    16App    0.829042  
      37Ap     0.846333    38Ap     0.889878    17App    0.895990  
      39Ap     0.956412    40Ap     1.003392    41Ap     1.026310  
      18App    1.037666    19App    1.056673    42Ap     1.065612  
      20App    1.164729    43Ap     1.222101    44Ap     1.280926  
      45Ap     1.344641    46Ap     1.480129    21App    1.504607  
      47Ap     1.511003    22App    1.517897    48Ap     1.551628  
      23App    1.584863    49Ap     1.596604    50Ap     1.610088  
      51Ap     1.614199    24App    1.637305    25App    1.649348  
      52Ap     1.658977    26App    1.661369    53Ap     1.699541  
      27App    1.707760    54Ap     1.739833    55Ap     1.771472  
      28App    1.777501    56Ap     1.857383    57Ap     1.888532  
      29App    1.904954    58Ap     1.914156    59Ap     1.926987  
      30App    1.999165    31App    2.015549    60Ap     2.021944  
      61Ap     2.068585    32App    2.071881    33App    2.095632  
      62Ap     2.096282    34App    2.148100    63Ap     2.168763  
      64Ap     2.199830    65Ap     2.216807    35App    2.225881  
      36App    2.281142    66Ap     2.289581    67Ap     2.343799  
      68Ap     2.386548    69Ap     2.448048    37App    2.459555  
      38App    2.482458    70Ap     2.607106    71Ap     2.691185  
      72Ap     2.774456    73Ap     2.939435    39App    3.018611  
      40App    3.105170    74Ap     3.127493    41App    3.139833  
      75Ap     3.172937    76Ap     3.434836    77Ap     3.541858  
      78Ap     3.662267    42App    3.710046    79Ap     3.720936  
      43App    3.732622    80Ap     3.802412    44App    3.808681  
      81Ap     3.872137    82Ap     3.991229    45App    4.044980  
      83Ap     4.068090    46App    4.100285    84Ap     4.118742  
      47App    4.171909    85Ap     4.207037    86Ap     4.262825  
      48App    4.293443    49App    4.360800    87Ap     4.367938  
      88Ap     4.463301    89Ap     4.545221    90Ap     4.557059  
      50App    4.619384    51App    4.688979    52App    4.695568  
      91Ap     4.695584    92Ap     4.717212    53App    4.731841  
      93Ap     4.732011    94Ap     4.746309    54App    4.761865  
      95Ap     4.827447    55App    4.869055    96Ap     4.900301  
      56App    4.993328    97Ap     5.036610    57App    5.096097  
      98Ap     5.112992    58App    5.168050    99Ap     5.219927  
     100Ap     5.314409   101Ap     5.342068    59App    5.582511  
     102Ap     5.654405    60App    5.886271   103Ap     5.930701  
     104Ap     6.002280   105Ap     6.255985    61App    6.334034  
     106Ap     6.539398    62App    6.857983   107Ap     6.905257  
      63App    7.768223   108Ap     7.773386    64App    7.820631  
     109Ap     7.837910   110Ap     7.983429   111Ap     8.121969  
     112Ap     8.579573    65App    8.666470    66App    8.778648  
     113Ap     8.874993   114Ap     9.144660   115Ap     9.817970  
      67App    9.865762   116Ap    10.048753   117Ap    10.816930  
      68App   10.855182   118Ap    10.886182   119Ap    10.931504  
      69App   10.934170    70App   11.019578    71App   11.299823  
     120Ap    11.331119   121Ap    11.372733    72App   11.381210  
     122Ap    11.519856    73App   11.533184    74App   11.603961  
     123Ap    11.621717   124Ap    11.751063   125Ap    11.909726  
      75App   12.058314   126Ap    12.093403   127Ap    12.217043  
      76App   12.303579   128Ap    12.360925    77App   12.756814  
     129Ap    12.814301   130Ap    12.960640    78App   13.274075  
     131Ap    13.400494    79App   14.529668   132Ap    14.567009  
     133Ap    14.586623   134Ap    16.945407   135Ap    25.135964  
     136Ap    44.108816  

    Final Occupation by Irrep:
             Ap   App 
    DOCC [    10,    3 ]

  Energy converged.

  @RHF Final Energy:  -534.93224628953101

   => Energetics <=

    Nuclear Repulsion Energy =             51.1893067334008762
    One-Electron Energy =                -840.8505627184048308
    Two-Electron Energy =                 254.7290096954729393
    Total Energy =                       -534.9322462895311219



Properties will be evaluated at   0.000000,   0.000000,   0.000000 Bohr

Properties computed using the SCF density matrix

  Nuclear Dipole Moment: (a.u.)
     X:    -0.8143      Y:    -1.8109      Z:     0.0000

  Electronic Dipole Moment: (a.u.)
     X:     0.1905      Y:     1.6767      Z:     0.0000

  Dipole Moment: (a.u.)
     X:    -0.6237      Y:    -0.1343      Z:     0.0000     Total:     0.6380

  Dipole Moment: (Debye)
     X:    -1.5854      Y:    -0.3413      Z:     0.0000     Total:     1.6217


*** tstop() called on cqc01 at Sun Apr 28 09:01:15 2019
Module time:
	user time   =      53.30 seconds =       0.89 minutes
	system time =       7.83 seconds =       0.13 minutes
	total time  =        109 seconds =       1.82 minutes
Total time:
	user time   =      53.30 seconds =       0.89 minutes
	system time =       7.83 seconds =       0.13 minutes
	total time  =        109 seconds =       1.82 minutes

*** tstart() called on cqc01
*** at Sun Apr 28 09:01:15 2019


	Wfn Parameters:
	--------------------
	Wavefunction         = CCSD
	Number of irreps     = 2
	Number of MOs        = 215
	Number of active MOs = 209
	AO-Basis             = NONE
	Semicanonical        = false
	Reference            = RHF
	Print Level          = 1

	IRREP	# MOs	# FZDC	# DOCC	# SOCC	# VIRT	# FZVR
	-----	-----	------	------	------	------	------
	 Ap	   136	    5	    5	    0	    126	    0
	 App	   79	    1	    2	    0	    76	    0
	Transforming integrals...
	IWL integrals will be deleted.
	(OO|OO)...
	Presorting SO-basis two-electron integrals.
	Sorting File: SO Ints (nn|nn) nbuckets = 1
	Transforming the one-electron integrals and constructing Fock matrices
	Starting first half-transformation.
	Sorting half-transformed integrals.
	First half integral transformation complete.
	Starting second half-transformation.
	Two-electron integral transformation complete.
	(OO|OV)...
	Starting second half-transformation.
	Two-electron integral transformation complete.
	(OO|VV)...
	Starting second half-transformation.
	Two-electron integral transformation complete.
	(OV|OO)...
	Starting first half-transformation.
	Sorting half-transformed integrals.
	First half integral transformation complete.
	Starting second half-transformation.
	Two-electron integral transformation complete.
	(OV|OV)...
	Starting second half-transformation.
	Two-electron integral transformation complete.
	(OV|VV)...
	Starting second half-transformation.
	Two-electron integral transformation complete.
	(VV|OO)...
	Starting first half-transformation.
	Sorting half-transformed integrals.
	First half integral transformation complete.
	Starting second half-transformation.
	Two-electron integral transformation complete.
	(VV|OV)...
	Starting second half-transformation.
	Two-electron integral transformation complete.
	(VV|VV)...
	Starting second half-transformation.
	Two-electron integral transformation complete.
	Frozen core energy     =   -536.87319322434439

	Size of irrep 0 of <ab|cd> integrals:    468.809 (MW) /   3750.473 (MB)
	Size of irrep 1 of <ab|cd> integrals:    366.799 (MW) /   2934.393 (MB)
	Total:                                   835.608 (MW) /   6684.866 (MB)

	Size of irrep 0 of <ia|bc> integrals:     16.932 (MW) /    135.455 (MB)
	Size of irrep 1 of <ia|bc> integrals:     12.104 (MW) /     96.833 (MB)
	Total:                                    29.036 (MW) /    232.287 (MB)

	Size of irrep 0 of tijab amplitudes:       0.628 (MW) /      5.023 (MB)
	Size of irrep 1 of tijab amplitudes:       0.383 (MW) /      3.064 (MB)
	Total:                                     1.011 (MW) /      8.088 (MB)

	Nuclear Rep. energy          =     51.18930673340088
	SCF energy                   =   -534.93224628953101
	One-electron energy          =    -87.84335583302894
	Two-electron energy          =     38.59499603444301
	Reference energy             =   -534.93224628952942

*** tstop() called on cqc01 at Sun Apr 28 09:13:34 2019
Module time:
	user time   =      99.02 seconds =       1.65 minutes
	system time =      55.30 seconds =       0.92 minutes
	total time  =        739 seconds =      12.32 minutes
Total time:
	user time   =     152.32 seconds =       2.54 minutes
	system time =      63.13 seconds =       1.05 minutes
	total time  =        848 seconds =      14.13 minutes

*** tstart() called on cqc01
*** at Sun Apr 28 09:13:34 2019

            **************************
            *                        *
            *        CCENERGY        *
            *                        *
            **************************

    Nuclear Rep. energy (wfn)     =   51.189306733400876
    SCF energy          (wfn)     = -534.932246289531008
    Reference energy    (file100) = -534.932246289529417

    Input parameters:
    -----------------
    Wave function   =     CCSD
    Reference wfn   =     RHF
    Brueckner       =     No
    Memory (Mbytes) =     32000.0
    Maxiter         =     50
    R_Convergence   =     1.0e-07
    E_Convergence   =     1.0e-06
    Restart         =     Yes
    DIIS            =     Yes
    AO Basis        =     NONE
    ABCD            =     NEW
    Cache Level     =     2
    Cache Type      =     LOW
    Print Level     =     1
    Num. of threads =     1
    # Amps to Print =     10
    Print MP2 Amps? =     No
    Analyze T2 Amps =     No
    Print Pair Ener =     No
    Local CC        =     No
    SCS-MP2         =     False
    SCSN-MP2        =     False
    SCS-CCSD        =     False

MP2 correlation energy -0.4831191600702889
                Solving CC Amplitude Equations
                ------------------------------
  Iter             Energy              RMS        T1Diag      D1Diag    New D1Diag    D2Diag
  ----     ---------------------    ---------   ----------  ----------  ----------   --------
     0        -0.483119160069743    0.000e+00    0.000000    0.000000    0.000000    0.157572
     1        -0.516361943584335    2.913e-01    0.018473    0.040276    0.040276    0.182552
     2        -0.506551397421062    4.575e-02    0.011303    0.024314    0.024314    0.179159
     3        -0.498455609765103    1.350e-02    0.011786    0.026027    0.026027    0.172633
     4        -0.497877609312116    3.134e-03    0.011365    0.024788    0.024788    0.171580
     5        -0.497866643245366    8.585e-04    0.011282    0.024605    0.024605    0.171194
     6        -0.497796113912899    3.091e-04    0.011250    0.024491    0.024491    0.171002
     7        -0.497796841498173    1.174e-04    0.011245    0.024455    0.024455    0.170969
     8        -0.497803743027895    5.742e-05    0.011247    0.024450    0.024450    0.170974
     9        -0.497801616592616    3.312e-05    0.011249    0.024446    0.024446    0.170975
    10        -0.497801208250668    1.451e-05    0.011251    0.024446    0.024446    0.170977
    11        -0.497802057722380    5.467e-06    0.011251    0.024448    0.024448    0.170978
    12        -0.497802019955203    2.201e-06    0.011252    0.024448    0.024448    0.170978
    13        -0.497802041281844    8.335e-07    0.011252    0.024448    0.024448    0.170978
    14        -0.497802040903150    3.473e-07    0.011252    0.024448    0.024448    0.170978
    15        -0.497802027207344    1.273e-07    0.011252    0.024448    0.024448    0.170978
    16        -0.497802028605263    4.435e-08    0.011252    0.024448    0.024448    0.170978
    16        -0.497802028605263    4.435e-08    0.011252    0.024448    0.024448    0.170978

    Iterations converged.


    CCSD corr. energy   =   -0.497802028605263
    PPL corr. energy    =    0.120343720828915
    OS PPL corr. energy =    0.100705452193050
    SS PPL corr. energy =    0.019638268635855
    Largest TIA Amplitudes:
              5 130        -0.0130252487
              5 127        -0.0107730541
              5 136        -0.0088773829
              3  25        -0.0086855555
              3  32        -0.0076594747
              3   3         0.0070746372
              5 134        -0.0067990882
              3  24        -0.0066780770
              3  60         0.0062320125
              1  24         0.0059736714

    Largest TIjAb Amplitudes:
      3   3   1   1        -0.0298956516
      3   3   3   3        -0.0293976707
      3   3   1   3        -0.0287686581
      3   3   3   1        -0.0287686581
      3   3   6   6        -0.0286013897
      3   3   1   6         0.0277936993
      3   3   6   1         0.0277936993
      3   3   3   6         0.0262563048
      3   3   6   3         0.0262563048
      4   4  17  17        -0.0213185453

    SCF energy       (wfn)                    = -534.932246289531008
    Reference energy (file100)                = -534.932246289529417

    Opposite-spin MP2 correlation energy      =   -0.368058192310452
    Same-spin MP2 correlation energy          =   -0.115060967759291
    MP2 correlation energy                    =   -0.483119160070289
      * MP2 total energy                      = -535.415365449599676

    Opposite-spin CCSD correlation energy     =   -0.393871006794667
    Same-spin CCSD correlation energy         =   -0.103931018981818
    CCSD correlation energy                   =   -0.497802028605263
      * CCSD total energy                     = -535.430048318134709


*** tstop() called on cqc01 at Sun Apr 28 09:17:22 2019
Module time:
	user time   =      67.35 seconds =       1.12 minutes
	system time =      67.16 seconds =       1.12 minutes
	total time  =        228 seconds =       3.80 minutes
Total time:
	user time   =     219.67 seconds =       3.66 minutes
	system time =     130.30 seconds =       2.17 minutes
	total time  =       1076 seconds =      17.93 minutes

*** Psi4 exiting successfully. Buy a developer a beer!
