
    -----------------------------------------------------------------------
          Psi4: An Open-Source Ab Initio Electronic Structure Package
                               Psi4 1.2a1.dev939 

                         Git: Rev {HEAD} fa1ec19 


    R. M. Parrish, L. A. Burns, D. G. A. Smith, A. C. Simmonett,
    A. E. DePrince III, E. G. Hohenstein, U. Bozkaya, A. Yu. Sokolov,
    R. Di Remigio, R. M. Richard, J. F. Gonthier, A. M. James,
    H. R. McAlexander, A. Kumar, M. Saitow, X. Wang, B. P. Pritchard,
    P. Verma, H. F. Schaefer III, K. Patkowski, R. A. King, E. F. Valeev,
    F. A. Evangelista, J. M. Turney, T. D. Crawford, and C. D. Sherrill,
    J. Chem. Theory Comput. 13(7) pp 3185--3197 (2017).
    (doi: 10.1021/acs.jctc.7b00174)

    -----------------------------------------------------------------------


    Psi4 started on: Friday, 26 April 2019 03:36PM

    Process ID:   2941
    PSIDATADIR: /home/grueneis/src/psi4/objdir/stage/usr/local/psi4/share/psi4
    Memory:     500.0 MiB
    Threads:    1
    
  ==> Input File <==

--------------------------------------------------------------------------
# Any line starting with the # character is a comment line

memory 32000 mb

molecule molecule {
0 1
O         -0.0631131193        0.0000000000       -1.1364191151
H          0.8724867027        0.0000000000       -1.3867383703
Cl         0.0036769186        0.0000000000        0.5522740830
}

set {
  reference rhf
  basis aug-cc-pv(D+d)z
  scf_type OUT_OF_CORE
  freeze_core true
}

energy('ccsd')
--------------------------------------------------------------------------

  Memory set to  29.802 GiB by Python driver.

*** tstart() called on cqc01
*** at Fri Apr 26 15:36:04 2019

   => Loading Basis Set <=

    Name: AUG-CC-PV(D+D)Z
    Role: ORBITAL
    Keyword: BASIS
    atoms 1 entry O          line   270 file /home/grueneis/src/psi4/objdir/stage/usr/local/psi4/share/psi4/basis/aug-cc-pv_dpd_z.gbs 
    atoms 2 entry H          line    56 file /home/grueneis/src/psi4/objdir/stage/usr/local/psi4/share/psi4/basis/aug-cc-pv_dpd_z.gbs 
    atoms 3 entry CL         line   792 file /home/grueneis/src/psi4/objdir/stage/usr/local/psi4/share/psi4/basis/aug-cc-pv_dpd_z.gbs 


         ---------------------------------------------------------
                                   SCF
            by Justin Turney, Rob Parrish, Andy Simmonett
                             and Daniel Smith
                              RHF Reference
                        1 Threads,  30517 MiB Core
         ---------------------------------------------------------

  ==> Geometry <==

    Molecular point group: cs
    Full point group: Cs

    Geometry (in Angstrom), charge = 0, multiplicity = 1:

       Center              X                  Y                   Z               Mass       
    ------------   -----------------  -----------------  -----------------  -----------------
           O          0.063082383459    -1.131375488374     0.000000000000    15.994914619560
           H         -0.872517438541    -1.381694743574     0.000000000000     1.007825032070
          CL         -0.003707654441     0.557317709726     0.000000000000    34.968852682000

  Running in cs symmetry.

  Rotational constants: A =     20.27682  B =      0.50686  C =      0.49450 [cm^-1]
  Rotational constants: A = 607883.77486  B =  15195.20568  C =  14824.63584 [MHz]
  Nuclear repulsion =   51.189306733400876

  Charge       = 0
  Multiplicity = 1
  Electrons    = 26
  Nalpha       = 13
  Nbeta        = 13

  ==> Algorithm <==

  SCF Algorithm Type is OUT_OF_CORE.
  DIIS enabled.
  MOM disabled.
  Fractional occupation disabled.
  Guess Type is SAD.
  Energy threshold   = 1.00e-08
  Density threshold  = 1.00e-08
  Integral threshold = 0.00e+00

  ==> Primary Basis <==

  Basis Set: AUG-CC-PV(D+D)Z
    Blend: AUG-CC-PV(D+D)Z
    Number of shells: 26
    Number of basis function: 64
    Number of Cartesian functions: 69
    Spherical Harmonics?: true
    Max angular momentum: 2

  ==> Pre-Iterations <==

   -------------------------------------------------------
    Irrep   Nso     Nmo     Nalpha   Nbeta   Ndocc  Nsocc
   -------------------------------------------------------
     A'        45      45       0       0       0       0
     A"        19      19       0       0       0       0
   -------------------------------------------------------
    Total      64      64      13      13      13       0
   -------------------------------------------------------

  ==> Integral Setup <==

  ==> DiskJK: Disk-Based J/K Matrices <==

    J tasked:                  Yes
    K tasked:                  Yes
    wK tasked:                  No
    Memory (MB):             22888
    Schwarz Cutoff:          1E-12

  Minimum eigenvalue in the overlap matrix is 1.8660038100E-03.
  Using Symmetric Orthogonalization.

  SCF Guess: Superposition of Atomic Densities via on-the-fly atomic UHF.

  ==> Iterations <==

                        Total Energy        Delta E     RMS |[F,P]|

   @RHF iter   0:  -535.18192448298271   -5.35182e+02   3.96034e-02 
   @RHF iter   1:  -534.82797510846024    3.53949e-01   6.02088e-03 
   @RHF iter   2:  -534.87648465820109   -4.85095e-02   3.37261e-03 DIIS
   @RHF iter   3:  -534.88726336830894   -1.07787e-02   9.42012e-04 DIIS
   @RHF iter   4:  -534.88934497429398   -2.08161e-03   4.14856e-04 DIIS
   @RHF iter   5:  -534.88982406946673   -4.79095e-04   1.14368e-04 DIIS
   @RHF iter   6:  -534.88987984474545   -5.57753e-05   3.20480e-05 DIIS
   @RHF iter   7:  -534.88988369043363   -3.84569e-06   7.43296e-06 DIIS
   @RHF iter   8:  -534.88988388627990   -1.95846e-07   1.63566e-06 DIIS
   @RHF iter   9:  -534.88988389554936   -9.26946e-09   4.38383e-07 DIIS
   @RHF iter  10:  -534.88988389627366   -7.24299e-10   1.52248e-07 DIIS
   @RHF iter  11:  -534.88988389636938   -9.57243e-11   4.85801e-08 DIIS
   @RHF iter  12:  -534.88988389638291   -1.35287e-11   1.99209e-08 DIIS
   @RHF iter  13:  -534.88988389638484   -1.93268e-12   7.51972e-09 DIIS

  ==> Post-Iterations <==

    Orbital Energies (a.u.)
    -----------------------

    Doubly Occupied:                                                      

       1Ap  -104.891714     2Ap   -20.656008     3Ap   -10.612382  
       4Ap    -8.080750     5Ap    -8.075766     1App   -8.075508  
       6Ap    -1.418720     7Ap    -1.064203     8Ap    -0.723478  
       2App   -0.614305     9Ap    -0.606844    10Ap    -0.469664  
       3App   -0.444691  

    Virtual:                                                              

      11Ap     0.033308    12Ap     0.067839    13Ap     0.134190  
       4App    0.137931    14Ap     0.167559    15Ap     0.188533  
      16Ap     0.204752    17Ap     0.219619     5App    0.229239  
      18Ap     0.293413     6App    0.363603    19Ap     0.389792  
      20Ap     0.404676    21Ap     0.497509     7App    0.501047  
       8App    0.519720    22Ap     0.582412    23Ap     0.631140  
      24Ap     0.672636    25Ap     0.861897     9App    0.894117  
      26Ap     0.952832    27Ap     0.975808    10App    1.099228  
      28Ap     1.112455    29Ap     1.131907    11App    1.153311  
      30Ap     1.274372    12App    1.278082    31Ap     1.303912  
      13App    1.315958    32Ap     1.336651    33Ap     1.417726  
      14App    1.499670    34Ap     1.516327    35Ap     1.651406  
      15App    2.038314    36Ap     2.173736    37Ap     2.404208  
      38Ap     2.664556    39Ap     2.822140    16App    3.625944  
      40Ap     3.633565    17App    3.655532    41Ap     3.687865  
      42Ap     4.130217    18App    5.940942    19App    5.941754  
      43Ap     5.942658    44Ap     5.994439    45Ap     6.080943  

    Final Occupation by Irrep:
             Ap   App 
    DOCC [    10,    3 ]

  Energy converged.

  @RHF Final Energy:  -534.88988389638484

   => Energetics <=

    Nuclear Repulsion Energy =             51.1893067334008762
    One-Electron Energy =                -840.6903130867294749
    Two-Electron Energy =                 254.6111224569438036
    Total Energy =                       -534.8898838963848448



Properties will be evaluated at   0.000000,   0.000000,   0.000000 Bohr

Properties computed using the SCF density matrix

  Nuclear Dipole Moment: (a.u.)
     X:    -0.8143      Y:    -1.8109      Z:     0.0000

  Electronic Dipole Moment: (a.u.)
     X:     0.1824      Y:     1.6704      Z:     0.0000

  Dipole Moment: (a.u.)
     X:    -0.6318      Y:    -0.1405      Z:     0.0000     Total:     0.6473

  Dipole Moment: (Debye)
     X:    -1.6060      Y:    -0.3570      Z:     0.0000     Total:     1.6452


*** tstop() called on cqc01 at Fri Apr 26 15:36:08 2019
Module time:
	user time   =       1.74 seconds =       0.03 minutes
	system time =       1.75 seconds =       0.03 minutes
	total time  =          4 seconds =       0.07 minutes
Total time:
	user time   =       1.74 seconds =       0.03 minutes
	system time =       1.75 seconds =       0.03 minutes
	total time  =          4 seconds =       0.07 minutes

*** tstart() called on cqc01
*** at Fri Apr 26 15:36:08 2019


	Wfn Parameters:
	--------------------
	Wavefunction         = CCSD
	Number of irreps     = 2
	Number of MOs        = 64
	Number of active MOs = 58
	AO-Basis             = NONE
	Semicanonical        = false
	Reference            = RHF
	Print Level          = 1

	IRREP	# MOs	# FZDC	# DOCC	# SOCC	# VIRT	# FZVR
	-----	-----	------	------	------	------	------
	 Ap	   45	    5	    5	    0	    35	    0
	 App	   19	    1	    2	    0	    16	    0
	Transforming integrals...
	IWL integrals will be deleted.
	(OO|OO)...
	Presorting SO-basis two-electron integrals.
	Sorting File: SO Ints (nn|nn) nbuckets = 1
	Transforming the one-electron integrals and constructing Fock matrices
	Starting first half-transformation.
	Sorting half-transformed integrals.
	First half integral transformation complete.
	Starting second half-transformation.
	Two-electron integral transformation complete.
	(OO|OV)...
	Starting second half-transformation.
	Two-electron integral transformation complete.
	(OO|VV)...
	Starting second half-transformation.
	Two-electron integral transformation complete.
	(OV|OO)...
	Starting first half-transformation.
	Sorting half-transformed integrals.
	First half integral transformation complete.
	Starting second half-transformation.
	Two-electron integral transformation complete.
	(OV|OV)...
	Starting second half-transformation.
	Two-electron integral transformation complete.
	(OV|VV)...
	Starting second half-transformation.
	Two-electron integral transformation complete.
	(VV|OO)...
	Starting first half-transformation.
	Sorting half-transformed integrals.
	First half integral transformation complete.
	Starting second half-transformation.
	Two-electron integral transformation complete.
	(VV|OV)...
	Starting second half-transformation.
	Two-electron integral transformation complete.
	(VV|VV)...
	Starting second half-transformation.
	Two-electron integral transformation complete.
	Frozen core energy     =   -536.86094106163716

	Size of irrep 0 of <ab|cd> integrals:      2.193 (MW) /     17.547 (MB)
	Size of irrep 1 of <ab|cd> integrals:      1.254 (MW) /     10.035 (MB)
	Total:                                     3.448 (MW) /     27.582 (MB)

	Size of irrep 0 of <ia|bc> integrals:      0.307 (MW) /      2.453 (MB)
	Size of irrep 1 of <ia|bc> integrals:      0.168 (MW) /      1.344 (MB)
	Total:                                     0.475 (MW) /      3.797 (MB)

	Size of irrep 0 of tijab amplitudes:       0.043 (MW) /      0.344 (MB)
	Size of irrep 1 of tijab amplitudes:       0.022 (MW) /      0.179 (MB)
	Total:                                     0.065 (MW) /      0.523 (MB)

	Nuclear Rep. energy          =     51.18930673340088
	SCF energy                   =   -534.88988389638484
	One-electron energy          =    -87.75268709500067
	Two-electron energy          =     38.53443752685075
	Reference energy             =   -534.88988389638621

*** tstop() called on cqc01 at Fri Apr 26 15:36:12 2019
Module time:
	user time   =       0.41 seconds =       0.01 minutes
	system time =       0.24 seconds =       0.00 minutes
	total time  =          4 seconds =       0.07 minutes
Total time:
	user time   =       2.16 seconds =       0.04 minutes
	system time =       1.99 seconds =       0.03 minutes
	total time  =          8 seconds =       0.13 minutes

*** tstart() called on cqc01
*** at Fri Apr 26 15:36:12 2019

            **************************
            *                        *
            *        CCENERGY        *
            *                        *
            **************************

    Nuclear Rep. energy (wfn)     =   51.189306733400876
    SCF energy          (wfn)     = -534.889883896384845
    Reference energy    (file100) = -534.889883896386209

    Input parameters:
    -----------------
    Wave function   =     CCSD
    Reference wfn   =     RHF
    Brueckner       =     No
    Memory (Mbytes) =     32000.0
    Maxiter         =     50
    R_Convergence   =     1.0e-07
    E_Convergence   =     1.0e-06
    Restart         =     Yes
    DIIS            =     Yes
    AO Basis        =     NONE
    ABCD            =     NEW
    Cache Level     =     2
    Cache Type      =     LOW
    Print Level     =     1
    Num. of threads =     1
    # Amps to Print =     10
    Print MP2 Amps? =     No
    Analyze T2 Amps =     No
    Print Pair Ener =     No
    Local CC        =     No
    SCS-MP2         =     False
    SCSN-MP2        =     False
    SCS-CCSD        =     False

MP2 correlation energy -0.3599645571641604
                Solving CC Amplitude Equations
                ------------------------------
  Iter             Energy              RMS        T1Diag      D1Diag    New D1Diag    D2Diag
  ----     ---------------------    ---------   ----------  ----------  ----------   --------
     0        -0.359964557163947    0.000e+00    0.000000    0.000000    0.000000    0.151650
     1        -0.402976915727676    2.604e-01    0.019974    0.046441    0.046441    0.187673
     2        -0.385503834578706    4.405e-02    0.012867    0.028614    0.028614    0.180667
     3        -0.379853258524371    1.144e-02    0.013170    0.030614    0.030614    0.175496
     4        -0.379584905979459    2.815e-03    0.012723    0.029471    0.029471    0.174502
     5        -0.379429186036865    7.823e-04    0.012617    0.029202    0.029202    0.174072
     6        -0.379375753731449    2.493e-04    0.012592    0.029119    0.029119    0.173934
     7        -0.379389029015464    1.010e-04    0.012592    0.029094    0.029094    0.173927
     8        -0.379390431425936    5.114e-05    0.012594    0.029089    0.029089    0.173928
     9        -0.379388332991084    2.567e-05    0.012597    0.029088    0.029088    0.173930
    10        -0.379389104110409    1.029e-05    0.012598    0.029088    0.029088    0.173932
    11        -0.379389218604260    3.943e-06    0.012598    0.029089    0.029089    0.173933
    12        -0.379389170666071    1.685e-06    0.012598    0.029089    0.029089    0.173933
    13        -0.379389193603605    6.645e-07    0.012598    0.029089    0.029089    0.173933
    14        -0.379389167887456    2.225e-07    0.012598    0.029089    0.029089    0.173932
    15        -0.379389166672891    8.042e-08    0.012598    0.029089    0.029089    0.173932
    15        -0.379389166672891    8.042e-08    0.012598    0.029089    0.029089    0.173932

    Iterations converged.


    CCSD corr. energy   =   -0.379389166672891
    PPL corr. energy    =    0.082052674746780
    OS PPL corr. energy =    0.067141761899538
    SS PPL corr. energy =    0.014910912847241
    Largest TIA Amplitudes:
              5  36        -0.0193273416
              5  39        -0.0145362158
              3  13         0.0124026688
              6  36        -0.0108504730
              3  21        -0.0107359628
              5  37        -0.0087466907
              5  35        -0.0077578596
              3   1         0.0074993625
              1  13        -0.0072140225
              3   3         0.0063622187

    Largest TIjAb Amplitudes:
      3   3   3   3        -0.0518929337
      3   3   1   1        -0.0480646585
      3   3   1   3        -0.0478909538
      3   3   3   1        -0.0478909538
      6   6  39  39        -0.0355413592
      4   4  10  10        -0.0336500770
      6   6  40  40        -0.0281441957
      6   6  38  38        -0.0256888685
      5   5  45  45        -0.0245677152
      3   3   3   6         0.0237616246

    SCF energy       (wfn)                    = -534.889883896384845
    Reference energy (file100)                = -534.889883896386209

    Opposite-spin MP2 correlation energy      =   -0.265525338069204
    Same-spin MP2 correlation energy          =   -0.094439219094743
    MP2 correlation energy                    =   -0.359964557164160
      * MP2 total energy                      = -535.249848453550385

    Opposite-spin CCSD correlation energy     =   -0.294428578003559
    Same-spin CCSD correlation energy         =   -0.084960586163921
    CCSD correlation energy                   =   -0.379389166672891
      * CCSD total energy                     = -535.269273063059131


*** tstop() called on cqc01 at Fri Apr 26 15:36:23 2019
Module time:
	user time   =       1.82 seconds =       0.03 minutes
	system time =       4.65 seconds =       0.08 minutes
	total time  =         11 seconds =       0.18 minutes
Total time:
	user time   =       3.98 seconds =       0.07 minutes
	system time =       6.64 seconds =       0.11 minutes
	total time  =         19 seconds =       0.32 minutes

*** Psi4 exiting successfully. Buy a developer a beer!
