
    -----------------------------------------------------------------------
          Psi4: An Open-Source Ab Initio Electronic Structure Package
                               Psi4 1.2a1.dev939 

                         Git: Rev {HEAD} fa1ec19 


    R. M. Parrish, L. A. Burns, D. G. A. Smith, A. C. Simmonett,
    A. E. DePrince III, E. G. Hohenstein, U. Bozkaya, A. Yu. Sokolov,
    R. Di Remigio, R. M. Richard, J. F. Gonthier, A. M. James,
    H. R. McAlexander, A. Kumar, M. Saitow, X. Wang, B. P. Pritchard,
    P. Verma, H. F. Schaefer III, K. Patkowski, R. A. King, E. F. Valeev,
    F. A. Evangelista, J. M. Turney, T. D. Crawford, and C. D. Sherrill,
    J. Chem. Theory Comput. 13(7) pp 3185--3197 (2017).
    (doi: 10.1021/acs.jctc.7b00174)

    -----------------------------------------------------------------------


    Psi4 started on: Monday, 29 April 2019 06:04AM

    Process ID:   9818
    PSIDATADIR: /home/grueneis/src/psi4/objdir/stage/usr/local/psi4/share/psi4
    Memory:     500.0 MiB
    Threads:    1
    
  ==> Input File <==

--------------------------------------------------------------------------
# Any line starting with the # character is a comment line

memory 32000 mb

molecule molecule {
0 1
Si         0.0000000000        0.0000000000       -0.5554822253
O          0.0000000000        0.0000000000        0.9750988186
}

set {
  reference rhf
  basis aug-cc-pv(Q+d)z
  scf_type OUT_OF_CORE
  freeze_core true
}

energy('ccsd')
--------------------------------------------------------------------------

  Memory set to  29.802 GiB by Python driver.

*** tstart() called on cqc01
*** at Mon Apr 29 06:04:18 2019

   => Loading Basis Set <=

    Name: AUG-CC-PV(Q+D)Z
    Role: ORBITAL
    Keyword: BASIS
    atoms 1 entry SI         line   952 file /home/grueneis/src/psi4/objdir/stage/usr/local/psi4/share/psi4/basis/aug-cc-pv_qpd_z.gbs 
    atoms 2 entry O          line   439 file /home/grueneis/src/psi4/objdir/stage/usr/local/psi4/share/psi4/basis/aug-cc-pv_qpd_z.gbs 


         ---------------------------------------------------------
                                   SCF
            by Justin Turney, Rob Parrish, Andy Simmonett
                             and Daniel Smith
                              RHF Reference
                        1 Threads,  30517 MiB Core
         ---------------------------------------------------------

  ==> Geometry <==

    Molecular point group: c2v
    Full point group: C_inf_v

    Geometry (in Angstrom), charge = 0, multiplicity = 1:

       Center              X                  Y                   Z               Mass       
    ------------   -----------------  -----------------  -----------------  -----------------
          SI          0.000000000000     0.000000000000    -0.556754333549    27.976926532460
           O          0.000000000000     0.000000000000     0.973826710351    15.994914619560

  Running in c2v symmetry.

  Rotational constants: A = ************  B =      0.70709  C =      0.70709 [cm^-1]
  Rotational constants: A = ************  B =  21198.11565  C =  21198.11565 [MHz]
  Nuclear repulsion =   38.722449620219024

  Charge       = 0
  Multiplicity = 1
  Electrons    = 22
  Nalpha       = 11
  Nbeta        = 11

  ==> Algorithm <==

  SCF Algorithm Type is OUT_OF_CORE.
  DIIS enabled.
  MOM disabled.
  Fractional occupation disabled.
  Guess Type is SAD.
  Energy threshold   = 1.00e-08
  Density threshold  = 1.00e-08
  Integral threshold = 0.00e+00

  ==> Primary Basis <==

  Basis Set: AUG-CC-PV(Q+D)Z
    Blend: AUG-CC-PV(Q+D)Z
    Number of shells: 43
    Number of basis function: 169
    Number of Cartesian functions: 220
    Spherical Harmonics?: true
    Max angular momentum: 4

  ==> Pre-Iterations <==

   -------------------------------------------------------
    Irrep   Nso     Nmo     Nalpha   Nbeta   Ndocc  Nsocc
   -------------------------------------------------------
     A1        66      66       0       0       0       0
     A2        23      23       0       0       0       0
     B1        40      40       0       0       0       0
     B2        40      40       0       0       0       0
   -------------------------------------------------------
    Total     169     169      11      11      11       0
   -------------------------------------------------------

  ==> Integral Setup <==

  ==> DiskJK: Disk-Based J/K Matrices <==

    J tasked:                  Yes
    K tasked:                  Yes
    wK tasked:                  No
    Memory (MB):             22888
    Schwarz Cutoff:          1E-12

  Minimum eigenvalue in the overlap matrix is 7.7808094983E-05.
  Using Symmetric Orthogonalization.

  SCF Guess: Superposition of Atomic Densities via on-the-fly atomic UHF.

  ==> Iterations <==

                        Total Energy        Delta E     RMS |[F,P]|

   @RHF iter   0:  -363.49642995095968   -3.63496e+02   1.69600e-02 
   @RHF iter   1:  -363.70401167799986   -2.07582e-01   6.10137e-03 
   @RHF iter   2:  -363.67730704341710    2.67046e-02   7.36795e-03 DIIS
   @RHF iter   3:  -363.84916187850007   -1.71855e-01   3.77673e-04 DIIS
   @RHF iter   4:  -363.85058375088357   -1.42187e-03   1.11218e-04 DIIS
   @RHF iter   5:  -363.85073364862234   -1.49898e-04   3.12035e-05 DIIS
   @RHF iter   6:  -363.85075282271509   -1.91741e-05   1.57795e-05 DIIS
   @RHF iter   7:  -363.85076004771008   -7.22499e-06   5.69698e-06 DIIS
   @RHF iter   8:  -363.85076101914177   -9.71432e-07   1.47059e-06 DIIS
   @RHF iter   9:  -363.85076105131770   -3.21759e-08   4.24429e-07 DIIS
   @RHF iter  10:  -363.85076105360451   -2.28681e-09   9.11697e-08 DIIS
   @RHF iter  11:  -363.85076105372002   -1.15506e-10   1.54710e-08 DIIS
   @RHF iter  12:  -363.85076105372343   -3.41061e-12   3.89264e-09 DIIS

  ==> Post-Iterations <==

    Orbital Energies (a.u.)
    -----------------------

    Doubly Occupied:                                                      

       1A1   -68.823986     2A1   -20.531238     3A1    -6.171127  
       1B1    -4.273062     1B2    -4.273062     4A1    -4.271229  
       5A1    -1.255977     6A1    -0.608306     2B2    -0.469558  
       2B1    -0.469558     7A1    -0.438050  

    Virtual:                                                              

       3B1     0.016599     3B2     0.016599     8A1     0.033366  
       9A1     0.056972     4B1     0.067475     4B2     0.067475  
      10A1     0.109788    11A1     0.115462     1A2     0.115462  
       5B2     0.130707     5B1     0.130707    12A1     0.143237  
      13A1     0.204653     6B1     0.205308     6B2     0.205308  
      14A1     0.257135     7B1     0.293053     7B2     0.293053  
      15A1     0.324006    16A1     0.325146     2A2     0.325146  
       8B2     0.326914     8B1     0.326914    17A1     0.333028  
       3A2     0.333028     9B2     0.371397     9B1     0.371397  
      18A1     0.413420    19A1     0.427957    10B2     0.465706  
      10B1     0.465706    11B2     0.605294    11B1     0.605294  
      20A1     0.605627    21A1     0.662365     4A2     0.662365  
      22A1     0.677473    23A1     0.823773     5A2     0.823773  
      12B2     0.860228    12B1     0.860228    24A1     0.889010  
      13B1     0.935788    13B2     0.935788    25A1     0.943017  
       6A2     0.943017    26A1     0.955900    14B1     1.003319  
      14B2     1.003319    27A1     1.006927     7A2     1.006927  
      15B2     1.021604    15B1     1.021604    16B2     1.045069  
      16B1     1.045069    28A1     1.131697    17B1     1.159102  
      17B2     1.159102    29A1     1.171245     8A2     1.171245  
      30A1     1.227446    31A1     1.322849    18B2     1.351977  
      18B1     1.351977    32A1     1.567266    19B2     1.594424  
      19B1     1.594424    33A1     1.702062     9A2     1.702062  
      34A1     1.716734    20B2     1.767144    20B1     1.767144  
      35A1     1.895052    10A2     1.895052    36A1     1.900331  
      37A1     2.047841    11A2     2.047841    21B2     2.116077  
      21B1     2.116077    38A1     2.148665    22B2     2.269444  
      22B1     2.269444    23B2     2.355331    23B1     2.355331  
      12A2     2.400838    39A1     2.400838    40A1     2.518892  
      41A1     2.628703    13A2     2.628703    24B2     2.639718  
      24B1     2.639718    25B2     2.677835    25B1     2.677835  
      42A1     2.837548    14A2     2.843312    43A1     2.843312  
      26B2     2.848531    26B1     2.848531    44A1     3.046828  
      27B1     3.489948    27B2     3.489948    45A1     3.727135  
      15A2     3.727135    46A1     3.890158    28B1     3.962244  
      28B2     3.962244    29B1     4.247447    29B2     4.247447  
      47A1     4.313678    16A2     4.346492    48A1     4.346492  
      30B1     4.425110    30B2     4.425110    17A2     4.549907  
      49A1     4.549907    50A1     4.642362    31B1     4.665702  
      31B2     4.665702    18A2     4.814089    51A1     4.814089  
      32B1     5.125481    32B2     5.125481    52A1     5.355659  
      53A1     5.472804    33B2     5.890424    33B1     5.890424  
      19A2     6.099012    54A1     6.099012    55A1     6.554169  
      34B2     6.979752    34B1     6.979752    56A1     8.250589  
      57A1    10.698588    20A2    10.698588    35B2    10.790232  
      35B1    10.790232    58A1    10.878885    36B1    10.937704  
      36B2    10.937704    21A2    11.012793    59A1    11.012793  
      37B1    11.090986    37B2    11.090986    60A1    11.206246  
      38B2    11.991617    38B1    11.991617    22A2    12.165887  
      61A1    12.165887    62A1    12.255675    39B1    12.478255  
      39B2    12.478255    23A2    12.923508    63A1    12.923508  
      40B1    13.389249    40B2    13.389249    64A1    13.418136  
      65A1    14.129147    66A1    42.474767  

    Final Occupation by Irrep:
             A1    A2    B1    B2 
    DOCC [     7,    0,    2,    2 ]

  Energy converged.

  @RHF Final Energy:  -363.85076105372343

   => Energetics <=

    Nuclear Repulsion Energy =             38.7224496202190238
    One-Electron Energy =                -581.9761112241083083
    Two-Electron Energy =                 179.4029005501659242
    PCM Polarization Energy =               0.0000000000000000
    Total Energy =                       -363.8507610537234314

    Alert: EFP and PCM quantities not currently incorporated into SCF psivars.

Properties will be evaluated at   0.000000,   0.000000,   0.000000 Bohr

Properties computed using the SCF density matrix

  Nuclear Dipole Moment: (a.u.)
     X:     0.0000      Y:     0.0000      Z:    -0.0075

  Electronic Dipole Moment: (a.u.)
     X:     0.0000      Y:     0.0000      Z:    -1.5046

  Dipole Moment: (a.u.)
     X:     0.0000      Y:     0.0000      Z:    -1.5120     Total:     1.5120

  Dipole Moment: (Debye)
     X:     0.0000      Y:     0.0000      Z:    -3.8431     Total:     3.8431


*** tstop() called on cqc01 at Mon Apr 29 06:05:11 2019
Module time:
	user time   =      13.90 seconds =       0.23 minutes
	system time =       5.10 seconds =       0.09 minutes
	total time  =         53 seconds =       0.88 minutes
Total time:
	user time   =      13.90 seconds =       0.23 minutes
	system time =       5.10 seconds =       0.09 minutes
	total time  =         53 seconds =       0.88 minutes

*** tstart() called on cqc01
*** at Mon Apr 29 06:05:11 2019


	Wfn Parameters:
	--------------------
	Wavefunction         = CCSD
	Number of irreps     = 4
	Number of MOs        = 169
	Number of active MOs = 163
	AO-Basis             = NONE
	Semicanonical        = false
	Reference            = RHF
	Print Level          = 1

	IRREP	# MOs	# FZDC	# DOCC	# SOCC	# VIRT	# FZVR
	-----	-----	------	------	------	------	------
	 A1	   66	    4	    3	    0	    59	    0
	 A2	   23	    0	    0	    0	    23	    0
	 B1	   40	    1	    1	    0	    38	    0
	 B2	   40	    1	    1	    0	    38	    0
	Transforming integrals...
	IWL integrals will be deleted.
	(OO|OO)...
	Presorting SO-basis two-electron integrals.
	Sorting File: SO Ints (nn|nn) nbuckets = 1
	Transforming the one-electron integrals and constructing Fock matrices
	Starting first half-transformation.
	Sorting half-transformed integrals.
	First half integral transformation complete.
	Starting second half-transformation.
	Two-electron integral transformation complete.
	(OO|OV)...
	Starting second half-transformation.
	Two-electron integral transformation complete.
	(OO|VV)...
	Starting second half-transformation.
	Two-electron integral transformation complete.
	(OV|OO)...
	Starting first half-transformation.
	Sorting half-transformed integrals.
	First half integral transformation complete.
	Starting second half-transformation.
	Two-electron integral transformation complete.
	(OV|OV)...
	Starting second half-transformation.
	Two-electron integral transformation complete.
	(OV|VV)...
	Starting second half-transformation.
	Two-electron integral transformation complete.
	(VV|OO)...
	Starting first half-transformation.
	Sorting half-transformed integrals.
	First half integral transformation complete.
	Starting second half-transformation.
	Two-electron integral transformation complete.
	(VV|OV)...
	Starting second half-transformation.
	Two-electron integral transformation complete.
	(VV|VV)...
	Starting second half-transformation.
	Two-electron integral transformation complete.
	Frozen core energy     =   -374.70659788825185

	Size of irrep 0 of <ab|cd> integrals:     47.582 (MW) /    380.659 (MB)
	Size of irrep 1 of <ab|cd> integrals:     31.382 (MW) /    251.059 (MB)
	Size of irrep 2 of <ab|cd> integrals:     38.838 (MW) /    310.703 (MB)
	Size of irrep 3 of <ab|cd> integrals:     38.838 (MW) /    310.703 (MB)
	Total:                                   156.640 (MW) /   1253.124 (MB)

	Size of irrep 0 of <ia|bc> integrals:      1.745 (MW) /     13.962 (MB)
	Size of irrep 1 of <ia|bc> integrals:      0.812 (MW) /      6.498 (MB)
	Size of irrep 2 of <ia|bc> integrals:      1.221 (MW) /      9.772 (MB)
	Size of irrep 3 of <ia|bc> integrals:      1.221 (MW) /      9.772 (MB)
	Total:                                     5.000 (MW) /     40.003 (MB)

	Size of irrep 0 of tijab amplitudes:       0.076 (MW) /      0.607 (MB)
	Size of irrep 1 of tijab amplitudes:       0.011 (MW) /      0.090 (MB)
	Size of irrep 2 of tijab amplitudes:       0.037 (MW) /      0.299 (MB)
	Size of irrep 3 of tijab amplitudes:       0.037 (MW) /      0.299 (MB)
	Total:                                     0.162 (MW) /      1.295 (MB)

	Nuclear Rep. energy          =     38.72244962021902
	SCF energy                   =   -363.85076105372343
	One-electron energy          =    -49.25032650163473
	Two-electron energy          =     21.38371371594354
	Reference energy             =   -363.85076105372400

*** tstop() called on cqc01 at Mon Apr 29 06:07:35 2019
Module time:
	user time   =      10.37 seconds =       0.17 minutes
	system time =       5.55 seconds =       0.09 minutes
	total time  =        144 seconds =       2.40 minutes
Total time:
	user time   =      24.27 seconds =       0.40 minutes
	system time =      10.65 seconds =       0.18 minutes
	total time  =        197 seconds =       3.28 minutes

*** tstart() called on cqc01
*** at Mon Apr 29 06:07:35 2019

            **************************
            *                        *
            *        CCENERGY        *
            *                        *
            **************************

    Nuclear Rep. energy (wfn)     =   38.722449620219024
    SCF energy          (wfn)     = -363.850761053723431
    Reference energy    (file100) = -363.850761053724000

    Input parameters:
    -----------------
    Wave function   =     CCSD
    Reference wfn   =     RHF
    Brueckner       =     No
    Memory (Mbytes) =     32000.0
    Maxiter         =     50
    R_Convergence   =     1.0e-07
    E_Convergence   =     1.0e-06
    Restart         =     Yes
    DIIS            =     Yes
    AO Basis        =     NONE
    ABCD            =     NEW
    Cache Level     =     2
    Cache Type      =     LOW
    Print Level     =     1
    Num. of threads =     1
    # Amps to Print =     10
    Print MP2 Amps? =     No
    Analyze T2 Amps =     No
    Print Pair Ener =     No
    Local CC        =     No
    SCS-MP2         =     False
    SCSN-MP2        =     False
    SCS-CCSD        =     False

MP2 correlation energy -0.3674023486017682
                Solving CC Amplitude Equations
                ------------------------------
  Iter             Energy              RMS        T1Diag      D1Diag    New D1Diag    D2Diag
  ----     ---------------------    ---------   ----------  ----------  ----------   --------
     0        -0.367402348601714    0.000e+00    0.000000    0.000000    0.000000    0.157178
     1        -0.361528689299283    3.326e-01    0.045173    0.093409    0.093409    0.219505
     2        -0.373469986632126    1.163e-01    0.023632    0.047993    0.047993    0.210127
     3        -0.365333443268957    3.673e-02    0.026734    0.055677    0.055677    0.203290
     4        -0.363254931089990    6.380e-03    0.025815    0.053747    0.053747    0.200641
     5        -0.363520890622440    1.819e-03    0.025510    0.053185    0.053185    0.199979
     6        -0.363467375186460    5.712e-04    0.025462    0.053111    0.053111    0.199755
     7        -0.363420196748609    2.087e-04    0.025445    0.053086    0.053086    0.199677
     8        -0.363427541012951    6.785e-05    0.025447    0.053097    0.053097    0.199679
     9        -0.363429467016986    2.555e-05    0.025450    0.053104    0.053104    0.199683
    10        -0.363428463209376    1.222e-05    0.025451    0.053108    0.053108    0.199684
    11        -0.363428633046914    4.281e-06    0.025452    0.053110    0.053110    0.199684
    12        -0.363428859449815    1.782e-06    0.025452    0.053111    0.053111    0.199684
    13        -0.363428905478296    6.935e-07    0.025453    0.053111    0.053111    0.199684
    14        -0.363428916262152    2.355e-07    0.025453    0.053112    0.053112    0.199684
    15        -0.363428923607919    9.985e-08    0.025453    0.053112    0.053112    0.199684
    15        -0.363428923607919    9.985e-08    0.025453    0.053112    0.053112    0.199684

    Iterations converged.


    CCSD corr. energy   =   -0.363428923607919
    PPL corr. energy    =    0.095269644339311
    OS PPL corr. energy =    0.080317619136352
    SS PPL corr. energy =    0.014952025202957
    Largest TIA Amplitudes:
              3  82        -0.0379000047
              4 120        -0.0378999649
              3  83         0.0276925199
              4 121         0.0276924945
              3  84         0.0132012024
              4 122         0.0132011864
              1   4         0.0120474186
              3  86        -0.0113087563
              4 124        -0.0113087488
              1  10         0.0110976447

    Largest TIjAb Amplitudes:
      2   2 120 120        -0.0579363692
      2   2  82  82        -0.0579363676
      2   2 120 121         0.0478884220
      2   2 121 120         0.0478884220
      2   2  82  83         0.0478884205
      2   2  83  82         0.0478884205
      3   3  82  82        -0.0421605882
      4   4 120 120        -0.0421605778
      2   2 121 121        -0.0401737047
      2   2  83  83        -0.0401737033

    SCF energy       (wfn)                    = -363.850761053723431
    Reference energy (file100)                = -363.850761053724000

    Opposite-spin MP2 correlation energy      =   -0.277669458595581
    Same-spin MP2 correlation energy          =   -0.089732890006133
    MP2 correlation energy                    =   -0.367402348601768
      * MP2 total energy                      = -364.218163402325786

    Opposite-spin CCSD correlation energy     =   -0.288396731022020
    Same-spin CCSD correlation energy         =   -0.075032185130633
    CCSD correlation energy                   =   -0.363428923607919
      * CCSD total energy                     = -364.214189977331898


*** tstop() called on cqc01 at Mon Apr 29 06:18:16 2019
Module time:
	user time   =       8.09 seconds =       0.13 minutes
	system time =      15.57 seconds =       0.26 minutes
	total time  =        641 seconds =      10.68 minutes
Total time:
	user time   =      32.36 seconds =       0.54 minutes
	system time =      26.22 seconds =       0.44 minutes
	total time  =        838 seconds =      13.97 minutes

*** Psi4 exiting successfully. Buy a developer a beer!
