
    -----------------------------------------------------------------------
          Psi4: An Open-Source Ab Initio Electronic Structure Package
                               Psi4 1.2a1.dev939 

                         Git: Rev {HEAD} fa1ec19 


    R. M. Parrish, L. A. Burns, D. G. A. Smith, A. C. Simmonett,
    A. E. DePrince III, E. G. Hohenstein, U. Bozkaya, A. Yu. Sokolov,
    R. Di Remigio, R. M. Richard, J. F. Gonthier, A. M. James,
    H. R. McAlexander, A. Kumar, M. Saitow, X. Wang, B. P. Pritchard,
    P. Verma, H. F. Schaefer III, K. Patkowski, R. A. King, E. F. Valeev,
    F. A. Evangelista, J. M. Turney, T. D. Crawford, and C. D. Sherrill,
    J. Chem. Theory Comput. 13(7) pp 3185--3197 (2017).
    (doi: 10.1021/acs.jctc.7b00174)

    -----------------------------------------------------------------------


    Psi4 started on: Friday, 26 April 2019 07:37PM

    Process ID:  10576
    PSIDATADIR: /home/grueneis/src/psi4/objdir/stage/usr/local/psi4/share/psi4
    Memory:     500.0 MiB
    Threads:    1
    
  ==> Input File <==

--------------------------------------------------------------------------
# Any line starting with the # character is a comment line

memory 32000 mb

molecule molecule {
0 1
Si         0.0000000000        0.0000000000       -0.5554822253
O          0.0000000000        0.0000000000        0.9750988186
}

set {
  reference rhf
  basis aug-cc-pv(T+d)z
  scf_type OUT_OF_CORE
  freeze_core true
}

energy('ccsd')
--------------------------------------------------------------------------

  Memory set to  29.802 GiB by Python driver.

*** tstart() called on cqc01
*** at Fri Apr 26 19:37:18 2019

   => Loading Basis Set <=

    Name: AUG-CC-PV(T+D)Z
    Role: ORBITAL
    Keyword: BASIS
    atoms 1 entry SI         line   760 file /home/grueneis/src/psi4/objdir/stage/usr/local/psi4/share/psi4/basis/aug-cc-pv_tpd_z.gbs 
    atoms 2 entry O          line   347 file /home/grueneis/src/psi4/objdir/stage/usr/local/psi4/share/psi4/basis/aug-cc-pv_tpd_z.gbs 


         ---------------------------------------------------------
                                   SCF
            by Justin Turney, Rob Parrish, Andy Simmonett
                             and Daniel Smith
                              RHF Reference
                        1 Threads,  30517 MiB Core
         ---------------------------------------------------------

  ==> Geometry <==

    Molecular point group: c2v
    Full point group: C_inf_v

    Geometry (in Angstrom), charge = 0, multiplicity = 1:

       Center              X                  Y                   Z               Mass       
    ------------   -----------------  -----------------  -----------------  -----------------
          SI          0.000000000000     0.000000000000    -0.556754333549    27.976926532460
           O          0.000000000000     0.000000000000     0.973826710351    15.994914619560

  Running in c2v symmetry.

  Rotational constants: A = ************  B =      0.70709  C =      0.70709 [cm^-1]
  Rotational constants: A = ************  B =  21198.11565  C =  21198.11565 [MHz]
  Nuclear repulsion =   38.722449620219024

  Charge       = 0
  Multiplicity = 1
  Electrons    = 22
  Nalpha       = 11
  Nbeta        = 11

  ==> Algorithm <==

  SCF Algorithm Type is OUT_OF_CORE.
  DIIS enabled.
  MOM disabled.
  Fractional occupation disabled.
  Guess Type is SAD.
  Energy threshold   = 1.00e-08
  Density threshold  = 1.00e-08
  Integral threshold = 0.00e+00

  ==> Primary Basis <==

  Basis Set: AUG-CC-PV(T+D)Z
    Blend: AUG-CC-PV(T+D)Z
    Number of shells: 31
    Number of basis function: 101
    Number of Cartesian functions: 120
    Spherical Harmonics?: true
    Max angular momentum: 3

  ==> Pre-Iterations <==

   -------------------------------------------------------
    Irrep   Nso     Nmo     Nalpha   Nbeta   Ndocc  Nsocc
   -------------------------------------------------------
     A1        42      42       0       0       0       0
     A2        11      11       0       0       0       0
     B1        24      24       0       0       0       0
     B2        24      24       0       0       0       0
   -------------------------------------------------------
    Total     101     101      11      11      11       0
   -------------------------------------------------------

  ==> Integral Setup <==

  ==> DiskJK: Disk-Based J/K Matrices <==

    J tasked:                  Yes
    K tasked:                  Yes
    wK tasked:                  No
    Memory (MB):             22888
    Schwarz Cutoff:          1E-12

  Minimum eigenvalue in the overlap matrix is 4.1258249849E-04.
  Using Symmetric Orthogonalization.

  SCF Guess: Superposition of Atomic Densities via on-the-fly atomic UHF.

  ==> Iterations <==

                        Total Energy        Delta E     RMS |[F,P]|

   @RHF iter   0:  -363.74347854864709   -3.63743e+02   3.16182e-02 
   @RHF iter   1:  -363.74531361414893   -1.83507e-03   7.85003e-03 
   @RHF iter   2:  -363.75350283498773   -8.18922e-03   8.75749e-03 DIIS
   @RHF iter   3:  -363.84087097092777   -8.73681e-02   6.49589e-04 DIIS
   @RHF iter   4:  -363.84269768195981   -1.82671e-03   2.86527e-04 DIIS
   @RHF iter   5:  -363.84323695501280   -5.39273e-04   1.12647e-04 DIIS
   @RHF iter   6:  -363.84336389238911   -1.26937e-04   4.57086e-05 DIIS
   @RHF iter   7:  -363.84338876276536   -2.48704e-05   1.30061e-05 DIIS
   @RHF iter   8:  -363.84339030207695   -1.53931e-06   4.67898e-06 DIIS
   @RHF iter   9:  -363.84339040391365   -1.01837e-07   7.53640e-07 DIIS
   @RHF iter  10:  -363.84339040718515   -3.27151e-09   1.07831e-07 DIIS
   @RHF iter  11:  -363.84339040724382   -5.86624e-11   1.58577e-08 DIIS
   @RHF iter  12:  -363.84339040724518   -1.36424e-12   4.40469e-09 DIIS

  ==> Post-Iterations <==

    Orbital Energies (a.u.)
    -----------------------

    Doubly Occupied:                                                      

       1A1   -68.826697     2A1   -20.534500     3A1    -6.172938  
       1B1    -4.274456     1B2    -4.274456     4A1    -4.273372  
       5A1    -1.257133     6A1    -0.608737     2B1    -0.469557  
       2B2    -0.469557     7A1    -0.438072  

    Virtual:                                                              

       3B2     0.017999     3B1     0.017999     8A1     0.047179  
       9A1     0.066752     4B1     0.083916     4B2     0.083916  
      10A1     0.132368    11A1     0.149507     1A2     0.149507  
       5B2     0.191811     5B1     0.191811    12A1     0.200722  
       6B1     0.238163     6B2     0.238163    13A1     0.271984  
      14A1     0.341898    15A1     0.434958     2A2     0.440170  
      16A1     0.440170     7B2     0.442110     7B1     0.442110  
       8B2     0.478546     8B1     0.478546     3A2     0.482623  
      17A1     0.482623     9B2     0.526994     9B1     0.526994  
      18A1     0.564856    10B2     0.634059    10B1     0.634059  
      19A1     0.652722    11B1     0.870229    11B2     0.870229  
       4A2     0.884805    20A1     0.884805    21A1     0.907344  
      22A1     0.987415     5A2     1.217066    23A1     1.217066  
      12B2     1.245690    12B1     1.245690    24A1     1.310789  
      25A1     1.384013    13B1     1.393507    13B2     1.393507  
      14B2     1.409244    14B1     1.409244     6A2     1.416919  
      26A1     1.416919    15B2     1.540160    15B1     1.540160  
      27A1     1.650055    28A1     2.132041    16B1     2.133644  
      16B2     2.133644     7A2     2.335691    29A1     2.335691  
       8A2     2.433331    30A1     2.433331    31A1     2.448087  
      17B1     2.461739    17B2     2.461739    18B2     2.682448  
      18B1     2.682448    32A1     2.698408    19B1     2.936139  
      19B2     2.936139    33A1     3.651616    34A1     4.047727  
      20B1     4.536565    20B2     4.536565    35A1     4.765436  
       9A2     4.765436    36A1     4.826167    21B2     5.014654  
      21B1     5.014654    37A1     6.167470    22B2     6.551947  
      22B1     6.551947    38A1     6.661269    10A2     6.661269  
      39A1     6.736346    23B1     6.798600    23B2     6.798600  
      40A1     7.160615    11A2     7.160615    24B1     7.327871  
      24B2     7.327871    41A1     7.534600    42A1    11.680448  

    Final Occupation by Irrep:
             A1    A2    B1    B2 
    DOCC [     7,    0,    2,    2 ]

  Energy converged.

  @RHF Final Energy:  -363.84339040724518

   => Energetics <=

    Nuclear Repulsion Energy =             38.7224496202190238
    One-Electron Energy =                -581.9327320458519353
    Two-Electron Energy =                 179.3668920183878015
    Total Energy =                       -363.8433904072451242



Properties will be evaluated at   0.000000,   0.000000,   0.000000 Bohr

Properties computed using the SCF density matrix

  Nuclear Dipole Moment: (a.u.)
     X:     0.0000      Y:     0.0000      Z:    -0.0075

  Electronic Dipole Moment: (a.u.)
     X:     0.0000      Y:     0.0000      Z:    -1.5026

  Dipole Moment: (a.u.)
     X:     0.0000      Y:     0.0000      Z:    -1.5101     Total:     1.5101

  Dipole Moment: (Debye)
     X:     0.0000      Y:     0.0000      Z:    -3.8383     Total:     3.8383


*** tstop() called on cqc01 at Fri Apr 26 19:37:22 2019
Module time:
	user time   =       2.67 seconds =       0.04 minutes
	system time =       2.12 seconds =       0.04 minutes
	total time  =          4 seconds =       0.07 minutes
Total time:
	user time   =       2.67 seconds =       0.04 minutes
	system time =       2.12 seconds =       0.04 minutes
	total time  =          4 seconds =       0.07 minutes

*** tstart() called on cqc01
*** at Fri Apr 26 19:37:22 2019


	Wfn Parameters:
	--------------------
	Wavefunction         = CCSD
	Number of irreps     = 4
	Number of MOs        = 101
	Number of active MOs = 95
	AO-Basis             = NONE
	Semicanonical        = false
	Reference            = RHF
	Print Level          = 1

	IRREP	# MOs	# FZDC	# DOCC	# SOCC	# VIRT	# FZVR
	-----	-----	------	------	------	------	------
	 A1	   42	    4	    3	    0	    35	    0
	 A2	   11	    0	    0	    0	    11	    0
	 B1	   24	    1	    1	    0	    22	    0
	 B2	   24	    1	    1	    0	    22	    0
	Transforming integrals...
	IWL integrals will be deleted.
	(OO|OO)...
	Presorting SO-basis two-electron integrals.
	Sorting File: SO Ints (nn|nn) nbuckets = 1
	Transforming the one-electron integrals and constructing Fock matrices
	Starting first half-transformation.
	Sorting half-transformed integrals.
	First half integral transformation complete.
	Starting second half-transformation.
	Two-electron integral transformation complete.
	(OO|OV)...
	Starting second half-transformation.
	Two-electron integral transformation complete.
	(OO|VV)...
	Starting second half-transformation.
	Two-electron integral transformation complete.
	(OV|OO)...
	Starting first half-transformation.
	Sorting half-transformed integrals.
	First half integral transformation complete.
	Starting second half-transformation.
	Two-electron integral transformation complete.
	(OV|OV)...
	Starting second half-transformation.
	Two-electron integral transformation complete.
	(OV|VV)...
	Starting second half-transformation.
	Two-electron integral transformation complete.
	(VV|OO)...
	Starting first half-transformation.
	Sorting half-transformed integrals.
	First half integral transformation complete.
	Starting second half-transformation.
	Two-electron integral transformation complete.
	(VV|OV)...
	Starting second half-transformation.
	Two-electron integral transformation complete.
	(VV|VV)...
	Starting second half-transformation.
	Two-electron integral transformation complete.
	Frozen core energy     =   -374.70441648540253

	Size of irrep 0 of <ab|cd> integrals:      5.355 (MW) /     42.837 (MB)
	Size of irrep 1 of <ab|cd> integrals:      3.021 (MW) /     24.165 (MB)
	Size of irrep 2 of <ab|cd> integrals:      4.097 (MW) /     32.773 (MB)
	Size of irrep 3 of <ab|cd> integrals:      4.097 (MW) /     32.773 (MB)
	Total:                                    16.568 (MW) /    132.547 (MB)

	Size of irrep 0 of <ia|bc> integrals:      0.345 (MW) /      2.758 (MB)
	Size of irrep 1 of <ia|bc> integrals:      0.134 (MW) /      1.071 (MB)
	Size of irrep 2 of <ia|bc> integrals:      0.227 (MW) /      1.814 (MB)
	Size of irrep 3 of <ia|bc> integrals:      0.227 (MW) /      1.814 (MB)
	Total:                                     0.932 (MW) /      7.456 (MB)

	Size of irrep 0 of tijab amplitudes:       0.025 (MW) /      0.204 (MB)
	Size of irrep 1 of tijab amplitudes:       0.003 (MW) /      0.028 (MB)
	Size of irrep 2 of tijab amplitudes:       0.012 (MW) /      0.097 (MB)
	Size of irrep 3 of tijab amplitudes:       0.012 (MW) /      0.097 (MB)
	Total:                                     0.053 (MW) /      0.426 (MB)

	Nuclear Rep. energy          =     38.72244962021902
	SCF energy                   =   -363.84339040724518
	One-electron energy          =    -49.23673476375303
	Two-electron energy          =     21.37531122169102
	Reference energy             =   -363.84339040724552

*** tstop() called on cqc01 at Fri Apr 26 19:37:32 2019
Module time:
	user time   =       1.13 seconds =       0.02 minutes
	system time =       0.58 seconds =       0.01 minutes
	total time  =         10 seconds =       0.17 minutes
Total time:
	user time   =       3.80 seconds =       0.06 minutes
	system time =       2.70 seconds =       0.05 minutes
	total time  =         14 seconds =       0.23 minutes

*** tstart() called on cqc01
*** at Fri Apr 26 19:37:32 2019

            **************************
            *                        *
            *        CCENERGY        *
            *                        *
            **************************

    Nuclear Rep. energy (wfn)     =   38.722449620219024
    SCF energy          (wfn)     = -363.843390407245181
    Reference energy    (file100) = -363.843390407245522

    Input parameters:
    -----------------
    Wave function   =     CCSD
    Reference wfn   =     RHF
    Brueckner       =     No
    Memory (Mbytes) =     32000.0
    Maxiter         =     50
    R_Convergence   =     1.0e-07
    E_Convergence   =     1.0e-06
    Restart         =     Yes
    DIIS            =     Yes
    AO Basis        =     NONE
    ABCD            =     NEW
    Cache Level     =     2
    Cache Type      =     LOW
    Print Level     =     1
    Num. of threads =     1
    # Amps to Print =     10
    Print MP2 Amps? =     No
    Analyze T2 Amps =     No
    Print Pair Ener =     No
    Local CC        =     No
    SCS-MP2         =     False
    SCSN-MP2        =     False
    SCS-CCSD        =     False

MP2 correlation energy -0.3459521622279075
                Solving CC Amplitude Equations
                ------------------------------
  Iter             Energy              RMS        T1Diag      D1Diag    New D1Diag    D2Diag
  ----     ---------------------    ---------   ----------  ----------  ----------   --------
     0        -0.345952162227893    0.000e+00    0.000000    0.000000    0.000000    0.155981
     1        -0.346879689900154    3.265e-01    0.046708    0.096712    0.096712    0.223105
     2        -0.355996463493295    1.172e-01    0.024782    0.050590    0.050590    0.211900
     3        -0.347251459663335    3.553e-02    0.027817    0.058099    0.058099    0.204368
     4        -0.345512852510726    6.201e-03    0.026932    0.056289    0.056289    0.201861
     5        -0.345722770277298    1.746e-03    0.026670    0.055823    0.055823    0.201242
     6        -0.345664428812143    5.744e-04    0.026639    0.055795    0.055795    0.201006
     7        -0.345618680501916    2.060e-04    0.026636    0.055805    0.055805    0.200925
     8        -0.345628587793844    7.471e-05    0.026645    0.055832    0.055832    0.200926
     9        -0.345630985302162    3.088e-05    0.026650    0.055847    0.055847    0.200930
    10        -0.345629837106206    1.509e-05    0.026654    0.055857    0.055857    0.200929
    11        -0.345630338452097    4.687e-06    0.026655    0.055860    0.055860    0.200929
    12        -0.345630598537137    1.651e-06    0.026656    0.055860    0.055860    0.200929
    13        -0.345630618220799    6.278e-07    0.026656    0.055861    0.055861    0.200929
    14        -0.345630648474607    1.990e-07    0.026656    0.055861    0.055861    0.200929
    15        -0.345630645106677    7.511e-08    0.026656    0.055861    0.055861    0.200929
    15        -0.345630645106677    7.511e-08    0.026656    0.055861    0.055861    0.200929

    Iterations converged.


    CCSD corr. energy   =   -0.345630645106677
    PPL corr. energy    =    0.087633403138773
    OS PPL corr. energy =    0.073323766118962
    SS PPL corr. energy =    0.014309637019811
    Largest TIA Amplitudes:
              3  46         0.0422825350
              4  68         0.0422825178
              3  47         0.0286457881
              4  69         0.0286457792
              4  70         0.0136442030
              3  48         0.0136442021
              1   2        -0.0127692938
              1   6        -0.0107866822
              1   5         0.0100282023
              1   4         0.0098036330

    Largest TIjAb Amplitudes:
      2   2  68  68        -0.0637138803
      2   2  46  46        -0.0637138797
      2   2  68  69        -0.0515664946
      2   2  69  68        -0.0515664946
      2   2  46  47        -0.0515664941
      2   2  47  46        -0.0515664941
      3   3  46  46        -0.0471806588
      4   4  68  68        -0.0471806531
      2   2  69  69        -0.0427230131
      2   2  47  47        -0.0427230127

    SCF energy       (wfn)                    = -363.843390407245181
    Reference energy (file100)                = -363.843390407245522

    Opposite-spin MP2 correlation energy      =   -0.258737783457991
    Same-spin MP2 correlation energy          =   -0.087214378769903
    MP2 correlation energy                    =   -0.345952162227908
      * MP2 total energy                      = -364.189342569473411

    Opposite-spin CCSD correlation energy     =   -0.272825184590669
    Same-spin CCSD correlation energy         =   -0.072805457009357
    CCSD correlation energy                   =   -0.345630645106677
      * CCSD total energy                     = -364.189021052352189


*** tstop() called on cqc01 at Fri Apr 26 19:37:42 2019
Module time:
	user time   =       1.82 seconds =       0.03 minutes
	system time =       4.81 seconds =       0.08 minutes
	total time  =         10 seconds =       0.17 minutes
Total time:
	user time   =       5.62 seconds =       0.09 minutes
	system time =       7.51 seconds =       0.13 minutes
	total time  =         24 seconds =       0.40 minutes

*** Psi4 exiting successfully. Buy a developer a beer!
