
    -----------------------------------------------------------------------
          Psi4: An Open-Source Ab Initio Electronic Structure Package
                               Psi4 1.2a1.dev938 

                         Git: Rev {HEAD} fc51d9a dirty


    R. M. Parrish, L. A. Burns, D. G. A. Smith, A. C. Simmonett,
    A. E. DePrince III, E. G. Hohenstein, U. Bozkaya, A. Yu. Sokolov,
    R. Di Remigio, R. M. Richard, J. F. Gonthier, A. M. James,
    H. R. McAlexander, A. Kumar, M. Saitow, X. Wang, B. P. Pritchard,
    P. Verma, H. F. Schaefer III, K. Patkowski, R. A. King, E. F. Valeev,
    F. A. Evangelista, J. M. Turney, T. D. Crawford, and C. D. Sherrill,
    J. Chem. Theory Comput. 13(7) pp 3185--3197 (2017).
    (doi: 10.1021/acs.jctc.7b00174)

    -----------------------------------------------------------------------


    Psi4 started on: Thursday, 20 August 2020 10:42PM

    Process ID: 425535
    PSIDATADIR: /home/irmler/Programs/psi4/beforeGrueneis3/stage/usr/local/psi4/share/psi4
    Memory:     500.0 MiB
    Threads:    4
    
  ==> Input File <==

--------------------------------------------------------------------------
# Any line starting with the # character is a comment line
memory 250000 mb
molecule molecule{
1 3
N          0.0000000000        0.0000000000        0.0000000000
}

set {
  reference uhf
  basis aug-cc-pv(q+d)z
  scf_type OUT_OF_CORE
  freeze_core true
}

energy('ccsd')
--------------------------------------------------------------------------

  Memory set to 232.831 GiB by Python driver.

*** tstart() called on cqc05
*** at Thu Aug 20 22:42:12 2020

   => Loading Basis Set <=

    Name: AUG-CC-PV(Q+D)Z
    Role: ORBITAL
    Keyword: BASIS
    atoms 1 entry N          line   379 file /home/irmler/Programs/psi4/beforeGrueneis3/stage/usr/local/psi4/share/psi4/basis/aug-cc-pv_qpd_z.gbs 


         ---------------------------------------------------------
                                   SCF
            by Justin Turney, Rob Parrish, Andy Simmonett
                             and Daniel Smith
                              UHF Reference
                        4 Threads, 238418 MiB Core
         ---------------------------------------------------------

  ==> Geometry <==

    Molecular point group: d2h
    Geometry (in Angstrom), charge = 1, multiplicity = 3:

       Center              X                  Y                   Z               Mass       
    ------------   -----------------  -----------------  -----------------  -----------------
           N          0.000000000000     0.000000000000     0.000000000000    14.003074004780

  Running in d2h symmetry.

  Rotational constants: A = ************  B = ************  C = ************ [cm^-1]
  Rotational constants: A = ************  B = ************  C = ************ [MHz]
  Nuclear repulsion =    0.000000000000000

  Charge       = 1
  Multiplicity = 3
  Electrons    = 6
  Nalpha       = 4
  Nbeta        = 2

  ==> Algorithm <==

  SCF Algorithm Type is OUT_OF_CORE.
  DIIS enabled.
  MOM disabled.
  Fractional occupation disabled.
  Guess Type is GWH.
  Energy threshold   = 1.00e-08
  Density threshold  = 1.00e-08
  Integral threshold = 0.00e+00

  ==> Primary Basis <==

  Basis Set: AUG-CC-PV(Q+D)Z
    Blend: AUG-CC-PV(Q+D)Z
    Number of shells: 20
    Number of basis function: 80
    Number of Cartesian functions: 105
    Spherical Harmonics?: true
    Max angular momentum: 4

  ==> Pre-Iterations <==

   -------------------------------------------------------
    Irrep   Nso     Nmo     Nalpha   Nbeta   Ndocc  Nsocc
   -------------------------------------------------------
     Ag        20      20       0       0       0       0
     B1g        8       8       0       0       0       0
     B2g        8       8       0       0       0       0
     B3g        8       8       0       0       0       0
     Au         3       3       0       0       0       0
     B1u       11      11       0       0       0       0
     B2u       11      11       0       0       0       0
     B3u       11      11       0       0       0       0
   -------------------------------------------------------
    Total      80      80       4       2       2       2
   -------------------------------------------------------

  ==> Integral Setup <==

  ==> DiskJK: Disk-Based J/K Matrices <==

    J tasked:                  Yes
    K tasked:                  Yes
    wK tasked:                  No
    Memory (MB):            178813
    Schwarz Cutoff:          1E-12

  Minimum eigenvalue in the overlap matrix is 3.8854434135E-03.
  Using Symmetric Orthogonalization.

  SCF Guess: Generalized Wolfsberg-Helmholtz.

  ==> Iterations <==

                        Total Energy        Delta E     RMS |[F,P]|

   @UHF iter   1:   -52.53505941847250   -5.25351e+01   1.64807e-01 
   @UHF iter   2:   -53.87366329089478   -1.33860e+00   1.56580e-02 DIIS
   @UHF iter   3:   -53.89191860827799   -1.82553e-02   2.06734e-03 DIIS
   @UHF iter   4:   -53.89310472046594   -1.18611e-03   5.75275e-04 DIIS
   @UHF iter   5:   -53.89322331686162   -1.18596e-04   9.19131e-05 DIIS
   @UHF iter   6:   -53.89322682484914   -3.50799e-06   7.28337e-06 DIIS
   @UHF iter   7:   -53.89322684271137   -1.78622e-08   5.04132e-07 DIIS
   @UHF iter   8:   -53.89322684279200   -8.06253e-11   4.80040e-08 DIIS
   @UHF iter   9:   -53.89322684279261   -6.18172e-13   4.40409e-09 DIIS

  ==> Post-Iterations <==

   @Spin Contamination Metric:   6.969907936E-03
   @S^2 Expected:                2.000000000E+00
   @S^2 Observed:                2.006969908E+00
   @S   Expected:                1.000000000E+00
   @S   Observed:                1.000000000E+00

    Orbital Energies (a.u.)
    -----------------------

    Alpha Occupied:                                                       

       1Ag   -16.320759     2Ag    -1.622936     1B3u   -1.116382  
       1B2u   -1.116382  

    Alpha Virtual:                                                        

       1B1u   -0.460426     3Ag    -0.129619     2B3u   -0.084871  
       2B2u   -0.084871     2B1u   -0.076919     4Ag     0.081393  
       1B3g    0.081933     1B2g    0.081933     5Ag     0.084229  
       1B1g    0.084229     3B2u    0.250465     3B3u    0.250465  
       3B1u    0.285153     6Ag     0.330534     4B1u    0.681493  
       4B3u    0.682871     4B2u    0.682871     5B1u    0.687084  
       1Au     0.687084     5B3u    0.694239     5B2u    0.694239  
       2B1g    0.721789     7Ag     0.721789     2B2g    0.732554  
       2B3g    0.732554     8Ag     0.737203     6B2u    1.700560  
       6B3u    1.700560     6B1u    1.747791     9Ag     2.409459  
       3B3g    2.411194     3B2g    2.411194    10Ag     2.416399  
       3B1g    2.416399    11Ag     2.419605     4B2g    2.425111  
       4B3g    2.425111    12Ag     2.437342     4B1g    2.437342  
       7B1u    2.665668     7B3u    2.668096     7B2u    2.668096  
       8B1u    2.675431     2Au     2.675431     8B3u    2.687718  
       8B2u    2.687718     5B1g    2.692597    13Ag     2.692597  
       5B2g    2.707070     5B3g    2.707070    14Ag     2.713372  
       9B3u    7.614709     9B2u    7.614709     9B1u    7.626013  
      15Ag     7.640239     6B2g    7.643471     6B3g    7.643471  
       6B1g    7.653181    16Ag     7.653181     7B2g    7.669407  
       7B3g    7.669407     7B1g    7.692201    17Ag     7.692201  
      10B1u    8.505993    10B2u    8.510180    10B3u    8.510180  
      11B1u    8.522800     3Au     8.522800    11B3u    8.544024  
      11B2u    8.544024    18Ag     8.910796     8B3g    8.913700  
       8B2g    8.913700    19Ag     8.922893     8B1g    8.922893  
      20Ag    28.937789  

    Beta Occupied:                                                        

       1Ag   -16.246308     2Ag    -1.305976  

    Beta Virtual:                                                         

       1B1u   -0.404653     1B2u   -0.327724     1B3u   -0.327724  
       3Ag    -0.119085     2B1u   -0.072433     2B2u   -0.061900  
       2B3u   -0.061900     4Ag     0.085761     1B2g    0.088426  
       1B3g    0.088426     5Ag     0.096810     1B1g    0.096810  
       3B1u    0.301207     3B2u    0.334003     3B3u    0.334003  
       6Ag     0.367745     4B1u    0.685999     4B2u    0.688068  
       4B3u    0.688068     5B1u    0.694338     1Au     0.694338  
       5B3u    0.705080     5B2u    0.705080     7Ag     0.769250  
       2B2g    0.778589     2B3g    0.778589     2B1g    0.808981  
       8Ag     0.808981     6B1u    1.778016     6B2u    1.842585  
       6B3u    1.842585     9Ag     2.418729     3B3g    2.421154  
       3B2g    2.421154    10Ag     2.428463     3B1g    2.428463  
       4B2g    2.440757     4B3g    2.440757    11Ag     2.458226  
       4B1g    2.458226    12Ag     2.505452     7B1u    2.694889  
       7B3u    2.701230     7B2u    2.701230     8B1u    2.720465  
       2Au     2.720465     8B3u    2.753530     8B2u    2.753530  
      13Ag     2.780699     5B2g    2.798505     5B3g    2.798505  
       5B1g    2.856409    14Ag     2.856409     9B1u    7.655066  
      15Ag     7.671223     6B2g    7.676567     6B3g    7.676567  
       6B1g    7.692658    16Ag     7.692658     7B2g    7.719683  
       7B3g    7.719683     9B3u    7.728697     9B2u    7.728697  
      17Ag     7.757977     7B1g    7.757977    10B1u    8.558678  
      10B2u    8.569135    10B3u    8.569135    11B1u    8.600760  
       3Au     8.600760    11B3u    8.654986    11B2u    8.654986  
      18Ag     8.972158     8B2g    8.993887     8B3g    8.993887  
      19Ag     9.060969     8B1g    9.060969    20Ag    28.985297  

    Final Occupation by Irrep:
             Ag   B1g   B2g   B3g    Au   B1u   B2u   B3u 
    DOCC [     2,    0,    0,    0,    0,    0,    0,    0 ]
    SOCC [     0,    0,    0,    0,    0,    0,    1,    1 ]

  Energy converged.

  @UHF Final Energy:   -53.89322684279261

   => Energetics <=

    Nuclear Repulsion Energy =              0.0000000000000000
    One-Electron Energy =                 -70.0577103424362804
    Two-Electron Energy =                  16.1644834996436657
    Total Energy =                        -53.8932268427926147


  UHF NO Occupations:
  HONO-2 :    2 Ag 1.9965125
  HONO-1 :    1B3u 1.0000000
  HONO-0 :    1B2u 1.0000000
  LUNO+0 :    3 Ag 0.0034875
  LUNO+1 :    4 Ag 0.0000035
  LUNO+2 :    5 Ag 0.0000000
  LUNO+3 :    2B2u 0.0000000



Properties will be evaluated at   0.000000,   0.000000,   0.000000 Bohr

Properties computed using the SCF density matrix

  Nuclear Dipole Moment: (a.u.)
     X:     0.0000      Y:     0.0000      Z:     0.0000

  Electronic Dipole Moment: (a.u.)
     X:     0.0000      Y:     0.0000      Z:     0.0000

  Dipole Moment: (a.u.)
     X:     0.0000      Y:     0.0000      Z:     0.0000     Total:     0.0000

  Dipole Moment: (Debye)
     X:     0.0000      Y:     0.0000      Z:     0.0000     Total:     0.0000


*** tstop() called on cqc05 at Thu Aug 20 22:42:13 2020
Module time:
	user time   =       1.26 seconds =       0.02 minutes
	system time =       0.04 seconds =       0.00 minutes
	total time  =          1 seconds =       0.02 minutes
Total time:
	user time   =       1.26 seconds =       0.02 minutes
	system time =       0.04 seconds =       0.00 minutes
	total time  =          1 seconds =       0.02 minutes

*** tstart() called on cqc05
*** at Thu Aug 20 22:42:13 2020


	Wfn Parameters:
	--------------------
	Wavefunction         = CCSD
	Number of irreps     = 8
	Number of MOs        = 80
	Number of active MOs = 79
	AO-Basis             = NONE
	Semicanonical        = false
	Reference            = UHF
	Print Level          = 1

	IRREP	# MOs	# FZDC	# DOCC	# SOCC	# VIRT	# FZVR
	-----	-----	------	------	------	------	------
	 Ag	   20	    1	    1	    0	    18	    0
	 B1g	   8	    0	    0	    0	    8	    0
	 B2g	   8	    0	    0	    0	    8	    0
	 B3g	   8	    0	    0	    0	    8	    0
	 Au	   3	    0	    0	    0	    3	    0
	 B1u	   11	    0	    0	    0	    11	    0
	 B2u	   11	    0	    0	    1	    10	    0
	 B3u	   11	    0	    0	    1	    10	    0
	Transforming integrals...
	IWL integrals will be deleted.
	(OO|OO)...
	Presorting SO-basis two-electron integrals.
	Sorting File: SO Ints (nn|nn) nbuckets = 1
	Transforming the one-electron integrals and constructing Fock matrices
	Starting AA/AB first half-transformation.
	Sorting AA/AB half-transformed integrals.
	Starting BB first half-transformation.
	Sorting BB half-transformed integrals.
	First half integral transformation complete.
	Starting AA second half-transformation.
	Starting AB second half-transformation.
	Starting BB second half-transformation.
	Two-electron integral transformation complete.
	(OO|OV)...
	Starting AA second half-transformation.
	Starting AB second half-transformation.
	Starting BB second half-transformation.
	Two-electron integral transformation complete.
	(OO|VV)...
	Starting AA second half-transformation.
	Starting AB second half-transformation.
	Starting BB second half-transformation.
	Two-electron integral transformation complete.
	(OV|OO)...
	Starting AA/AB first half-transformation.
	Sorting AA/AB half-transformed integrals.
	Starting BB first half-transformation.
	Sorting BB half-transformed integrals.
	First half integral transformation complete.
	Starting AA second half-transformation.
	Starting AB second half-transformation.
	Starting BB second half-transformation.
	Two-electron integral transformation complete.
	(OV|OV)...
	Starting AA second half-transformation.
	Starting AB second half-transformation.
	Starting BB second half-transformation.
	Two-electron integral transformation complete.
	(OV|VV)...
	Starting AA second half-transformation.
	Starting AB second half-transformation.
	Starting BB second half-transformation.
	Two-electron integral transformation complete.
	(VV|OO)...
	Starting AA/AB first half-transformation.
	Sorting AA/AB half-transformed integrals.
	Starting BB first half-transformation.
	Sorting BB half-transformed integrals.
	First half integral transformation complete.
	Starting AA second half-transformation.
	Starting AB second half-transformation.
	Starting BB second half-transformation.
	Two-electron integral transformation complete.
	(VV|OV)...
	Starting AA second half-transformation.
	Starting AB second half-transformation.
	Starting BB second half-transformation.
	Two-electron integral transformation complete.
	(VV|VV)...
	Starting AA second half-transformation.
	Starting AB second half-transformation.
	Starting BB second half-transformation.
	Two-electron integral transformation complete.
	Frozen core energy     =    -44.73390031284527

	Size of irrep 0 of <AB|CD> integrals:      0.148 (MW) /      1.186 (MB)
	Size of irrep 1 of <AB|CD> integrals:      0.116 (MW) /      0.930 (MB)
	Size of irrep 2 of <AB|CD> integrals:      0.121 (MW) /      0.969 (MB)
	Size of irrep 3 of <AB|CD> integrals:      0.121 (MW) /      0.969 (MB)
	Size of irrep 4 of <AB|CD> integrals:      0.091 (MW) /      0.730 (MB)
	Size of irrep 5 of <AB|CD> integrals:      0.146 (MW) /      1.167 (MB)
	Size of irrep 6 of <AB|CD> integrals:      0.138 (MW) /      1.107 (MB)
	Size of irrep 7 of <AB|CD> integrals:      0.138 (MW) /      1.107 (MB)
	Total:                                     1.021 (MW) /      8.165 (MB)

	Size of irrep 0 of <ab|cd> integrals:      0.164 (MW) /      1.312 (MB)
	Size of irrep 1 of <ab|cd> integrals:      0.131 (MW) /      1.048 (MB)
	Size of irrep 2 of <ab|cd> integrals:      0.131 (MW) /      1.048 (MB)
	Size of irrep 3 of <ab|cd> integrals:      0.131 (MW) /      1.048 (MB)
	Size of irrep 4 of <ab|cd> integrals:      0.101 (MW) /      0.809 (MB)
	Size of irrep 5 of <ab|cd> integrals:      0.158 (MW) /      1.267 (MB)
	Size of irrep 6 of <ab|cd> integrals:      0.158 (MW) /      1.267 (MB)
	Size of irrep 7 of <ab|cd> integrals:      0.158 (MW) /      1.267 (MB)
	Total:                                     1.133 (MW) /      9.068 (MB)

	Size of irrep 0 of <Ab|Cd> integrals:      0.750 (MW) /      6.000 (MB)
	Size of irrep 1 of <Ab|Cd> integrals:      0.493 (MW) /      3.942 (MB)
	Size of irrep 2 of <Ab|Cd> integrals:      0.504 (MW) /      4.033 (MB)
	Size of irrep 3 of <Ab|Cd> integrals:      0.504 (MW) /      4.033 (MB)
	Size of irrep 4 of <Ab|Cd> integrals:      0.384 (MW) /      3.075 (MB)
	Size of irrep 5 of <Ab|Cd> integrals:      0.608 (MW) /      4.867 (MB)
	Size of irrep 6 of <Ab|Cd> integrals:      0.593 (MW) /      4.743 (MB)
	Size of irrep 7 of <Ab|Cd> integrals:      0.593 (MW) /      4.743 (MB)
	Total:                                     4.430 (MW) /     35.436 (MB)

	Size of irrep 0 of <IA|BC> integrals:      0.032 (MW) /      0.257 (MB)
	Size of irrep 1 of <IA|BC> integrals:      0.019 (MW) /      0.153 (MB)
	Size of irrep 2 of <IA|BC> integrals:      0.015 (MW) /      0.122 (MB)
	Size of irrep 3 of <IA|BC> integrals:      0.015 (MW) /      0.122 (MB)
	Size of irrep 4 of <IA|BC> integrals:      0.011 (MW) /      0.092 (MB)
	Size of irrep 5 of <IA|BC> integrals:      0.021 (MW) /      0.165 (MB)
	Size of irrep 6 of <IA|BC> integrals:      0.027 (MW) /      0.214 (MB)
	Size of irrep 7 of <IA|BC> integrals:      0.027 (MW) /      0.214 (MB)
	Total:                                     0.168 (MW) /      1.340 (MB)

	Size of irrep 0 of <ia|bc> integrals:      0.016 (MW) /      0.128 (MB)
	Size of irrep 1 of <ia|bc> integrals:      0.006 (MW) /      0.046 (MB)
	Size of irrep 2 of <ia|bc> integrals:      0.006 (MW) /      0.046 (MB)
	Size of irrep 3 of <ia|bc> integrals:      0.006 (MW) /      0.046 (MB)
	Size of irrep 4 of <ia|bc> integrals:      0.002 (MW) /      0.015 (MB)
	Size of irrep 5 of <ia|bc> integrals:      0.009 (MW) /      0.070 (MB)
	Size of irrep 6 of <ia|bc> integrals:      0.009 (MW) /      0.070 (MB)
	Size of irrep 7 of <ia|bc> integrals:      0.009 (MW) /      0.070 (MB)
	Total:                                     0.062 (MW) /      0.492 (MB)

	Size of irrep 0 of <Ia|Bc> integrals:      0.035 (MW) /      0.277 (MB)
	Size of irrep 1 of <Ia|Bc> integrals:      0.021 (MW) /      0.168 (MB)
	Size of irrep 2 of <Ia|Bc> integrals:      0.016 (MW) /      0.125 (MB)
	Size of irrep 3 of <Ia|Bc> integrals:      0.016 (MW) /      0.125 (MB)
	Size of irrep 4 of <Ia|Bc> integrals:      0.012 (MW) /      0.094 (MB)
	Size of irrep 5 of <Ia|Bc> integrals:      0.021 (MW) /      0.168 (MB)
	Size of irrep 6 of <Ia|Bc> integrals:      0.028 (MW) /      0.228 (MB)
	Size of irrep 7 of <Ia|Bc> integrals:      0.028 (MW) /      0.228 (MB)
	Total:                                     0.177 (MW) /      1.414 (MB)

	Size of irrep 0 of <iA|bC> integrals:      0.016 (MW) /      0.125 (MB)
	Size of irrep 1 of <iA|bC> integrals:      0.006 (MW) /      0.045 (MB)
	Size of irrep 2 of <iA|bC> integrals:      0.006 (MW) /      0.045 (MB)
	Size of irrep 3 of <iA|bC> integrals:      0.006 (MW) /      0.045 (MB)
	Size of irrep 4 of <iA|bC> integrals:      0.002 (MW) /      0.015 (MB)
	Size of irrep 5 of <iA|bC> integrals:      0.009 (MW) /      0.069 (MB)
	Size of irrep 6 of <iA|bC> integrals:      0.008 (MW) /      0.062 (MB)
	Size of irrep 7 of <iA|bC> integrals:      0.008 (MW) /      0.062 (MB)
	Total:                                     0.058 (MW) /      0.467 (MB)

	Size of irrep 0 of tIjAb amplitudes:       0.001 (MW) /      0.007 (MB)
	Size of irrep 1 of tIjAb amplitudes:       0.000 (MW) /      0.000 (MB)
	Size of irrep 2 of tIjAb amplitudes:       0.000 (MW) /      0.000 (MB)
	Size of irrep 3 of tIjAb amplitudes:       0.000 (MW) /      0.000 (MB)
	Size of irrep 4 of tIjAb amplitudes:       0.000 (MW) /      0.000 (MB)
	Size of irrep 5 of tIjAb amplitudes:       0.000 (MW) /      0.000 (MB)
	Size of irrep 6 of tIjAb amplitudes:       0.001 (MW) /      0.006 (MB)
	Size of irrep 7 of tIjAb amplitudes:       0.001 (MW) /      0.006 (MB)
	Total:                                     0.002 (MW) /      0.019 (MB)

	Nuclear Rep. energy          =      0.00000000000000
	SCF energy                   =    -53.89322684279261
	One-electron energy          =    -13.15697679891978
	Two-electron (AA) energy     =      1.83872497972902
	Two-electron (BB) energy     =      0.00000000000000
	Two-electron (AB) energy     =      2.15892528924338
	Two-electron energy          =      3.99765026897240
	Reference energy             =    -53.89322684279264

*** tstop() called on cqc05 at Thu Aug 20 22:42:14 2020
Module time:
	user time   =       0.43 seconds =       0.01 minutes
	system time =       0.27 seconds =       0.00 minutes
	total time  =          1 seconds =       0.02 minutes
Total time:
	user time   =       1.69 seconds =       0.03 minutes
	system time =       0.31 seconds =       0.01 minutes
	total time  =          2 seconds =       0.03 minutes

*** tstart() called on cqc05
*** at Thu Aug 20 22:42:14 2020

            **************************
            *                        *
            *        CCENERGY        *
            *                        *
            **************************

    Nuclear Rep. energy (wfn)     =    0.000000000000000
    SCF energy          (wfn)     =  -53.893226842792615
    Reference energy    (file100) =  -53.893226842792643

    Input parameters:
    -----------------
    Wave function   =     CCSD
    Reference wfn   =     UHF
    Brueckner       =     No
    Memory (Mbytes) =     250000.0
    Maxiter         =     50
    R_Convergence   =     1.0e-07
    E_Convergence   =     1.0e-06
    Restart         =     Yes
    DIIS            =     Yes
    AO Basis        =     NONE
    ABCD            =     NEW
    Cache Level     =     2
    Cache Type      =     LRU
    Print Level     =     1
    Num. of threads =     4
    # Amps to Print =     10
    Print MP2 Amps? =     No
    Analyze T2 Amps =     No
    Print Pair Ener =     No
    Local CC        =     No
    SCS-MP2         =     False
    SCSN-MP2        =     False
    SCS-CCSD        =     False

MP2 correlation energy -0.0779731361965003
                Solving CC Amplitude Equations
                ------------------------------
  Iter             Energy              RMS        T1Diag      D1Diag    New D1Diag    D2Diag
  ----     ---------------------    ---------   ----------  ----------  ----------   --------
     0        -0.077973136196500    0.000e+00    0.000000    0.000000    0.000000    0.000000
     1        -0.090655661281405    3.927e-02    0.004982    0.000000    0.000000    0.000000
     2        -0.097233309807998    1.775e-02    0.008807    0.000000    0.000000    0.000000
     3        -0.097552119132896    3.526e-03    0.009487    0.000000    0.000000    0.000000
     4        -0.097582660975133    5.809e-04    0.009461    0.000000    0.000000    0.000000
     5        -0.097575358708050    9.660e-05    0.009434    0.000000    0.000000    0.000000
     6        -0.097577816503477    1.912e-05    0.009432    0.000000    0.000000    0.000000
     7        -0.097577617893844    4.297e-06    0.009432    0.000000    0.000000    0.000000
     8        -0.097577556024616    1.156e-06    0.009432    0.000000    0.000000    0.000000
     9        -0.097577582560087    2.914e-07    0.009432    0.000000    0.000000    0.000000
    10        -0.097577580747578    5.381e-08    0.009432    0.000000    0.000000    0.000000
    10        -0.097577580747578    5.381e-08    0.009432    0.000000    0.000000    0.000000

    Iterations converged.


    CCSD corr. energy   =   -0.097577580747578
    PPL corr. energy    =    0.027359046329499
    OS PPL corr. energy =    0.025127694795690
    SS PPL corr. energy =    0.002231351533809
    Largest TIA Amplitudes:
              0   5        -0.0095847373
              0  11         0.0057082156
              0   1         0.0053108445
              1  57        -0.0019854834
              2  67        -0.0019854834
              1  56        -0.0019287195
              2  66        -0.0019287195
              0   0        -0.0014873237
              0  15         0.0010104770
              1  61         0.0009295370

    Largest Tia Amplitudes:
              0   3        -0.0097888599
              0   0         0.0078615949
              0   9         0.0044896591
              0   4        -0.0011198039
              0  10        -0.0010957512
              0  15        -0.0002259720
              0   1         0.0002088849
              0   6        -0.0001978053
              0  12         0.0001804808
              0  17        -0.0000681169

    Largest TIJAB Amplitudes:
      2   1  19   4         0.0170709834
      2   1  67  57        -0.0163752630
      2   1  70  60        -0.0160386404
      2   1  67  60        -0.0141718382
      2   1  70  57        -0.0141718382
      1   0  45  35         0.0138382392
      2   0  45  27         0.0138382392
      2   1  22  10         0.0126868213
      2   1  19  10        -0.0115185433
      2   1  22   4        -0.0115185433

    Largest TIjAb Amplitudes:
      0   0  45  45        -0.1639794518
      0   0  45  47        -0.0451411149
      0   0  47  45        -0.0396665307
      1   0  35  45        -0.0387727844
      2   0  27  45        -0.0387727844
      1   0   4  56         0.0361592377
      1   0  19  67        -0.0361592377
      2   0   4  67        -0.0361592377
      2   0  19  56        -0.0361592377
      0   0  45  46        -0.0352074588

    SCF energy       (wfn)                    =  -53.893226842792615
    Reference energy (file100)                =  -53.893226842792643

    Opposite-spin MP2 correlation energy      =   -0.063983604395671
    Same-spin MP2 correlation energy          =   -0.013989531800829
    MP2 correlation energy                    =   -0.077973136196500
      * MP2 total energy                      =  -53.971199978989141

    Opposite-spin CCSD correlation energy     =   -0.082294688348858
    Same-spin CCSD correlation energy         =   -0.015282892531448
    CCSD correlation energy                   =   -0.097577580747578
      * CCSD total energy                     =  -53.990804423540219


*** tstop() called on cqc05 at Thu Aug 20 22:42:15 2020
Module time:
	user time   =       0.27 seconds =       0.00 minutes
	system time =       0.29 seconds =       0.00 minutes
	total time  =          1 seconds =       0.02 minutes
Total time:
	user time   =       1.96 seconds =       0.03 minutes
	system time =       0.60 seconds =       0.01 minutes
	total time  =          3 seconds =       0.05 minutes

*** Psi4 exiting successfully. Buy a developer a beer!
