
    -----------------------------------------------------------------------
          Psi4: An Open-Source Ab Initio Electronic Structure Package
                               Psi4 1.2a1.dev939 

                         Git: Rev {HEAD} fa1ec19 dirty


    R. M. Parrish, L. A. Burns, D. G. A. Smith, A. C. Simmonett,
    A. E. DePrince III, E. G. Hohenstein, U. Bozkaya, A. Yu. Sokolov,
    R. Di Remigio, R. M. Richard, J. F. Gonthier, A. M. James,
    H. R. McAlexander, A. Kumar, M. Saitow, X. Wang, B. P. Pritchard,
    P. Verma, H. F. Schaefer III, K. Patkowski, R. A. King, E. F. Valeev,
    F. A. Evangelista, J. M. Turney, T. D. Crawford, and C. D. Sherrill,
    J. Chem. Theory Comput. 13(7) pp 3185--3197 (2017).
    (doi: 10.1021/acs.jctc.7b00174)

    -----------------------------------------------------------------------


    Psi4 started on: Monday, 02 November 2020 10:47AM

    Process ID: 348916
    PSIDATADIR: /home/fs71337/airmler/src/psi4_uhf/build/stage/usr/local/psi4/share/psi4
    Memory:     500.0 MiB
    Threads:    48
    
  ==> Input File <==

--------------------------------------------------------------------------
# Any line starting with the # character is a comment line
memory 250000 mb
molecule molecule{
1 3
N          0.0000000000        0.0000000000        0.0000000000
}

set {
  reference uhf
  basis aug-cc-pv(6+d)z
  scf_type OUT_OF_CORE
  freeze_core true
}

energy('ccsd')
--------------------------------------------------------------------------

  Memory set to 232.831 GiB by Python driver.

*** tstart() called on n412-071.vsc4.prov
*** at Mon Nov  2 10:47:58 2020

   => Loading Basis Set <=

    Name: AUG-CC-PV(6+D)Z
    Role: ORBITAL
    Keyword: BASIS
    atoms 1 entry N          line   363 file /home/fs71337/airmler/src/psi4_uhf/build/stage/usr/local/psi4/share/psi4/basis/aug-cc-pv_6pd_z.gbs 


         ---------------------------------------------------------
                                   SCF
            by Justin Turney, Rob Parrish, Andy Simmonett
                             and Daniel Smith
                              UHF Reference
                       48 Threads, 238418 MiB Core
         ---------------------------------------------------------

  ==> Geometry <==

    Molecular point group: d2h
    Geometry (in Angstrom), charge = 1, multiplicity = 3:

       Center              X                  Y                   Z               Mass       
    ------------   -----------------  -----------------  -----------------  -----------------
           N          0.000000000000     0.000000000000     0.000000000000    14.003074004780

  Running in d2h symmetry.

  Rotational constants: A = ************  B = ************  C = ************ [cm^-1]
  Rotational constants: A = ************  B = ************  C = ************ [MHz]
  Nuclear repulsion =    0.000000000000000

  Charge       = 1
  Multiplicity = 3
  Electrons    = 6
  Nalpha       = 4
  Nbeta        = 2

  ==> Algorithm <==

  SCF Algorithm Type is OUT_OF_CORE.
  DIIS enabled.
  MOM disabled.
  Fractional occupation disabled.
  Guess Type is GWH.
  Energy threshold   = 1.00e-08
  Density threshold  = 1.00e-08
  Integral threshold = 0.00e+00

  ==> Primary Basis <==

  Basis Set: AUG-CC-PV(6+D)Z
    Blend: AUG-CC-PV(6+D)Z
    Number of shells: 35
    Number of basis function: 189
    Number of Cartesian functions: 294
    Spherical Harmonics?: true
    Max angular momentum: 6

  ==> Pre-Iterations <==

   -------------------------------------------------------
    Irrep   Nso     Nmo     Nalpha   Nbeta   Ndocc  Nsocc
   -------------------------------------------------------
     Ag        40      40       0       0       0       0
     B1g       20      20       0       0       0       0
     B2g       20      20       0       0       0       0
     B3g       20      20       0       0       0       0
     Au        11      11       0       0       0       0
     B1u       26      26       0       0       0       0
     B2u       26      26       0       0       0       0
     B3u       26      26       0       0       0       0
   -------------------------------------------------------
    Total     189     189       4       2       2       2
   -------------------------------------------------------

  ==> Integral Setup <==

  ==> DiskJK: Disk-Based J/K Matrices <==

    J tasked:                  Yes
    K tasked:                  Yes
    wK tasked:                  No
    Memory (MB):            178813
    Schwarz Cutoff:          1E-12

  Minimum eigenvalue in the overlap matrix is 6.3361002981E-04.
  Using Symmetric Orthogonalization.

  SCF Guess: Generalized Wolfsberg-Helmholtz.

  ==> Iterations <==

                        Total Energy        Delta E     RMS |[F,P]|

    Occupation by irrep:
             Ag   B1g   B2g   B3g    Au   B1u   B2u   B3u 
    DOCC [     2,    0,    0,    0,    0,    0,    0,    0 ]
    SOCC [     0,    0,    0,    0,    0,    1,    1,    0 ]

   @UHF iter   1:     7.14703051658119    7.14703e+00   4.81143e-01 
   @UHF iter   2:   -53.87364200128638   -6.10207e+01   1.00860e-02 DIIS
   @UHF iter   3:   -53.89251823841390   -1.88762e-02   1.61001e-03 DIIS
   @UHF iter   4:   -53.89383295876189   -1.31472e-03   3.97258e-04 DIIS
   @UHF iter   5:   -53.89393813993733   -1.05181e-04   5.73666e-05 DIIS
   @UHF iter   6:   -53.89394032434895   -2.18441e-06   8.59679e-06 DIIS
   @UHF iter   7:   -53.89394035365430   -2.93054e-08   7.53538e-07 DIIS
   @UHF iter   8:   -53.89394035391673   -2.62432e-10   5.28225e-08 DIIS
   @UHF iter   9:   -53.89394035391847   -1.74083e-12   3.82671e-09 DIIS

  ==> Post-Iterations <==

   @Spin Contamination Metric:   6.979410231E-03
   @S^2 Expected:                2.000000000E+00
   @S^2 Observed:                2.006979410E+00
   @S   Expected:                1.000000000E+00
   @S   Observed:                1.000000000E+00

    Orbital Energies (a.u.)
    -----------------------

    Alpha Occupied:                                                       

       1Ag   -16.320173     2Ag    -1.622853     1B1u   -1.116581  
       1B2u   -1.116581  

    Alpha Virtual:                                                        

       1B3u   -0.460407     3Ag    -0.136798     2B1u   -0.094040  
       2B2u   -0.094040     2B3u   -0.088648     4Ag     0.036209  
       1B2g    0.036866     1B1g    0.036866     5Ag     0.039254  
       1B3g    0.039254     3B1u    0.072291     3B2u    0.072291  
       3B3u    0.088321     6Ag     0.164685     4B3u    0.357376  
       4B1u    0.358225     4B2u    0.358225     5B3u    0.360790  
       1Au     0.360790     5B1u    0.365126     5B2u    0.365126  
       7Ag     0.477589     2B3g    0.477589     2B2g    0.482151  
       2B1g    0.482151     8Ag     0.484311     6B1u    0.596428  
       6B2u    0.596428     6B3u    0.629135     9Ag     1.166716  
      10Ag     1.296812     3B2g    1.297811     3B1g    1.297811  
       3B3g    1.300818    11Ag     1.300818     4B2g    1.305861  
       4B1g    1.305861     4B3g    1.312964    12Ag     1.312964  
       7B3u    1.424242     7B1u    1.426056     7B2u    1.426056  
       2Au     1.431496     8B3u    1.431496     8B1u    1.440561  
       8B2u    1.440561     5B3g    1.565925    13Ag     1.565925  
       5B2g    1.578461     5B1g    1.578461    14Ag     1.583795  
       9B2u    2.029887     9B1u    2.029887     9B3u    2.056887  
      10B3u    3.049784    10B1u    3.050850    10B2u    3.050850  
       3Au     3.054054    11B3u    3.054054    11B1u    3.059412  
      11B2u    3.059412     4Au     3.066953    12B3u    3.066953  
      12B1u    3.076718    12B2u    3.076718    13B3u    3.739861  
      13B1u    3.742748    13B2u    3.742748     5Au     3.751393  
      14B3u    3.751393    14B1u    3.765756    14B2u    3.765756  
      15Ag     3.883836     6B2g    3.886023     6B1g    3.886023  
       6B3g    3.892587    16Ag     3.892587     7B2g    3.903528  
       7B1g    3.903528     7B3g    3.918795    17Ag     3.918795  
      18Ag     4.226916     8B3g    4.234257    19Ag     4.234257  
       8B2g    4.235067     8B1g    4.235067    20Ag     4.247333  
      15B3u    5.673144    15B2u    5.674934    15B1u    5.674934  
      21Ag     6.732649     9B2g    6.733875     9B1g    6.733875  
       9B3g    6.737557    22Ag     6.737557    10B2g    6.743709  
      10B1g    6.743709    23Ag     6.752352    10B3g    6.752352  
      11B2g    6.763520    11B1g    6.763520    24Ag     6.777253  
      11B3g    6.777253    16B3u    7.846803    16B1u    7.848891  
      16B2u    7.848891     6Au     7.855165    17B3u    7.855165  
      17B1u    7.865653    17B2u    7.865653     7Au     7.880401  
      18B3u    7.880401    18B1u    7.899476    18B2u    7.899476  
      19B3u    8.771766    19B1u    8.776606    19B2u    8.776606  
       8Au     8.791152    20B3u    8.791152    20B1u    8.815477  
      20B2u    8.815477    25Ag     9.618606    12B2g    9.622196  
      12B1g    9.622196    12B3g    9.632967    26Ag     9.632967  
      13B1g    9.650924    13B2g    9.650924    13B3g    9.676064  
      27Ag     9.676064    28Ag    10.793979    14B2g   10.800952  
      14B1g   10.800952    14B3g   10.822326    29Ag    10.822326  
      30Ag    14.276571    31Ag    16.718764    15B2g   16.720870  
      15B1g   16.720870    15B3g   16.727195    32Ag    16.727195  
      16B1g   16.737758    16B2g   16.737758    16B3g   16.752587  
      33Ag    16.752587    17B1g   16.771727    17B2g   16.771727  
      17B3g   16.795232    34Ag    16.795232    21B3u   17.455509  
      21B2u   17.475469    21B1u   17.475469    22B3u   19.595548  
      22B2u   19.598705    22B1u   19.598705     9Au    19.608182  
      23B3u   19.608182    23B2u   19.624003    23B1u   19.624003  
      10Au    19.646208    24B3u   19.646208    24B1u   19.674853  
      24B2u   19.674853    25B3u   20.253136    25B2u   20.259399  
      25B1u   20.259399    11Au    20.278244    26B3u   20.278244  
      26B2u   20.309846    26B1u   20.309846    35Ag    23.265624  
      18B1g   23.270153    18B2g   23.270153    18B3g   23.283752  
      36Ag    23.283752    19B1g   23.306461    19B2g   23.306461  
      19B3g   23.338345    37Ag    23.338345    38Ag    27.387383  
      20B1g   27.397779    20B2g   27.397779    20B3g   27.429269  
      39Ag    27.429269    40Ag    74.140239  

    Beta Occupied:                                                        

       1Ag   -16.246263     2Ag    -1.305821  

    Beta Virtual:                                                         

       1B3u   -0.404641     1B1u   -0.327709     1B2u   -0.327709  
       3Ag    -0.127902     2B3u   -0.085563     2B1u   -0.078304  
       2B2u   -0.078304     4Ag     0.038719     1B1g    0.040598  
       1B2g    0.040598     1B3g    0.046424     5Ag     0.046424  
       3B3u    0.096122     3B1u    0.112817     3B2u    0.112817  
       6Ag     0.186897     4B3u    0.358558     4B2u    0.359596  
       4B1u    0.359596     1Au     0.362717     5B3u    0.362717  
       5B2u    0.368002     5B1u    0.368002     7Ag     0.502463  
       2B1g    0.508604     2B2g    0.508604     2B3g    0.528375  
       8Ag     0.528375     6B3u    0.645050     6B2u    0.678868  
       6B1u    0.678868     9Ag     1.218709    10Ag     1.299365  
       3B2g    1.300557     3B1g    1.300557     3B3g    1.304148  
      11Ag     1.304148     4B1g    1.310192     4B2g    1.310192  
      12Ag     1.318790     4B3g    1.318790     7B3u    1.435251  
       7B2u    1.438746     7B1u    1.438746     2Au     1.449231  
       8B3u    1.449231     8B2u    1.466884     8B1u    1.466884  
      13Ag     1.629250     5B1g    1.641762     5B2g    1.641762  
      14Ag     1.682273     5B3g    1.682273     9B3u    2.080037  
       9B2u    2.135548     9B1u    2.135548    10B3u    3.053763  
      10B1u    3.055031    10B2u    3.055031     3Au     3.058844  
      11B3u    3.058844    11B2u    3.065227    11B1u    3.065227  
      12B3u    3.074222     4Au     3.074222    12B1u    3.085893  
      12B2u    3.085893    13B3u    3.769535    13B2u    3.776462  
      13B1u    3.776462     5Au     3.797337    14B3u    3.797337  
      14B2u    3.832575    14B1u    3.832575    15Ag     3.898088  
       6B2g    3.901296     6B1g    3.901296     6B3g    3.910956  
      16Ag     3.910956     7B1g    3.927184     7B2g    3.927184  
      17Ag     3.950212     7B3g    3.950212    18Ag     4.288922  
       8B1g    4.311807     8B2g    4.311807    19Ag     4.313486  
       8B3g    4.369514    20Ag     4.369514    15B3u    5.700847  
      15B2u    5.776453    15B1u    5.776453    21Ag     6.739490  
       9B2g    6.740944     9B1g    6.740944     9B3g    6.745313  
      22Ag     6.745313    10B1g    6.752615    10B2g    6.752615  
      23Ag     6.762885    10B3g    6.762885    11B1g    6.776170  
      11B2g    6.776170    11B3g    6.792531    24Ag     6.792531  
      16B3u    7.861323    16B1u    7.864074    16B2u    7.864074  
       6Au     7.872342    17B3u    7.872342    17B2u    7.886180  
      17B1u    7.886180    18B3u    7.905675     7Au     7.905675  
      18B2u    7.930953    18B1u    7.930953    19B3u    8.812512  
      19B2u    8.822351    19B1u    8.822351     8Au     8.852032  
      20B3u    8.852032    20B2u    8.902127    20B1u    8.902127  
      25Ag     9.647213    12B1g    9.652750    12B2g    9.652750  
      12B3g    9.669394    26Ag     9.669394    13B1g    9.697259  
      13B2g    9.697259    27Ag     9.736564    13B3g    9.736564  
      28Ag    10.842415    14B1g   10.863764    14B2g   10.863764  
      14B3g   10.929483    29Ag    10.929483    30Ag    14.331942  
      31Ag    16.735405    15B2g   16.738009    15B1g   16.738009  
      15B3g   16.745832    32Ag    16.745832    16B1g   16.758899  
      16B2g   16.758899    33Ag    16.777259    16B3g   16.777259  
      17B1g   16.800977    17B2g   16.800977    17B3g   16.830141  
      34Ag    16.830141    21B3u   17.476196    21B2u   17.542873  
      21B1u   17.542873    22B3u   19.620629    22B2u   19.624850  
      22B1u   19.624850     9Au    19.637524    23B3u   19.637524  
      23B2u   19.658680    23B1u   19.658680    24B3u   19.688374  
      10Au    19.688374    24B1u   19.726698    24B2u   19.726698  
      25B3u   20.289993    25B2u   20.300479    25B1u   20.300479  
      11Au    20.332086    26B3u   20.332086    26B2u   20.385317  
      26B1u   20.385317    35Ag    23.296970    18B1g   23.303493  
      18B2g   23.303493    18B3g   23.323096    36Ag    23.323096  
      19B1g   23.355875    19B2g   23.355875    37Ag    23.401998  
      19B3g   23.401998    38Ag    27.417105    20B1g   27.435907  
      20B2g   27.435907    20B3g   27.493088    39Ag    27.493088  
      40Ag    74.159673  

    Final Occupation by Irrep:
             Ag   B1g   B2g   B3g    Au   B1u   B2u   B3u 
    DOCC [     2,    0,    0,    0,    0,    0,    0,    0 ]
    SOCC [     0,    0,    0,    0,    0,    1,    1,    0 ]

  Energy converged.

  @UHF Final Energy:   -53.89394035391847

   => Energetics <=

    Nuclear Repulsion Energy =              0.0000000000000000
    One-Electron Energy =                 -70.0596096006796358
    Two-Electron Energy =                  16.1656692467611620
    Total Energy =                        -53.8939403539184738


  UHF NO Occupations:
  HONO-2 :    2 Ag 1.9965082
  HONO-1 :    1B1u 1.0000000
  HONO-0 :    1B2u 1.0000000
  LUNO+0 :    3 Ag 0.0034918
  LUNO+1 :    4 Ag 0.0000040
  LUNO+2 :    2B2u 0.0000000
  LUNO+3 :    5 Ag 0.0000000



Properties will be evaluated at   0.000000,   0.000000,   0.000000 Bohr

Properties computed using the SCF density matrix

  Nuclear Dipole Moment: (a.u.)
     X:     0.0000      Y:     0.0000      Z:     0.0000

  Electronic Dipole Moment: (a.u.)
     X:     0.0000      Y:     0.0000      Z:     0.0000

  Dipole Moment: (a.u.)
     X:     0.0000      Y:     0.0000      Z:     0.0000     Total:     0.0000

  Dipole Moment: (Debye)
     X:     0.0000      Y:     0.0000      Z:     0.0000     Total:     0.0000


*** tstop() called on n412-071.vsc4.prov at Mon Nov  2 10:49:12 2020
Module time:
	user time   =     249.60 seconds =       4.16 minutes
	system time =       5.43 seconds =       0.09 minutes
	total time  =         74 seconds =       1.23 minutes
Total time:
	user time   =     249.60 seconds =       4.16 minutes
	system time =       5.43 seconds =       0.09 minutes
	total time  =         74 seconds =       1.23 minutes

*** tstart() called on n412-071.vsc4.prov
*** at Mon Nov  2 10:49:12 2020


	Wfn Parameters:
	--------------------
	Wavefunction         = CCSD
	Number of irreps     = 8
	Number of MOs        = 189
	Number of active MOs = 188
	AO-Basis             = NONE
	Semicanonical        = false
	Reference            = UHF
	Print Level          = 1

	IRREP	# MOs	# FZDC	# DOCC	# SOCC	# VIRT	# FZVR
	-----	-----	------	------	------	------	------
	 Ag	   40	    1	    1	    0	    38	    0
	 B1g	   20	    0	    0	    0	    20	    0
	 B2g	   20	    0	    0	    0	    20	    0
	 B3g	   20	    0	    0	    0	    20	    0
	 Au	   11	    0	    0	    0	    11	    0
	 B1u	   26	    0	    0	    1	    25	    0
	 B2u	   26	    0	    0	    1	    25	    0
	 B3u	   26	    0	    0	    0	    26	    0
	Transforming integrals...
	IWL integrals will be deleted.
	(OO|OO)...
	Presorting SO-basis two-electron integrals.
	Sorting File: SO Ints (nn|nn) nbuckets = 1
	Transforming the one-electron integrals and constructing Fock matrices
	Starting AA/AB first half-transformation.
	Sorting AA/AB half-transformed integrals.
	Starting BB first half-transformation.
	Sorting BB half-transformed integrals.
	First half integral transformation complete.
	Starting AA second half-transformation.
	Starting AB second half-transformation.
	Starting BB second half-transformation.
	Two-electron integral transformation complete.
	(OO|OV)...
	Starting AA second half-transformation.
	Starting AB second half-transformation.
	Starting BB second half-transformation.
	Two-electron integral transformation complete.
	(OO|VV)...
	Starting AA second half-transformation.
	Starting AB second half-transformation.
	Starting BB second half-transformation.
	Two-electron integral transformation complete.
	(OV|OO)...
	Starting AA/AB first half-transformation.
	Sorting AA/AB half-transformed integrals.
	Starting BB first half-transformation.
	Sorting BB half-transformed integrals.
	First half integral transformation complete.
	Starting AA second half-transformation.
	Starting AB second half-transformation.
	Starting BB second half-transformation.
	Two-electron integral transformation complete.
	(OV|OV)...
	Starting AA second half-transformation.
	Starting AB second half-transformation.
	Starting BB second half-transformation.
	Two-electron integral transformation complete.
	(OV|VV)...
	Starting AA second half-transformation.
	Starting AB second half-transformation.
	Starting BB second half-transformation.
	Two-electron integral transformation complete.
	(VV|OO)...
	Starting AA/AB first half-transformation.
	Sorting AA/AB half-transformed integrals.
	Starting BB first half-transformation.
	Sorting BB half-transformed integrals.
	First half integral transformation complete.
	Starting AA second half-transformation.
	Starting AB second half-transformation.
	Starting BB second half-transformation.
	Two-electron integral transformation complete.
	(VV|OV)...
	Starting AA second half-transformation.
	Starting AB second half-transformation.
	Starting BB second half-transformation.
	Two-electron integral transformation complete.
	(VV|VV)...
	Starting AA second half-transformation.
	Starting AB second half-transformation.
	Starting BB second half-transformation.
	Two-electron integral transformation complete.
	Frozen core energy     =    -44.73402470454808

	Size of irrep 0 of <AB|CD> integrals:      5.076 (MW) /     40.608 (MB)
	Size of irrep 1 of <AB|CD> integrals:      4.347 (MW) /     34.778 (MB)
	Size of irrep 2 of <AB|CD> integrals:      4.347 (MW) /     34.778 (MB)
	Size of irrep 3 of <AB|CD> integrals:      4.289 (MW) /     34.312 (MB)
	Size of irrep 4 of <AB|CD> integrals:      3.756 (MW) /     30.047 (MB)
	Size of irrep 5 of <AB|CD> integrals:      4.796 (MW) /     38.369 (MB)
	Size of irrep 6 of <AB|CD> integrals:      4.796 (MW) /     38.369 (MB)
	Size of irrep 7 of <AB|CD> integrals:      4.875 (MW) /     39.002 (MB)
	Total:                                    36.283 (MW) /    290.262 (MB)

	Size of irrep 0 of <ab|cd> integrals:      5.304 (MW) /     42.430 (MB)
	Size of irrep 1 of <ab|cd> integrals:      4.503 (MW) /     36.023 (MB)
	Size of irrep 2 of <ab|cd> integrals:      4.503 (MW) /     36.023 (MB)
	Size of irrep 3 of <ab|cd> integrals:      4.503 (MW) /     36.023 (MB)
	Size of irrep 4 of <ab|cd> integrals:      3.912 (MW) /     31.300 (MB)
	Size of irrep 5 of <ab|cd> integrals:      5.054 (MW) /     40.428 (MB)
	Size of irrep 6 of <ab|cd> integrals:      5.054 (MW) /     40.428 (MB)
	Size of irrep 7 of <ab|cd> integrals:      5.054 (MW) /     40.428 (MB)
	Total:                                    37.885 (MW) /    303.084 (MB)

	Size of irrep 0 of <Ab|Cd> integrals:     22.477 (MW) /    179.817 (MB)
	Size of irrep 1 of <Ab|Cd> integrals:     17.699 (MW) /    141.591 (MB)
	Size of irrep 2 of <Ab|Cd> integrals:     17.699 (MW) /    141.591 (MB)
	Size of irrep 3 of <Ab|Cd> integrals:     17.573 (MW) /    140.583 (MB)
	Size of irrep 4 of <Ab|Cd> integrals:     15.335 (MW) /    122.680 (MB)
	Size of irrep 5 of <Ab|Cd> integrals:     19.696 (MW) /    157.567 (MB)
	Size of irrep 6 of <Ab|Cd> integrals:     19.696 (MW) /    157.567 (MB)
	Size of irrep 7 of <Ab|Cd> integrals:     19.856 (MW) /    158.847 (MB)
	Total:                                   150.030 (MW) /   1200.243 (MB)

	Size of irrep 0 of <IA|BC> integrals:      0.413 (MW) /      3.302 (MB)
	Size of irrep 1 of <IA|BC> integrals:      0.238 (MW) /      1.902 (MB)
	Size of irrep 2 of <IA|BC> integrals:      0.238 (MW) /      1.902 (MB)
	Size of irrep 3 of <IA|BC> integrals:      0.290 (MW) /      2.320 (MB)
	Size of irrep 4 of <IA|BC> integrals:      0.198 (MW) /      1.581 (MB)
	Size of irrep 5 of <IA|BC> integrals:      0.364 (MW) /      2.908 (MB)
	Size of irrep 6 of <IA|BC> integrals:      0.364 (MW) /      2.908 (MB)
	Size of irrep 7 of <IA|BC> integrals:      0.291 (MW) /      2.332 (MB)
	Total:                                     2.394 (MW) /     19.155 (MB)

	Size of irrep 0 of <ia|bc> integrals:      0.182 (MW) /      1.457 (MB)
	Size of irrep 1 of <ia|bc> integrals:      0.085 (MW) /      0.679 (MB)
	Size of irrep 2 of <ia|bc> integrals:      0.085 (MW) /      0.679 (MB)
	Size of irrep 3 of <ia|bc> integrals:      0.085 (MW) /      0.679 (MB)
	Size of irrep 4 of <ia|bc> integrals:      0.044 (MW) /      0.348 (MB)
	Size of irrep 5 of <ia|bc> integrals:      0.117 (MW) /      0.935 (MB)
	Size of irrep 6 of <ia|bc> integrals:      0.117 (MW) /      0.935 (MB)
	Size of irrep 7 of <ia|bc> integrals:      0.117 (MW) /      0.935 (MB)
	Total:                                     0.831 (MW) /      6.648 (MB)

	Size of irrep 0 of <Ia|Bc> integrals:      0.427 (MW) /      3.414 (MB)
	Size of irrep 1 of <Ia|Bc> integrals:      0.240 (MW) /      1.918 (MB)
	Size of irrep 2 of <Ia|Bc> integrals:      0.240 (MW) /      1.918 (MB)
	Size of irrep 3 of <Ia|Bc> integrals:      0.302 (MW) /      2.415 (MB)
	Size of irrep 4 of <Ia|Bc> integrals:      0.200 (MW) /      1.598 (MB)
	Size of irrep 5 of <Ia|Bc> integrals:      0.373 (MW) /      2.982 (MB)
	Size of irrep 6 of <Ia|Bc> integrals:      0.373 (MW) /      2.982 (MB)
	Size of irrep 7 of <Ia|Bc> integrals:      0.294 (MW) /      2.353 (MB)
	Total:                                     2.448 (MW) /     19.580 (MB)

	Size of irrep 0 of <iA|bC> integrals:      0.180 (MW) /      1.441 (MB)
	Size of irrep 1 of <iA|bC> integrals:      0.084 (MW) /      0.673 (MB)
	Size of irrep 2 of <iA|bC> integrals:      0.084 (MW) /      0.673 (MB)
	Size of irrep 3 of <iA|bC> integrals:      0.084 (MW) /      0.671 (MB)
	Size of irrep 4 of <iA|bC> integrals:      0.043 (MW) /      0.345 (MB)
	Size of irrep 5 of <iA|bC> integrals:      0.111 (MW) /      0.888 (MB)
	Size of irrep 6 of <iA|bC> integrals:      0.111 (MW) /      0.888 (MB)
	Size of irrep 7 of <iA|bC> integrals:      0.116 (MW) /      0.927 (MB)
	Total:                                     0.813 (MW) /      6.505 (MB)

	Size of irrep 0 of tIjAb amplitudes:       0.005 (MW) /      0.038 (MB)
	Size of irrep 1 of tIjAb amplitudes:       0.000 (MW) /      0.000 (MB)
	Size of irrep 2 of tIjAb amplitudes:       0.000 (MW) /      0.000 (MB)
	Size of irrep 3 of tIjAb amplitudes:       0.000 (MW) /      0.000 (MB)
	Size of irrep 4 of tIjAb amplitudes:       0.000 (MW) /      0.000 (MB)
	Size of irrep 5 of tIjAb amplitudes:       0.004 (MW) /      0.036 (MB)
	Size of irrep 6 of tIjAb amplitudes:       0.004 (MW) /      0.036 (MB)
	Size of irrep 7 of tIjAb amplitudes:       0.000 (MW) /      0.000 (MB)
	Total:                                     0.014 (MW) /      0.109 (MB)

	Nuclear Rep. energy          =      0.00000000000000
	SCF energy                   =    -53.89394035391847
	One-electron energy          =    -13.15799599906534
	Two-electron (AA) energy     =      1.83902819958783
	Two-electron (BB) energy     =      0.00000000000000
	Two-electron (AB) energy     =      2.15905215010702
	Two-electron energy          =      3.99808034969485
	Reference energy             =    -53.89394035391858

*** tstop() called on n412-071.vsc4.prov at Mon Nov  2 10:50:19 2020
Module time:
	user time   =      15.62 seconds =       0.26 minutes
	system time =      14.51 seconds =       0.24 minutes
	total time  =         67 seconds =       1.12 minutes
Total time:
	user time   =     265.22 seconds =       4.42 minutes
	system time =      19.94 seconds =       0.33 minutes
	total time  =        141 seconds =       2.35 minutes

*** tstart() called on n412-071.vsc4.prov
*** at Mon Nov  2 10:50:19 2020

            **************************
            *                        *
            *        CCENERGY        *
            *                        *
            **************************

    Nuclear Rep. energy (wfn)     =    0.000000000000000
    SCF energy          (wfn)     =  -53.893940353918474
    Reference energy    (file100) =  -53.893940353918580

    Input parameters:
    -----------------
    Wave function   =     CCSD
    Reference wfn   =     UHF
    Brueckner       =     No
    Memory (Mbytes) =     250000.0
    Maxiter         =     50
    R_Convergence   =     1.0e-07
    E_Convergence   =     1.0e-06
    Restart         =     Yes
    DIIS            =     Yes
    AO Basis        =     NONE
    ABCD            =     NEW
    Cache Level     =     2
    Cache Type      =     LRU
    Print Level     =     1
    Num. of threads =     48
    # Amps to Print =     10
    Print MP2 Amps? =     No
    Analyze T2 Amps =     No
    Print Pair Ener =     No
    Local CC        =     No
    SCS-MP2         =     False
    SCSN-MP2        =     False
    SCS-CCSD        =     False

MP2 correlation energy -0.0813481178885654
                Solving CC Amplitude Equations
                ------------------------------
  Iter             Energy              RMS        T1Diag      D1Diag    New D1Diag    D2Diag
  ----     ---------------------    ---------   ----------  ----------  ----------   --------
     0        -0.081348117888565    0.000e+00    0.000000    0.000000    0.000000    0.000000
     1        -0.092834473356386    3.877e-02    0.005287    0.000000    0.000000    0.000000
     2        -0.099483398962216    1.766e-02    0.009004    0.000000    0.000000    0.000000
     3        -0.099689639647706    3.453e-03    0.009654    0.000000    0.000000    0.000000
     4        -0.099759364870368    6.208e-04    0.009644    0.000000    0.000000    0.000000
     5        -0.099747542363012    1.343e-04    0.009614    0.000000    0.000000    0.000000
     6        -0.099748820680945    2.488e-05    0.009609    0.000000    0.000000    0.000000
     7        -0.099749197851702    5.253e-06    0.009609    0.000000    0.000000    0.000000
     8        -0.099749075227880    1.540e-06    0.009609    0.000000    0.000000    0.000000
     9        -0.099749076066596    4.151e-07    0.009609    0.000000    0.000000    0.000000
    10        -0.099749075859738    1.090e-07    0.009609    0.000000    0.000000    0.000000
    11        -0.099749075997346    1.638e-08    0.009609    0.000000    0.000000    0.000000
    11        -0.099749075997346    1.638e-08    0.009609    0.000000    0.000000    0.000000

    Iterations converged.


    CCSD corr. energy   =   -0.099749075997346
    PPL corr. energy    =    0.028714766953296
    OS PPL corr. energy =    0.026385233877801
    SS PPL corr. energy =    0.002329533075496
    Largest TIA Amplitudes:
              0   5        -0.0084043225
              0  11         0.0074313017
              0   1         0.0041601280
              0  17        -0.0024766753
              0  15         0.0019280596
              1 110        -0.0017059100
              2 135        -0.0017059100
              1 109        -0.0015210797
              2 134        -0.0015210797
              0   0        -0.0012645280

    Largest Tia Amplitudes:
              0   3        -0.0092798138
              0   0         0.0075720577
              0   6         0.0069773575
              0  16        -0.0015923864
              0  15        -0.0014666323
              0  10         0.0010163029
              0   4        -0.0006045505
              0  12        -0.0002160322
              0   7        -0.0001412397
              0  22        -0.0001257879

    Largest TIJAB Amplitudes:
      2   1 138 113        -0.0147114552
      2   1  82  10        -0.0139045002
      2   1  79   4        -0.0123276074
      1   0 159  59         0.0118626590
      2   0 159  39         0.0118626590
      2   1  82   4         0.0116046065
      2   1  79  10         0.0116046065
      1   0 159  62        -0.0114249839
      2   0 159  42        -0.0114249839
      2   1 138 116        -0.0111045552

    Largest TIjAb Amplitudes:
      0   0 159 161        -0.1634106612
      0   0 159 163        -0.0387732890
      0   0 161 161        -0.0331418567
      1   0  59 161        -0.0328025363
      2   0  39 161        -0.0328025363
      1   0  62 161         0.0323668847
      2   0  42 161         0.0323668847
      0   0 159 166        -0.0318597745
      2   0   4 135         0.0309028561
      2   0  79 109        -0.0309028560

    SCF energy       (wfn)                    =  -53.893940353918474
    Reference energy (file100)                =  -53.893940353918580

    Opposite-spin MP2 correlation energy      =   -0.066935467061641
    Same-spin MP2 correlation energy          =   -0.014412650826923
    MP2 correlation energy                    =   -0.081348117888565
      * MP2 total energy                      =  -53.975288471807147

    Opposite-spin CCSD correlation energy     =   -0.084091857766253
    Same-spin CCSD correlation energy         =   -0.015657218120839
    CCSD correlation energy                   =   -0.099749075997346
      * CCSD total energy                     =  -53.993689429915925


*** tstop() called on n412-071.vsc4.prov at Mon Nov  2 10:51:06 2020
Module time:
	user time   =     922.92 seconds =      15.38 minutes
	system time =      25.43 seconds =       0.42 minutes
	total time  =         47 seconds =       0.78 minutes
Total time:
	user time   =    1188.14 seconds =      19.80 minutes
	system time =      45.37 seconds =       0.76 minutes
	total time  =        188 seconds =       3.13 minutes

*** Psi4 exiting successfully. Buy a developer a beer!
