
    -----------------------------------------------------------------------
          Psi4: An Open-Source Ab Initio Electronic Structure Package
                               Psi4 1.2a1.dev939 

                         Git: Rev {HEAD} fa1ec19 


    R. M. Parrish, L. A. Burns, D. G. A. Smith, A. C. Simmonett,
    A. E. DePrince III, E. G. Hohenstein, U. Bozkaya, A. Yu. Sokolov,
    R. Di Remigio, R. M. Richard, J. F. Gonthier, A. M. James,
    H. R. McAlexander, A. Kumar, M. Saitow, X. Wang, B. P. Pritchard,
    P. Verma, H. F. Schaefer III, K. Patkowski, R. A. King, E. F. Valeev,
    F. A. Evangelista, J. M. Turney, T. D. Crawford, and C. D. Sherrill,
    J. Chem. Theory Comput. 13(7) pp 3185--3197 (2017).
    (doi: 10.1021/acs.jctc.7b00174)

    -----------------------------------------------------------------------


    Psi4 started on: Tuesday, 30 April 2019 07:49PM

    Process ID:  29493
    PSIDATADIR: /home/grueneis/src/psi4/objdir/stage/usr/local/psi4/share/psi4
    Memory:     500.0 MiB
    Threads:    1
    
  ==> Input File <==

--------------------------------------------------------------------------
# Any line starting with the # character is a comment line

memory 32000 mb

molecule molecule {
-1 1
C          0.0000000000        0.0000000000       -0.0725642828
H          1.0380267415        0.0000000000        0.2882346175
H         -0.5190133708        0.8989575280        0.2882346175
H         -0.5190133708       -0.8989575280        0.2882346175
}

set {
  reference rhf


  basis aug-cc-pv(5+d)z
  scf_type OUT_OF_CORE
  freeze_core true
}

energy('ccsd')
--------------------------------------------------------------------------

  Memory set to  29.802 GiB by Python driver.

*** tstart() called on cqc01
*** at Tue Apr 30 19:49:12 2019

   => Loading Basis Set <=

    Name: AUG-CC-PV(5+D)Z
    Role: ORBITAL
    Keyword: BASIS
    atoms 1   entry C          line   223 file /home/grueneis/src/psi4/objdir/stage/usr/local/psi4/share/psi4/basis/aug-cc-pv_5pd_z.gbs 
    atoms 2-4 entry H          line    56 file /home/grueneis/src/psi4/objdir/stage/usr/local/psi4/share/psi4/basis/aug-cc-pv_5pd_z.gbs 


         ---------------------------------------------------------
                                   SCF
            by Justin Turney, Rob Parrish, Andy Simmonett
                             and Daniel Smith
                              RHF Reference
                        1 Threads,  30517 MiB Core
         ---------------------------------------------------------

  ==> Geometry <==

    Molecular point group: cs
    Full point group: C3v

    Geometry (in Angstrom), charge = -1, multiplicity = 1:

       Center              X                  Y                   Z               Mass       
    ------------   -----------------  -----------------  -----------------  -----------------
           C         -0.000000000003     0.072610796291     0.000000000000    12.000000000000
           H         -0.519013370764    -0.288188104009     0.898957527982     1.007825032070
           H         -0.519013370764    -0.288188104009    -0.898957527982     1.007825032070
           H          1.038026741568    -0.288188104009     0.000000000000     1.007825032070

  Running in cs symmetry.

  Rotational constants: A =      8.67487  B =      8.67487  C =      5.17456 [cm^-1]
  Rotational constants: A = 260066.11906  B = 260066.11905  C = 155129.25844 [MHz]
  Nuclear repulsion =    9.550578231555251

  Charge       = -1
  Multiplicity = 1
  Electrons    = 10
  Nalpha       = 5
  Nbeta        = 5

  ==> Algorithm <==

  SCF Algorithm Type is OUT_OF_CORE.
  DIIS enabled.
  MOM disabled.
  Fractional occupation disabled.
  Guess Type is SAD.
  Energy threshold   = 1.00e-08
  Density threshold  = 1.00e-08
  Integral threshold = 0.00e+00

  ==> Primary Basis <==

  Basis Set: AUG-CC-PV(5+D)Z
    Blend: AUG-CC-PV(5+D)Z
    Number of shells: 87
    Number of basis function: 367
    Number of Cartesian functions: 497
    Spherical Harmonics?: true
    Max angular momentum: 5

  ==> Pre-Iterations <==

   -------------------------------------------------------
    Irrep   Nso     Nmo     Nalpha   Nbeta   Ndocc  Nsocc
   -------------------------------------------------------
     A'       207     207       0       0       0       0
     A"       160     160       0       0       0       0
   -------------------------------------------------------
    Total     367     367       5       5       5       0
   -------------------------------------------------------

  ==> Integral Setup <==

  ==> DiskJK: Disk-Based J/K Matrices <==

    J tasked:                  Yes
    K tasked:                  Yes
    wK tasked:                  No
    Memory (MB):             22888
    Schwarz Cutoff:          1E-12

  Minimum eigenvalue in the overlap matrix is 6.7201145814E-06.
  Using Symmetric Orthogonalization.

  SCF Guess: Superposition of Atomic Densities via on-the-fly atomic UHF.

  ==> Iterations <==

                        Total Energy        Delta E     RMS |[F,P]|

   @RHF iter   0:   -42.28546727118942   -4.22855e+01   6.07107e-03 
   @RHF iter   1:   -38.78917537425561    3.49629e+00   3.01599e-03 
   @RHF iter   2:   -38.93276988217528   -1.43595e-01   4.09496e-03 DIIS
   @RHF iter   3:   -39.44430055625014   -5.11531e-01   1.27920e-03 DIIS
   @RHF iter   4:   -39.52082489373189   -7.65243e-02   2.23149e-04 DIIS
   @RHF iter   5:   -39.52593510166614   -5.11021e-03   6.50668e-05 DIIS
   @RHF iter   6:   -39.52639875106082   -4.63649e-04   4.92068e-05 DIIS
   @RHF iter   7:   -39.52654973886872   -1.50988e-04   1.84512e-05 DIIS
   @RHF iter   8:   -39.52657382362944   -2.40848e-05   4.96110e-06 DIIS
   @RHF iter   9:   -39.52657528594513   -1.46232e-06   2.35043e-07 DIIS
   @RHF iter  10:   -39.52657529493518   -8.99005e-09   5.67703e-08 DIIS
   @RHF iter  11:   -39.52657529538935   -4.54172e-10   1.14399e-08 DIIS
   @RHF iter  12:   -39.52657529543895   -4.96030e-11   3.75485e-09 DIIS

  ==> Post-Iterations <==

    Orbital Energies (a.u.)
    -----------------------

    Doubly Occupied:                                                      

       1Ap   -10.940191     2Ap    -0.626688     1App   -0.273166  
       3Ap    -0.273166     4Ap    -0.023572  

    Virtual:                                                              

       5Ap     0.133745     2App    0.138030     6Ap     0.138030  
       7Ap     0.198002     8Ap     0.212219     3App    0.212219  
       9Ap     0.253301     4App    0.322250    10Ap     0.322250  
      11Ap     0.334922     5App    0.334922    12Ap     0.340866  
      13Ap     0.377741     6App    0.382089    14Ap     0.384427  
       7App    0.384427     8App    0.398673    15Ap     0.398673  
      16Ap     0.407689     9App    0.442239    17Ap     0.442239  
      18Ap     0.467970    10App    0.501661    19Ap     0.501661  
      20Ap     0.549073    11App    0.598650    21Ap     0.598650  
      22Ap     0.655942    23Ap     0.666137    12App    0.666137  
      13App    0.698035    24Ap     0.698035    14App    0.755751  
      25Ap     0.757776    26Ap     0.782646    15App    0.790641  
      27Ap     0.790641    16App    0.809852    28Ap     0.816408  
      17App    0.816408    29Ap     0.821212    18App    0.832846  
      30Ap     0.832846    31Ap     0.870152    32Ap     0.886817  
      19App    0.887444    33Ap     0.887444    20App    0.925986  
      34Ap     0.925986    21App    0.948859    35Ap     0.948859  
      22App    0.982461    36Ap     1.009577    37Ap     1.031949  
      23App    1.031949    24App    1.086838    38Ap     1.086838  
      39Ap     1.135216    40Ap     1.283946    25App    1.314108  
      41Ap     1.314108    26App    1.319763    42Ap     1.367620  
      27App    1.369560    43Ap     1.369560    44Ap     1.427473  
      45Ap     1.460974    28App    1.460974    46Ap     1.509090  
      29App    1.509090    47Ap     1.510708    30App    1.556848  
      48Ap     1.556848    31App    1.577176    32App    1.590848  
      49Ap     1.590848    50Ap     1.596813    33App    1.606219  
      51Ap     1.606219    34App    1.623408    52Ap     1.623408  
      53Ap     1.692748    54Ap     1.695699    35App    1.695699  
      55Ap     1.701159    36App    1.765422    56Ap     1.765422  
      37App    1.772924    38App    1.854711    39App    1.862522  
      57Ap     1.862522    58Ap     1.866834    40App    1.950235  
      59Ap     1.950235    41App    1.997715    60Ap     1.997715  
      61Ap     2.009458    62Ap     2.093809    63Ap     2.167696  
      42App    2.167696    43App    2.219027    44App    2.241445  
      45App    2.256313    64Ap     2.256313    65Ap     2.265774  
      66Ap     2.309512    46App    2.309512    47App    2.326132  
      67Ap     2.326132    68Ap     2.383574    48App    2.402528  
      69Ap     2.402528    70Ap     2.409888    49App    2.542794  
      71Ap     2.542794    72Ap     2.638065    73Ap     2.768547  
      50App    2.768547    74Ap     2.801515    51App    2.855329  
      75Ap     2.855329    52App    2.895849    76Ap     2.944288  
      53App    3.027654    77Ap     3.027654    78Ap     3.087768  
      54App    3.132202    79Ap     3.132202    55App    3.180607  
      80Ap     3.217663    56App    3.217663    57App    3.275120  
      81Ap     3.275120    82Ap     3.320210    58App    3.362564  
      83Ap     3.362564    84Ap     3.404587    59App    3.466821  
      85Ap     3.466821    86Ap     3.530207    60App    3.530207  
      87Ap     3.547459    61App    3.579455    88Ap     3.579455  
      62App    3.581577    63App    3.665857    89Ap     3.665857  
      90Ap     3.731649    64App    3.736744    65App    3.758436  
      91Ap     3.758436    92Ap     3.785349    66App    3.785349  
      93Ap     3.817460    67App    3.840356    94Ap     3.865389  
      68App    3.866750    95Ap     3.866750    69App    3.914824  
      96Ap     3.914824    70App    3.986187    97Ap     3.986187  
      71App    4.037154    98Ap     4.037154    72App    4.045373  
      99Ap     4.115695    73App    4.150074    74App    4.238511  
     100Ap     4.238511   101Ap     4.301461   102Ap     4.413115  
      75App    4.413115   103Ap     4.450262   104Ap     4.460379  
     105Ap     4.479393    76App    4.479393   106Ap     4.501165  
      77App    4.501165    78App    4.619265    79App    4.712133  
     107Ap     4.712133   108Ap     4.733482   109Ap     4.836032  
      80App    4.860973   110Ap     4.860973   111Ap     4.965636  
      81App    5.021382   112Ap     5.021382   113Ap     5.065719  
      82App    5.065719    83App    5.103442    84App    5.111479  
     114Ap     5.111479   115Ap     5.122069    85App    5.273245  
     116Ap     5.349462   117Ap     5.454341    86App    5.454341  
      87App    5.543370   118Ap     5.543370    88App    5.624573  
      89App    5.687911   119Ap     5.687911    90App    5.750102  
     120Ap     5.750102   121Ap     5.893455   122Ap     5.921562  
     123Ap     6.086203    91App    6.086203   124Ap     6.221956  
     125Ap     6.235790    92App    6.235790   126Ap     6.329027  
      93App    6.329027    94App    6.389033    95App    6.491856  
     127Ap     6.491856   128Ap     6.498444   129Ap     6.654679  
      96App    6.688994   130Ap     6.747542    97App    6.747542  
      98App    6.801845   131Ap     6.801845   132Ap     6.978628  
      99App    7.035751   133Ap     7.035751   134Ap     7.112979  
     100App    7.112979   135Ap     7.236446   101App    7.284513  
     136Ap     7.284513   102App    7.319593   103App    7.763784  
     137Ap     7.763784   138Ap     7.830442   104App    7.867088  
     139Ap     7.867088   105App    8.087593   140Ap     8.221964  
     106App    8.221964   141Ap     8.235266   107App    8.320597  
     142Ap     8.320597   143Ap     8.551303   144Ap     8.589158  
     108App    8.589158   109App    8.744259   110App    8.756870  
     145Ap     8.756870   146Ap     9.748765   111App    9.748765  
     147Ap     9.756044   148Ap     9.944096   112App   10.150066  
     149Ap    10.150066   113App   10.449357   150Ap    10.482956  
     114App   10.482956   151Ap    10.519953   152Ap    10.755426  
     153Ap    10.814278   115App   10.814278   116App   10.889769  
     154Ap    10.889769   117App   10.975028   155Ap    10.975028  
     156Ap    10.994373   157Ap    11.339594   118App   11.339594  
     119App   11.385394   158Ap    11.504132   120App   11.638960  
     159Ap    11.638960   160Ap    11.921386   161Ap    12.087127  
     162Ap    12.175281   121App   12.175281   163Ap    12.279549  
     122App   12.279549   123App   12.638477   124App   13.372567  
     164Ap    13.372567   125App   13.453218   165Ap    13.511463  
     166Ap    13.557702   126App   13.557702   127App   13.579427  
     128App   13.580428   167Ap    13.580428   168Ap    13.672367  
     169Ap    13.719874   129App   13.721315   170Ap    13.752813  
     130App   13.752813   131App   13.840973   171Ap    13.840973  
     132App   13.923942   172Ap    13.923942   173Ap    14.008537  
     133App   14.102824   174Ap    14.102824   175Ap    14.114133  
     176Ap    14.304456   134App   14.304456   177Ap    14.540204  
     135App   14.540204   136App   14.588434   178Ap    14.739605  
     137App   14.744430   138App   14.782600   179Ap    14.782600  
     180Ap    14.903133   139App   14.903133   140App   14.989911  
     181Ap    14.989911   182Ap    15.026320   141App   15.070328  
     183Ap    15.070328   142App   15.179689   184Ap    15.196679  
     185Ap    15.220335   143App   15.220335   144App   15.409586  
     186Ap    15.409586   187Ap    15.457464   145App   15.627660  
     188Ap    15.627660   146App   15.866766   189Ap    15.944709  
     147App   15.944709   190Ap    16.011501   191Ap    16.140668  
     192Ap    16.216209   193Ap    16.242634   148App   16.242634  
     149App   16.430472   194Ap    16.430472   150App   16.529438  
     195Ap    16.529438   151App   17.019782   152App   17.236706  
     196Ap    17.236706   153App   18.302907   197Ap    18.302907  
     198Ap    18.353766   154App   18.367645   199Ap    18.599057  
     155App   18.599057   200Ap    18.640040   156App   18.655921  
     201Ap    18.655921   202Ap    19.168664   157App   19.168664  
     158App   19.260163   159App   19.679670   203Ap    19.679670  
     204Ap    19.832397   205Ap    21.287639   160App   21.693943  
     206Ap    21.693943   207Ap    42.294885  

    Final Occupation by Irrep:
             Ap   App 
    DOCC [     4,    1 ]

  Energy converged.

  @RHF Final Energy:   -39.52657529543895

   => Energetics <=

    Nuclear Repulsion Energy =              9.5505782315552512
    One-Electron Energy =                 -73.8807459874449961
    Two-Electron Energy =                  24.8035924604507940
    Total Energy =                        -39.5265752954389527



Properties will be evaluated at   0.000000,   0.000000,   0.000000 Bohr

Properties computed using the SCF density matrix

  Nuclear Dipole Moment: (a.u.)
     X:     0.0000      Y:    -0.8105      Z:     0.0000

  Electronic Dipole Moment: (a.u.)
     X:    -0.0000      Y:     0.1511      Z:     0.0000

  Dipole Moment: (a.u.)
     X:    -0.0000      Y:    -0.6594      Z:     0.0000     Total:     0.6594

  Dipole Moment: (Debye)
     X:    -0.0000      Y:    -1.6761      Z:     0.0000     Total:     1.6761


*** tstop() called on cqc01 at Tue Apr 30 20:15:29 2019
Module time:
	user time   =     493.86 seconds =       8.23 minutes
	system time =     104.59 seconds =       1.74 minutes
	total time  =       1577 seconds =      26.28 minutes
Total time:
	user time   =     493.86 seconds =       8.23 minutes
	system time =     104.59 seconds =       1.74 minutes
	total time  =       1577 seconds =      26.28 minutes

*** tstart() called on cqc01
*** at Tue Apr 30 20:15:29 2019


	Wfn Parameters:
	--------------------
	Wavefunction         = CCSD
	Number of irreps     = 2
	Number of MOs        = 367
	Number of active MOs = 366
	AO-Basis             = NONE
	Semicanonical        = false
	Reference            = RHF
	Print Level          = 1

	IRREP	# MOs	# FZDC	# DOCC	# SOCC	# VIRT	# FZVR
	-----	-----	------	------	------	------	------
	 Ap	   207	    1	    3	    0	    203	    0
	 App	   160	    0	    1	    0	    159	    0
	Transforming integrals...
	IWL integrals will be deleted.
	(OO|OO)...
	Presorting SO-basis two-electron integrals.
	Sorting File: SO Ints (nn|nn) nbuckets = 1
	Transforming the one-electron integrals and constructing Fock matrices
	Starting first half-transformation.
	Sorting half-transformed integrals.
	First half integral transformation complete.
	Starting second half-transformation.
	Two-electron integral transformation complete.
	(OO|OV)...
	Starting second half-transformation.
	Two-electron integral transformation complete.
	(OO|VV)...
	Starting second half-transformation.
	Two-electron integral transformation complete.
	(OV|OO)...
	Starting first half-transformation.
	Sorting half-transformed integrals.
	First half integral transformation complete.
	Starting second half-transformation.
	Two-electron integral transformation complete.
	(OV|OV)...
	Starting second half-transformation.
	Two-electron integral transformation complete.
	(OV|VV)...
	Starting second half-transformation.
	Two-electron integral transformation complete.
	(VV|OO)...
	Starting first half-transformation.
	Sorting half-transformed integrals.
	First half integral transformation complete.
	Starting second half-transformation.
	Two-electron integral transformation complete.
	(VV|OV)...
	Starting second half-transformation.
	Two-electron integral transformation complete.
	(VV|VV)...
	Starting second half-transformation.
	Two-electron integral transformation complete.
	Frozen core energy     =    -35.24890660721289

	Size of irrep 0 of <ab|cd> integrals:   4420.920 (MW) /  35367.361 (MB)
	Size of irrep 1 of <ab|cd> integrals:   4167.219 (MW) /  33337.751 (MB)
	Total:                                  8588.139 (MW) /  68705.112 (MB)

	Size of irrep 0 of <ia|bc> integrals:     51.064 (MW) /    408.515 (MB)
	Size of irrep 1 of <ia|bc> integrals:     43.897 (MW) /    351.174 (MB)
	Total:                                    94.961 (MW) /    759.688 (MB)

	Size of irrep 0 of tijab amplitudes:       0.665 (MW) /      5.319 (MB)
	Size of irrep 1 of tijab amplitudes:       0.387 (MW) /      3.099 (MB)
	Total:                                     1.052 (MW) /      8.418 (MB)

	Nuclear Rep. energy          =      9.55057823155525
	SCF energy                   =    -39.52657529543895
	One-electron energy          =    -25.26331025893313
	Two-electron energy          =     11.43506333913910
	Reference energy             =    -39.52657529545167

*** tstop() called on cqc01 at Tue Apr 30 21:50:33 2019
Module time:
	user time   =    1333.71 seconds =      22.23 minutes
	system time =     424.47 seconds =       7.07 minutes
	total time  =       5704 seconds =      95.07 minutes
Total time:
	user time   =    1827.57 seconds =      30.46 minutes
	system time =     529.06 seconds =       8.82 minutes
	total time  =       7281 seconds =     121.35 minutes

*** tstart() called on cqc01
*** at Tue Apr 30 21:50:33 2019

            **************************
            *                        *
            *        CCENERGY        *
            *                        *
            **************************

    Nuclear Rep. energy (wfn)     =    9.550578231555251
    SCF energy          (wfn)     =  -39.526575295438953
    Reference energy    (file100) =  -39.526575295451671

    Input parameters:
    -----------------
    Wave function   =     CCSD
    Reference wfn   =     RHF
    Brueckner       =     No
    Memory (Mbytes) =     32000.0
    Maxiter         =     50
    R_Convergence   =     1.0e-07
    E_Convergence   =     1.0e-06
    Restart         =     Yes
    DIIS            =     Yes
    AO Basis        =     NONE
    ABCD            =     NEW
    Cache Level     =     2
    Cache Type      =     LOW
    Print Level     =     1
    Num. of threads =     1
    # Amps to Print =     10
    Print MP2 Amps? =     No
    Analyze T2 Amps =     No
    Print Pair Ener =     No
    Local CC        =     No
    SCS-MP2         =     False
    SCSN-MP2        =     False
    SCS-CCSD        =     False

MP2 correlation energy -0.2313698115881495
                Solving CC Amplitude Equations
                ------------------------------
  Iter             Energy              RMS        T1Diag      D1Diag    New D1Diag    D2Diag
  ----     ---------------------    ---------   ----------  ----------  ----------   --------
     0        -0.231369811585105    0.000e+00    0.000000    0.000000    0.000000    0.165855
     1        -0.248185533063384    2.447e-01    0.020800    0.044920    0.044920    0.191332
     2        -0.244766776524005    4.883e-02    0.012974    0.029013    0.029013    0.189681
     3        -0.240914896667184    1.872e-02    0.013652    0.031663    0.031663    0.183666
     4        -0.240066857476760    5.754e-03    0.013377    0.030718    0.030718    0.182799
     5        -0.239954457477315    1.653e-03    0.013296    0.030601    0.030601    0.182446
     6        -0.239932352423907    6.660e-04    0.013297    0.030664    0.030664    0.182264
     7        -0.239913522154502    2.510e-04    0.013297    0.030673    0.030673    0.182171
     8        -0.239913362089994    1.578e-04    0.013306    0.030710    0.030710    0.182143
     9        -0.239917745877371    1.085e-04    0.013320    0.030760    0.030760    0.182136
    10        -0.239916623008101    7.668e-05    0.013338    0.030821    0.030821    0.182134
    11        -0.239915162945630    2.840e-05    0.013346    0.030847    0.030847    0.182134
    12        -0.239915921151327    1.246e-05    0.013348    0.030853    0.030853    0.182138
    13        -0.239916032181445    5.792e-06    0.013349    0.030857    0.030857    0.182139
    14        -0.239916143839609    2.745e-06    0.013349    0.030858    0.030858    0.182139
    15        -0.239916149556286    1.234e-06    0.013350    0.030859    0.030859    0.182139
    16        -0.239916125377074    5.351e-07    0.013350    0.030859    0.030859    0.182139
    17        -0.239916116438058    2.846e-07    0.013350    0.030860    0.030860    0.182139
    18        -0.239916116332680    1.173e-07    0.013350    0.030860    0.030860    0.182139
    19        -0.239916116140645    5.489e-08    0.013350    0.030860    0.030860    0.182139
    19        -0.239916116140645    5.489e-08    0.013350    0.030860    0.030860    0.182139

    Iterations converged.


    CCSD corr. energy   =   -0.239916116140645
    PPL corr. energy    =    0.070132347375505
    OS PPL corr. energy =    0.061343787991346
    SS PPL corr. energy =    0.008788559384182
    Largest TIA Amplitudes:
              2   2        -0.0210225127
              2   7        -0.0097149785
              2   0        -0.0075790648
              2  39        -0.0073866467
              2  17         0.0072816112
              3 212         0.0070307037
              1  16         0.0070306602
              2  21        -0.0064390642
              2  31        -0.0062570865
              1  29         0.0053394980

    Largest TIjAb Amplitudes:
      2   2   2   2        -0.0687302798
      2   2   2  15        -0.0414186460
      2   2  15   2        -0.0414186460
      2   2  15  15        -0.0384137665
      2   2   2  11        -0.0347373785
      2   2  11   2        -0.0347373785
      2   2   2   8         0.0333536465
      2   2   8   2         0.0333536465
      2   2  11  11        -0.0274800757
      3   3 212 212        -0.0269609598

    SCF energy       (wfn)                    =  -39.526575295438953
    Reference energy (file100)                =  -39.526575295451671

    Opposite-spin MP2 correlation energy      =   -0.185289496234783
    Same-spin MP2 correlation energy          =   -0.046080315350322
    MP2 correlation energy                    =   -0.231369811588150
      * MP2 total energy                      =  -39.757945107039824

    Opposite-spin CCSD correlation energy     =   -0.198365970040846
    Same-spin CCSD correlation energy         =   -0.041550151998881
    CCSD correlation energy                   =   -0.239916116140645
      * CCSD total energy                     =  -39.766491411592320


*** tstop() called on cqc01 at Tue Apr 30 22:46:56 2019
Module time:
	user time   =     222.07 seconds =       3.70 minutes
	system time =     423.41 seconds =       7.06 minutes
	total time  =       3383 seconds =      56.38 minutes
Total time:
	user time   =    2049.64 seconds =      34.16 minutes
	system time =     952.47 seconds =      15.87 minutes
	total time  =      10664 seconds =     177.73 minutes

*** Psi4 exiting successfully. Buy a developer a beer!
