
    -----------------------------------------------------------------------
          Psi4: An Open-Source Ab Initio Electronic Structure Package
                               Psi4 1.2a1.dev939 

                         Git: Rev {HEAD} fa1ec19 


    R. M. Parrish, L. A. Burns, D. G. A. Smith, A. C. Simmonett,
    A. E. DePrince III, E. G. Hohenstein, U. Bozkaya, A. Yu. Sokolov,
    R. Di Remigio, R. M. Richard, J. F. Gonthier, A. M. James,
    H. R. McAlexander, A. Kumar, M. Saitow, X. Wang, B. P. Pritchard,
    P. Verma, H. F. Schaefer III, K. Patkowski, R. A. King, E. F. Valeev,
    F. A. Evangelista, J. M. Turney, T. D. Crawford, and C. D. Sherrill,
    J. Chem. Theory Comput. 13(7) pp 3185--3197 (2017).
    (doi: 10.1021/acs.jctc.7b00174)

    -----------------------------------------------------------------------


    Psi4 started on: Friday, 26 April 2019 05:39PM

    Process ID:   1842
    PSIDATADIR: /home/grueneis/src/psi4/objdir/stage/usr/local/psi4/share/psi4
    Memory:     500.0 MiB
    Threads:    1
    
  ==> Input File <==

--------------------------------------------------------------------------
# Any line starting with the # character is a comment line

memory 32000 mb

molecule molecule {
-1 1
C          0.0000000000        0.0000000000       -0.0725642828
H          1.0380267415        0.0000000000        0.2882346175
H         -0.5190133708        0.8989575280        0.2882346175
H         -0.5190133708       -0.8989575280        0.2882346175
}

set {
  reference rhf
  basis aug-cc-pv(T+d)z
  scf_type OUT_OF_CORE
  freeze_core true
}

energy('ccsd')
--------------------------------------------------------------------------

  Memory set to  29.802 GiB by Python driver.

*** tstart() called on cqc01
*** at Fri Apr 26 17:39:06 2019

   => Loading Basis Set <=

    Name: AUG-CC-PV(T+D)Z
    Role: ORBITAL
    Keyword: BASIS
    atoms 1   entry C          line   255 file /home/grueneis/src/psi4/objdir/stage/usr/local/psi4/share/psi4/basis/aug-cc-pv_tpd_z.gbs 
    atoms 2-4 entry H          line    56 file /home/grueneis/src/psi4/objdir/stage/usr/local/psi4/share/psi4/basis/aug-cc-pv_tpd_z.gbs 


         ---------------------------------------------------------
                                   SCF
            by Justin Turney, Rob Parrish, Andy Simmonett
                             and Daniel Smith
                              RHF Reference
                        1 Threads,  30517 MiB Core
         ---------------------------------------------------------

  ==> Geometry <==

    Molecular point group: cs
    Full point group: C3v

    Geometry (in Angstrom), charge = -1, multiplicity = 1:

       Center              X                  Y                   Z               Mass       
    ------------   -----------------  -----------------  -----------------  -----------------
           C         -0.000000000003     0.072610796291     0.000000000000    12.000000000000
           H         -0.519013370764    -0.288188104009     0.898957527982     1.007825032070
           H         -0.519013370764    -0.288188104009    -0.898957527982     1.007825032070
           H          1.038026741568    -0.288188104009     0.000000000000     1.007825032070

  Running in cs symmetry.

  Rotational constants: A =      8.67487  B =      8.67487  C =      5.17456 [cm^-1]
  Rotational constants: A = 260066.11906  B = 260066.11905  C = 155129.25844 [MHz]
  Nuclear repulsion =    9.550578231555251

  Charge       = -1
  Multiplicity = 1
  Electrons    = 10
  Nalpha       = 5
  Nbeta        = 5

  ==> Algorithm <==

  SCF Algorithm Type is OUT_OF_CORE.
  DIIS enabled.
  MOM disabled.
  Fractional occupation disabled.
  Guess Type is SAD.
  Energy threshold   = 1.00e-08
  Density threshold  = 1.00e-08
  Integral threshold = 0.00e+00

  ==> Primary Basis <==

  Basis Set: AUG-CC-PV(T+D)Z
    Blend: AUG-CC-PV(T+D)Z
    Number of shells: 41
    Number of basis function: 115
    Number of Cartesian functions: 130
    Spherical Harmonics?: true
    Max angular momentum: 3

  ==> Pre-Iterations <==

   -------------------------------------------------------
    Irrep   Nso     Nmo     Nalpha   Nbeta   Ndocc  Nsocc
   -------------------------------------------------------
     A'        69      69       0       0       0       0
     A"        46      46       0       0       0       0
   -------------------------------------------------------
    Total     115     115       5       5       5       0
   -------------------------------------------------------

  ==> Integral Setup <==

  ==> DiskJK: Disk-Based J/K Matrices <==

    J tasked:                  Yes
    K tasked:                  Yes
    wK tasked:                  No
    Memory (MB):             22888
    Schwarz Cutoff:          1E-12

  Minimum eigenvalue in the overlap matrix is 1.3619015493E-04.
  Using Symmetric Orthogonalization.

  SCF Guess: Superposition of Atomic Densities via on-the-fly atomic UHF.

  ==> Iterations <==

                        Total Energy        Delta E     RMS |[F,P]|

   @RHF iter   0:   -42.25177739089455   -4.22518e+01   1.86003e-02 
   @RHF iter   1:   -38.83791154578214    3.41387e+00   9.13600e-03 
   @RHF iter   2:   -38.96377650288184   -1.25865e-01   1.24685e-02 DIIS
   @RHF iter   3:   -39.44615541106523   -4.82379e-01   3.90466e-03 DIIS
   @RHF iter   4:   -39.51813712979960   -7.19817e-02   6.99848e-04 DIIS
   @RHF iter   5:   -39.52287777331146   -4.74064e-03   1.63354e-04 DIIS
   @RHF iter   6:   -39.52320641013359   -3.28637e-04   1.24922e-04 DIIS
   @RHF iter   7:   -39.52330969748464   -1.03287e-04   4.19929e-05 DIIS
   @RHF iter   8:   -39.52332401654959   -1.43191e-05   9.90130e-06 DIIS
   @RHF iter   9:   -39.52332481226151   -7.95712e-07   1.04341e-06 DIIS
   @RHF iter  10:   -39.52332487476047   -6.24990e-08   7.92691e-07 DIIS
   @RHF iter  11:   -39.52332489457051   -1.98100e-08   2.31487e-07 DIIS
   @RHF iter  12:   -39.52332489585855   -1.28804e-09   4.02209e-08 DIIS
   @RHF iter  13:   -39.52332489588819   -2.96367e-11   6.94623e-09 DIIS

  ==> Post-Iterations <==

    Orbital Energies (a.u.)
    -----------------------

    Doubly Occupied:                                                      

       1Ap   -10.938437     2Ap    -0.624461     3Ap    -0.270594  
       1App   -0.270594     4Ap    -0.022359  

    Virtual:                                                              

       5Ap     0.153054     6Ap     0.160872     2App    0.160872  
       7Ap     0.252857     3App    0.271568     8Ap     0.271568  
       9Ap     0.304391    10Ap     0.407509     4App    0.407509  
      11Ap     0.434795     5App    0.434795    12Ap     0.451245  
      13Ap     0.518515    14Ap     0.519505     6App    0.519505  
       7App    0.526083    15Ap     0.566827     8App    0.566827  
      16Ap     0.578864    17Ap     0.598466     9App    0.635717  
      18Ap     0.635717    19Ap     0.684588    10App    0.684588  
      20Ap     0.881881    21Ap     0.890896    11App    0.890896  
      22Ap     0.978219    23Ap     1.061820    12App    1.061820  
      13App    1.099127    24Ap     1.099127    14App    1.100051  
      25Ap     1.135034    26Ap     1.188124    15App    1.188124  
      27Ap     1.196113    28Ap     1.232332    16App    1.232332  
      29Ap     1.257477    17App    1.307940    30Ap     1.311192  
      18App    1.311192    31Ap     1.346257    19App    1.346257  
      32Ap     1.352128    20App    1.429224    33Ap     1.429224  
      34Ap     1.570443    35Ap     1.689907    21App    1.689907  
      36Ap     1.781837    22App    1.781837    37Ap     1.796697  
      23App    1.854673    38Ap     1.884438    24App    1.884438  
      39Ap     1.925001    40Ap     2.110748    25App    2.110748  
      26App    2.179304    41Ap     2.228047    42Ap     2.258713  
      27App    2.258713    43Ap     2.432143    28App    2.432143  
      44Ap     2.515219    45Ap     3.174126    46Ap     3.306591  
      29App    3.306591    47Ap     3.383542    48Ap     3.695059  
      30App    3.695059    49Ap     3.752193    31App    3.835013  
      50Ap     3.838806    32App    3.838806    33App    3.928093  
      51Ap     3.928093    52Ap     4.010240    34App    4.086257  
      53Ap     4.086257    35App    4.248598    54Ap     4.248598  
      55Ap     4.252177    36App    4.308353    37App    4.360560  
      56Ap     4.360560    57Ap     4.659409    38App    4.659409  
      58Ap     4.663191    59Ap     4.918802    60Ap     4.978699  
      39App    4.978699    40App    5.098140    61Ap     5.101465  
      41App    5.101465    62Ap     5.341167    63Ap     5.372130  
      42App    5.372130    64Ap     5.621660    65Ap     5.718906  
      43App    5.718906    44App    5.901291    66Ap     6.054787  
      45App    6.256836    67Ap     6.256836    46App    6.807676  
      68Ap     6.807676    69Ap    16.424945  

    Final Occupation by Irrep:
             Ap   App 
    DOCC [     4,    1 ]

  Energy converged.

  @RHF Final Energy:   -39.52332489588819

   => Energetics <=

    Nuclear Repulsion Energy =              9.5505782315552512
    One-Electron Energy =                 -73.8949111951843634
    Two-Electron Energy =                  24.8210080677409266
    Total Energy =                        -39.5233248958881873



Properties will be evaluated at   0.000000,   0.000000,   0.000000 Bohr

Properties computed using the SCF density matrix

  Nuclear Dipole Moment: (a.u.)
     X:     0.0000      Y:    -0.8105      Z:     0.0000

  Electronic Dipole Moment: (a.u.)
     X:     0.0000      Y:     0.1598      Z:     0.0000

  Dipole Moment: (a.u.)
     X:     0.0000      Y:    -0.6507      Z:     0.0000     Total:     0.6507

  Dipole Moment: (Debye)
     X:     0.0000      Y:    -1.6540      Z:     0.0000     Total:     1.6540


*** tstop() called on cqc01 at Fri Apr 26 17:39:17 2019
Module time:
	user time   =       4.72 seconds =       0.08 minutes
	system time =       1.65 seconds =       0.03 minutes
	total time  =         11 seconds =       0.18 minutes
Total time:
	user time   =       4.72 seconds =       0.08 minutes
	system time =       1.65 seconds =       0.03 minutes
	total time  =         11 seconds =       0.18 minutes

*** tstart() called on cqc01
*** at Fri Apr 26 17:39:17 2019


	Wfn Parameters:
	--------------------
	Wavefunction         = CCSD
	Number of irreps     = 2
	Number of MOs        = 115
	Number of active MOs = 114
	AO-Basis             = NONE
	Semicanonical        = false
	Reference            = RHF
	Print Level          = 1

	IRREP	# MOs	# FZDC	# DOCC	# SOCC	# VIRT	# FZVR
	-----	-----	------	------	------	------	------
	 Ap	   69	    1	    3	    0	    65	    0
	 App	   46	    0	    1	    0	    45	    0
	Transforming integrals...
	IWL integrals will be deleted.
	(OO|OO)...
	Presorting SO-basis two-electron integrals.
	Sorting File: SO Ints (nn|nn) nbuckets = 1
	Transforming the one-electron integrals and constructing Fock matrices
	Starting first half-transformation.
	Sorting half-transformed integrals.
	First half integral transformation complete.
	Starting second half-transformation.
	Two-electron integral transformation complete.
	(OO|OV)...
	Starting second half-transformation.
	Two-electron integral transformation complete.
	(OO|VV)...
	Starting second half-transformation.
	Two-electron integral transformation complete.
	(OV|OO)...
	Starting first half-transformation.
	Sorting half-transformed integrals.
	First half integral transformation complete.
	Starting second half-transformation.
	Two-electron integral transformation complete.
	(OV|OV)...
	Starting second half-transformation.
	Two-electron integral transformation complete.
	(OV|VV)...
	Starting second half-transformation.
	Two-electron integral transformation complete.
	(VV|OO)...
	Starting first half-transformation.
	Sorting half-transformed integrals.
	First half integral transformation complete.
	Starting second half-transformation.
	Two-electron integral transformation complete.
	(VV|OV)...
	Starting second half-transformation.
	Two-electron integral transformation complete.
	(VV|VV)...
	Starting second half-transformation.
	Two-electron integral transformation complete.
	Frozen core energy     =    -35.24811967568828

	Size of irrep 0 of <ab|cd> integrals:     39.062 (MW) /    312.500 (MB)
	Size of irrep 1 of <ab|cd> integrals:     34.222 (MW) /    273.780 (MB)
	Total:                                    73.285 (MW) /    586.280 (MB)

	Size of irrep 0 of <ia|bc> integrals:      1.500 (MW) /     12.000 (MB)
	Size of irrep 1 of <ia|bc> integrals:      1.170 (MW) /      9.360 (MB)
	Total:                                     2.670 (MW) /     21.360 (MB)

	Size of irrep 0 of tijab amplitudes:       0.062 (MW) /      0.500 (MB)
	Size of irrep 1 of tijab amplitudes:       0.035 (MW) /      0.281 (MB)
	Total:                                     0.098 (MW) /      0.781 (MB)

	Nuclear Rep. energy          =      9.55057823155525
	SCF energy                   =    -39.52332489588819
	One-electron energy          =    -25.27555026022672
	Two-electron energy          =     11.44976680847009
	Reference energy             =    -39.52332489588966

*** tstop() called on cqc01 at Fri Apr 26 17:39:56 2019
Module time:
	user time   =       5.52 seconds =       0.09 minutes
	system time =       4.74 seconds =       0.08 minutes
	total time  =         39 seconds =       0.65 minutes
Total time:
	user time   =      10.24 seconds =       0.17 minutes
	system time =       6.39 seconds =       0.11 minutes
	total time  =         50 seconds =       0.83 minutes

*** tstart() called on cqc01
*** at Fri Apr 26 17:39:56 2019

            **************************
            *                        *
            *        CCENERGY        *
            *                        *
            **************************

    Nuclear Rep. energy (wfn)     =    9.550578231555251
    SCF energy          (wfn)     =  -39.523324895888187
    Reference energy    (file100) =  -39.523324895889658

    Input parameters:
    -----------------
    Wave function   =     CCSD
    Reference wfn   =     RHF
    Brueckner       =     No
    Memory (Mbytes) =     32000.0
    Maxiter         =     50
    R_Convergence   =     1.0e-07
    E_Convergence   =     1.0e-06
    Restart         =     Yes
    DIIS            =     Yes
    AO Basis        =     NONE
    ABCD            =     NEW
    Cache Level     =     2
    Cache Type      =     LOW
    Print Level     =     1
    Num. of threads =     1
    # Amps to Print =     10
    Print MP2 Amps? =     No
    Analyze T2 Amps =     No
    Print Pair Ener =     No
    Local CC        =     No
    SCS-MP2         =     False
    SCSN-MP2        =     False
    SCS-CCSD        =     False

MP2 correlation energy -0.2169057722076943
                Solving CC Amplitude Equations
                ------------------------------
  Iter             Energy              RMS        T1Diag      D1Diag    New D1Diag    D2Diag
  ----     ---------------------    ---------   ----------  ----------  ----------   --------
     0        -0.216905772207051    0.000e+00    0.000000    0.000000    0.000000    0.161842
     1        -0.243998542055914    2.278e-01    0.019134    0.040752    0.040752    0.193763
     2        -0.233821838978914    3.830e-02    0.012362    0.027406    0.027406    0.186714
     3        -0.230563035824365    1.201e-02    0.012667    0.028615    0.028615    0.182324
     4        -0.230190676559552    3.712e-03    0.012418    0.027895    0.027895    0.181781
     5        -0.230128025808579    1.175e-03    0.012325    0.027747    0.027747    0.181477
     6        -0.230089826626099    4.046e-04    0.012309    0.027735    0.027735    0.181320
     7        -0.230079123315614    2.045e-04    0.012301    0.027719    0.027719    0.181251
     8        -0.230085476948201    1.471e-04    0.012308    0.027750    0.027750    0.181231
     9        -0.230084838698828    9.685e-05    0.012325    0.027808    0.027808    0.181220
    10        -0.230082766936467    5.421e-05    0.012340    0.027859    0.027859    0.181218
    11        -0.230083616735160    1.824e-05    0.012345    0.027876    0.027876    0.181223
    12        -0.230083990041454    8.751e-06    0.012349    0.027888    0.027888    0.181226
    13        -0.230084148392473    3.525e-06    0.012350    0.027891    0.027891    0.181227
    14        -0.230084150186224    1.479e-06    0.012350    0.027893    0.027893    0.181228
    15        -0.230084117608059    4.971e-07    0.012350    0.027893    0.027893    0.181228
    16        -0.230084107377494    1.964e-07    0.012350    0.027893    0.027893    0.181228
    17        -0.230084106353456    7.892e-08    0.012350    0.027893    0.027893    0.181228
    17        -0.230084106353456    7.892e-08    0.012350    0.027893    0.027893    0.181228

    Iterations converged.


    CCSD corr. energy   =   -0.230084106353456
    PPL corr. energy    =    0.063721224950799
    OS PPL corr. energy =    0.055335827092459
    SS PPL corr. energy =    0.008385397858332
    Largest TIA Amplitudes:
              2   2         0.0189781364
              2   7         0.0096842891
              2   0         0.0074688384
              2  11        -0.0072949801
              2  17        -0.0067668787
              2  15        -0.0062079213
              2  32         0.0061972089
              3  79         0.0052464990
              1  23         0.0052464917
              0   2        -0.0051749266

    Largest TIjAb Amplitudes:
      2   2   2   2        -0.0877593148
      2   2   2   8         0.0500890104
      2   2   8   2         0.0500890104
      2   2   2  15        -0.0375638588
      2   2  15   2        -0.0375638588
      2   2  15  15        -0.0374666967
      2   2   8   8        -0.0368886330
      2   2   8  15         0.0279714957
      2   2  15   8         0.0279714957
      2   2   7   7        -0.0257466173

    SCF energy       (wfn)                    =  -39.523324895888187
    Reference energy (file100)                =  -39.523324895889658

    Opposite-spin MP2 correlation energy      =   -0.172155166344244
    Same-spin MP2 correlation energy          =   -0.044750605862807
    MP2 correlation energy                    =   -0.216905772207694
      * MP2 total energy                      =  -39.740230668097354

    Opposite-spin CCSD correlation energy     =   -0.189567197454901
    Same-spin CCSD correlation energy         =   -0.040516896866775
    CCSD correlation energy                   =   -0.230084106353456
      * CCSD total energy                     =  -39.753409002243117


*** tstop() called on cqc01 at Fri Apr 26 17:41:29 2019
Module time:
	user time   =       4.21 seconds =       0.07 minutes
	system time =       9.10 seconds =       0.15 minutes
	total time  =         93 seconds =       1.55 minutes
Total time:
	user time   =      14.45 seconds =       0.24 minutes
	system time =      15.49 seconds =       0.26 minutes
	total time  =        143 seconds =       2.38 minutes

*** Psi4 exiting successfully. Buy a developer a beer!
