
    -----------------------------------------------------------------------
          Psi4: An Open-Source Ab Initio Electronic Structure Package
                               Psi4 1.2a1.dev939 

                         Git: Rev {HEAD} fa1ec19 


    R. M. Parrish, L. A. Burns, D. G. A. Smith, A. C. Simmonett,
    A. E. DePrince III, E. G. Hohenstein, U. Bozkaya, A. Yu. Sokolov,
    R. Di Remigio, R. M. Richard, J. F. Gonthier, A. M. James,
    H. R. McAlexander, A. Kumar, M. Saitow, X. Wang, B. P. Pritchard,
    P. Verma, H. F. Schaefer III, K. Patkowski, R. A. King, E. F. Valeev,
    F. A. Evangelista, J. M. Turney, T. D. Crawford, and C. D. Sherrill,
    J. Chem. Theory Comput. 13(7) pp 3185--3197 (2017).
    (doi: 10.1021/acs.jctc.7b00174)

    -----------------------------------------------------------------------


    Psi4 started on: Saturday, 27 April 2019 03:34PM

    Process ID:  29164
    PSIDATADIR: /home/grueneis/src/psi4/objdir/stage/usr/local/psi4/share/psi4
    Memory:     500.0 MiB
    Threads:    1
    
  ==> Input File <==

--------------------------------------------------------------------------
# Any line starting with the # character is a comment line

memory 32000 mb

molecule molecule {
-1 1
C          0.0000000000        0.0000000000       -0.0725642828
H          1.0380267415        0.0000000000        0.2882346175
H         -0.5190133708        0.8989575280        0.2882346175
H         -0.5190133708       -0.8989575280        0.2882346175
}

set {
  reference rhf
  basis aug-cc-pv(Q+d)z
  scf_type OUT_OF_CORE
  freeze_core true
}

energy('ccsd')
--------------------------------------------------------------------------

  Memory set to  29.802 GiB by Python driver.

*** tstart() called on cqc01
*** at Sat Apr 27 15:34:18 2019

   => Loading Basis Set <=

    Name: AUG-CC-PV(Q+D)Z
    Role: ORBITAL
    Keyword: BASIS
    atoms 1   entry C          line   319 file /home/grueneis/src/psi4/objdir/stage/usr/local/psi4/share/psi4/basis/aug-cc-pv_qpd_z.gbs 
    atoms 2-4 entry H          line    56 file /home/grueneis/src/psi4/objdir/stage/usr/local/psi4/share/psi4/basis/aug-cc-pv_qpd_z.gbs 


         ---------------------------------------------------------
                                   SCF
            by Justin Turney, Rob Parrish, Andy Simmonett
                             and Daniel Smith
                              RHF Reference
                        1 Threads,  30517 MiB Core
         ---------------------------------------------------------

  ==> Geometry <==

    Molecular point group: cs
    Full point group: C3v

    Geometry (in Angstrom), charge = -1, multiplicity = 1:

       Center              X                  Y                   Z               Mass       
    ------------   -----------------  -----------------  -----------------  -----------------
           C         -0.000000000003     0.072610796291     0.000000000000    12.000000000000
           H         -0.519013370764    -0.288188104009     0.898957527982     1.007825032070
           H         -0.519013370764    -0.288188104009    -0.898957527982     1.007825032070
           H          1.038026741568    -0.288188104009     0.000000000000     1.007825032070

  Running in cs symmetry.

  Rotational constants: A =      8.67487  B =      8.67487  C =      5.17456 [cm^-1]
  Rotational constants: A = 260066.11906  B = 260066.11905  C = 155129.25844 [MHz]
  Nuclear repulsion =    9.550578231555251

  Charge       = -1
  Multiplicity = 1
  Electrons    = 10
  Nalpha       = 5
  Nbeta        = 5

  ==> Algorithm <==

  SCF Algorithm Type is OUT_OF_CORE.
  DIIS enabled.
  MOM disabled.
  Fractional occupation disabled.
  Guess Type is SAD.
  Energy threshold   = 1.00e-08
  Density threshold  = 1.00e-08
  Integral threshold = 0.00e+00

  ==> Primary Basis <==

  Basis Set: AUG-CC-PV(Q+D)Z
    Blend: AUG-CC-PV(Q+D)Z
    Number of shells: 62
    Number of basis function: 218
    Number of Cartesian functions: 270
    Spherical Harmonics?: true
    Max angular momentum: 4

  ==> Pre-Iterations <==

   -------------------------------------------------------
    Irrep   Nso     Nmo     Nalpha   Nbeta   Ndocc  Nsocc
   -------------------------------------------------------
     A'       126     126       0       0       0       0
     A"        92      92       0       0       0       0
   -------------------------------------------------------
    Total     218     218       5       5       5       0
   -------------------------------------------------------

  ==> Integral Setup <==

  ==> DiskJK: Disk-Based J/K Matrices <==

    J tasked:                  Yes
    K tasked:                  Yes
    wK tasked:                  No
    Memory (MB):             22888
    Schwarz Cutoff:          1E-12

  Minimum eigenvalue in the overlap matrix is 3.0225538774E-05.
  Using Symmetric Orthogonalization.

  SCF Guess: Superposition of Atomic Densities via on-the-fly atomic UHF.

  ==> Iterations <==

                        Total Energy        Delta E     RMS |[F,P]|

   @RHF iter   0:   -42.28851176894167   -4.22885e+01   1.00717e-02 
   @RHF iter   1:   -38.83976330086860    3.44875e+00   4.87113e-03 
   @RHF iter   2:   -38.96251975292332   -1.22756e-01   6.65483e-03 DIIS
   @RHF iter   3:   -39.44762461293055   -4.85105e-01   2.09058e-03 DIIS
   @RHF iter   4:   -39.52064120295266   -7.30166e-02   3.67372e-04 DIIS
   @RHF iter   5:   -39.52536402724156   -4.72282e-03   9.18778e-05 DIIS
   @RHF iter   6:   -39.52570652335032   -3.42496e-04   7.11669e-05 DIIS
   @RHF iter   7:   -39.52581476328550   -1.08240e-04   2.75039e-05 DIIS
   @RHF iter   8:   -39.52583411438273   -1.93511e-05   7.03808e-06 DIIS
   @RHF iter   9:   -39.52583518566139   -1.07128e-06   3.37941e-07 DIIS
   @RHF iter  10:   -39.52583519496516   -9.30377e-09   1.48312e-07 DIIS
   @RHF iter  11:   -39.52583519674180   -1.77663e-09   6.25671e-08 DIIS
   @RHF iter  12:   -39.52583519747276   -7.30964e-10   1.65782e-08 DIIS
   @RHF iter  13:   -39.52583519754372   -7.09619e-11   3.69000e-09 DIIS

  ==> Post-Iterations <==

    Orbital Energies (a.u.)
    -----------------------

    Doubly Occupied:                                                      

       1Ap   -10.938846     2Ap    -0.625504     3Ap    -0.271896  
       1App   -0.271896     4Ap    -0.023006  

    Virtual:                                                              

       5Ap     0.143926     2App    0.149142     6Ap     0.149142  
       7Ap     0.222910     8Ap     0.243261     3App    0.243261  
       9Ap     0.277550    10Ap     0.341427     4App    0.341427  
       5App    0.389229    11Ap     0.389229    12Ap     0.393129  
      13Ap     0.434116     6App    0.434666    14Ap     0.440551  
       7App    0.440551    15Ap     0.455194    16Ap     0.458188  
       8App    0.458188     9App    0.494433    17Ap     0.494433  
      18Ap     0.520081    19Ap     0.592328    10App    0.592328  
      20Ap     0.721119    11App    0.738493    21Ap     0.738493  
      22Ap     0.791363    12App    0.794253    23Ap     0.794253  
      13App    0.873937    24Ap     0.886401    25Ap     0.910516  
      14App    0.910516    26Ap     0.936650    15App    0.936650  
      27Ap     0.942955    28Ap     0.958374    29Ap     0.979335  
      16App    0.979335    30Ap     1.000377    17App    1.000377  
      18App    1.004619    31Ap     1.024355    19App    1.024355  
      32Ap     1.042798    33Ap     1.128014    20App    1.134852  
      34Ap     1.134852    21App    1.204766    35Ap     1.204766  
      22App    1.297686    23App    1.297934    36Ap     1.297934  
      37Ap     1.350597    38Ap     1.392903    39Ap     1.424006  
      24App    1.424006    25App    1.592382    40Ap     1.618940  
      41Ap     1.663517    26App    1.663517    42Ap     1.728702  
      27App    1.728702    43Ap     1.754065    28App    1.830151  
      44Ap     1.830151    45Ap     1.953226    29App    1.953226  
      46Ap     1.960442    47Ap     1.997207    48Ap     2.041214  
      30App    2.041214    49Ap     2.057506    50Ap     2.072294  
      31App    2.072294    32App    2.116875    33App    2.139987  
      51Ap     2.139987    52Ap     2.214150    34App    2.227764  
      53Ap     2.227764    35App    2.259080    36App    2.275228  
      54Ap     2.275228    55Ap     2.289055    37App    2.289055  
      56Ap     2.290394    38App    2.353672    57Ap     2.398728  
      39App    2.398728    58Ap     2.557806    59Ap     2.628849  
      60Ap     2.631655    40App    2.631655    41App    2.712267  
      61Ap     2.712267    62Ap     2.724067    42App    2.818925  
      43App    2.872115    63Ap     2.872115    44App    2.927279  
      64Ap     2.927279    45App    2.961590    65Ap     2.983264  
      66Ap     3.020511    46App    3.020511    67Ap     3.022060  
      68Ap     3.078878    47App    3.078878    48App    3.251379  
      69Ap     3.251379    70Ap     3.327494    71Ap     3.384314  
      49App    3.384314    50App    3.635365    72Ap     3.635365  
      73Ap     3.635506    51App    3.756097    74Ap     3.832241  
      75Ap     3.994716    52App    3.994716    53App    4.048677  
      76Ap     4.049807    54App    4.049807    77Ap     4.160867  
      78Ap     4.237470    79Ap     4.275850    55App    4.275850  
      80Ap     4.376281    56App    4.376281    81Ap     4.489534  
      57App    4.489534    82Ap     4.540232    58App    4.540232  
      83Ap     4.739497    59App    4.908158    84Ap     4.908158  
      85Ap     4.990897    60App    5.148794    86Ap     6.258655  
      61App    6.285185    87Ap     6.285185    88Ap     6.362323  
      62App    6.362323    63App    6.484568    89Ap     6.484568  
      64App    6.492172    90Ap     6.540397    91Ap     6.775631  
      92Ap     6.795174    65App    6.795174    93Ap     6.948040  
      94Ap     6.982315    66App    6.982315    67App    7.005843  
      68App    7.063076    69App    7.160821    95Ap     7.160821  
      96Ap     7.185618    70App    7.185618    97Ap     7.312465  
      71App    7.312465    98Ap     7.368085    99Ap     7.491233  
     100Ap     7.647966   101Ap     7.764918    72App    7.764918  
      73App    7.851410   102Ap     7.978275    74App    7.978275  
     103Ap     8.052192    75App    8.052192   104Ap     8.118580  
      76App    8.443168   105Ap     8.443168   106Ap     8.550161  
     107Ap     8.555117    77App    8.555117   108Ap     8.768819  
     109Ap     8.820274    78App    8.820274    79App    8.908579  
     110Ap     8.908579    80App    9.155644   111Ap     9.251030  
     112Ap     9.396670    81App    9.396670    82App    9.460528  
     113Ap     9.526670    83App    9.526670   114Ap     9.617866  
      84App    9.617866   115Ap     9.669464   116Ap     9.837552  
      85App    9.837552   117Ap     9.901652    86App   10.208269  
      87App   10.328977   118Ap    10.328977    88App   10.498657  
     119Ap    10.498657   120Ap    10.532825   121Ap    10.887586  
      89App   10.887586   122Ap    10.964804   123Ap    11.093412  
      90App   11.093412    91App   11.667023   124Ap    12.918906  
     125Ap    13.253042    92App   13.253042   126Ap    27.410412  

    Final Occupation by Irrep:
             Ap   App 
    DOCC [     4,    1 ]

  Energy converged.

  @RHF Final Energy:   -39.52583519754372

   => Energetics <=

    Nuclear Repulsion Energy =              9.5505782315552512
    One-Electron Energy =                 -73.8905301782675963
    Two-Electron Energy =                  24.8141167491686261
    Total Energy =                        -39.5258351975437208



Properties will be evaluated at   0.000000,   0.000000,   0.000000 Bohr

Properties computed using the SCF density matrix

  Nuclear Dipole Moment: (a.u.)
     X:     0.0000      Y:    -0.8105      Z:     0.0000

  Electronic Dipole Moment: (a.u.)
     X:    -0.0000      Y:     0.1585      Z:     0.0000

  Dipole Moment: (a.u.)
     X:    -0.0000      Y:    -0.6520      Z:     0.0000     Total:     0.6520

  Dipole Moment: (Debye)
     X:    -0.0000      Y:    -1.6572      Z:     0.0000     Total:     1.6572


*** tstop() called on cqc01 at Sat Apr 27 15:35:53 2019
Module time:
	user time   =      50.41 seconds =       0.84 minutes
	system time =       8.80 seconds =       0.15 minutes
	total time  =         95 seconds =       1.58 minutes
Total time:
	user time   =      50.41 seconds =       0.84 minutes
	system time =       8.80 seconds =       0.15 minutes
	total time  =         95 seconds =       1.58 minutes

*** tstart() called on cqc01
*** at Sat Apr 27 15:35:53 2019


	Wfn Parameters:
	--------------------
	Wavefunction         = CCSD
	Number of irreps     = 2
	Number of MOs        = 218
	Number of active MOs = 217
	AO-Basis             = NONE
	Semicanonical        = false
	Reference            = RHF
	Print Level          = 1

	IRREP	# MOs	# FZDC	# DOCC	# SOCC	# VIRT	# FZVR
	-----	-----	------	------	------	------	------
	 Ap	   126	    1	    3	    0	    122	    0
	 App	   92	    0	    1	    0	    91	    0
	Transforming integrals...
	IWL integrals will be deleted.
	(OO|OO)...
	Presorting SO-basis two-electron integrals.
	Sorting File: SO Ints (nn|nn) nbuckets = 1
	Transforming the one-electron integrals and constructing Fock matrices
	Starting first half-transformation.
	Sorting half-transformed integrals.
	First half integral transformation complete.
	Starting second half-transformation.
	Two-electron integral transformation complete.
	(OO|OV)...
	Starting second half-transformation.
	Two-electron integral transformation complete.
	(OO|VV)...
	Starting second half-transformation.
	Two-electron integral transformation complete.
	(OV|OO)...
	Starting first half-transformation.
	Sorting half-transformed integrals.
	First half integral transformation complete.
	Starting second half-transformation.
	Two-electron integral transformation complete.
	(OV|OV)...
	Starting second half-transformation.
	Two-electron integral transformation complete.
	(OV|VV)...
	Starting second half-transformation.
	Two-electron integral transformation complete.
	(VV|OO)...
	Starting first half-transformation.
	Sorting half-transformed integrals.
	First half integral transformation complete.
	Starting second half-transformation.
	Two-electron integral transformation complete.
	(VV|OV)...
	Starting second half-transformation.
	Two-electron integral transformation complete.
	(VV|VV)...
	Starting second half-transformation.
	Two-electron integral transformation complete.
	Frozen core energy     =    -35.24883053758902

	Size of irrep 0 of <ab|cd> integrals:    536.617 (MW) /   4292.938 (MB)
	Size of irrep 1 of <ab|cd> integrals:    493.018 (MW) /   3944.141 (MB)
	Total:                                  1029.635 (MW) /   8237.079 (MB)

	Size of irrep 0 of <ia|bc> integrals:     10.586 (MW) /     84.691 (MB)
	Size of irrep 1 of <ia|bc> integrals:      8.771 (MW) /     70.165 (MB)
	Total:                                    19.357 (MW) /    154.856 (MB)

	Size of irrep 0 of tijab amplitudes:       0.232 (MW) /      1.853 (MB)
	Size of irrep 1 of tijab amplitudes:       0.133 (MW) /      1.066 (MB)
	Total:                                     0.365 (MW) /      2.919 (MB)

	Nuclear Rep. energy          =      9.55057823155525
	SCF energy                   =    -39.52583519754372
	One-electron energy          =    -25.27056501336873
	Two-electron energy          =     11.44298212185674
	Reference energy             =    -39.52583519754577

*** tstop() called on cqc01 at Sat Apr 27 15:52:30 2019
Module time:
	user time   =      98.73 seconds =       1.65 minutes
	system time =      45.37 seconds =       0.76 minutes
	total time  =        997 seconds =      16.62 minutes
Total time:
	user time   =     149.14 seconds =       2.49 minutes
	system time =      54.17 seconds =       0.90 minutes
	total time  =       1092 seconds =      18.20 minutes

*** tstart() called on cqc01
*** at Sat Apr 27 15:52:30 2019

            **************************
            *                        *
            *        CCENERGY        *
            *                        *
            **************************

    Nuclear Rep. energy (wfn)     =    9.550578231555251
    SCF energy          (wfn)     =  -39.525835197543721
    Reference energy    (file100) =  -39.525835197545767

    Input parameters:
    -----------------
    Wave function   =     CCSD
    Reference wfn   =     RHF
    Brueckner       =     No
    Memory (Mbytes) =     32000.0
    Maxiter         =     50
    R_Convergence   =     1.0e-07
    E_Convergence   =     1.0e-06
    Restart         =     Yes
    DIIS            =     Yes
    AO Basis        =     NONE
    ABCD            =     NEW
    Cache Level     =     2
    Cache Type      =     LOW
    Print Level     =     1
    Num. of threads =     1
    # Amps to Print =     10
    Print MP2 Amps? =     No
    Analyze T2 Amps =     No
    Print Pair Ener =     No
    Local CC        =     No
    SCS-MP2         =     False
    SCSN-MP2        =     False
    SCS-CCSD        =     False

MP2 correlation energy -0.2273939722775269
                Solving CC Amplitude Equations
                ------------------------------
  Iter             Energy              RMS        T1Diag      D1Diag    New D1Diag    D2Diag
  ----     ---------------------    ---------   ----------  ----------  ----------   --------
     0        -0.227393972276493    0.000e+00    0.000000    0.000000    0.000000    0.164241
     1        -0.248062028688483    2.386e-01    0.020056    0.042770    0.042770    0.191711
     2        -0.242050488365975    4.346e-02    0.012599    0.027912    0.027912    0.187878
     3        -0.238342072907281    1.510e-02    0.013092    0.029793    0.029793    0.182591
     4        -0.237738070250812    4.682e-03    0.012829    0.028944    0.028944    0.181882
     5        -0.237658573173935    1.397e-03    0.012733    0.028788    0.028788    0.181536
     6        -0.237628123662489    5.123e-04    0.012721    0.028792    0.028792    0.181362
     7        -0.237611639992439    2.283e-04    0.012712    0.028771    0.028771    0.181275
     8        -0.237614777727342    1.469e-04    0.012716    0.028790    0.028790    0.181244
     9        -0.237617598232897    9.711e-05    0.012725    0.028824    0.028824    0.181234
    10        -0.237614979893071    6.455e-05    0.012738    0.028868    0.028868    0.181227
    11        -0.237614967330194    2.405e-05    0.012744    0.028889    0.028889    0.181230
    12        -0.237615628445217    1.238e-05    0.012748    0.028902    0.028902    0.181234
    13        -0.237615829349790    5.918e-06    0.012750    0.028908    0.028908    0.181236
    14        -0.237615871514467    2.475e-06    0.012751    0.028912    0.028912    0.181237
    15        -0.237615845852723    9.740e-07    0.012751    0.028912    0.028912    0.181237
    16        -0.237615819553936    4.149e-07    0.012751    0.028912    0.028912    0.181237
    17        -0.237615813892139    1.847e-07    0.012751    0.028912    0.028912    0.181237
    18        -0.237615814294821    6.590e-08    0.012751    0.028912    0.028912    0.181237
    18        -0.237615814294821    6.590e-08    0.012751    0.028912    0.028912    0.181237

    Iterations converged.


    CCSD corr. energy   =   -0.237615814294821
    PPL corr. energy    =    0.068309969266552
    OS PPL corr. energy =    0.059609517742550
    SS PPL corr. energy =    0.008700451524003
    Largest TIA Amplitudes:
              2   2         0.0189437506
              2   7         0.0106393692
              2  17        -0.0083737648
              2   0        -0.0076546934
              1  24         0.0069083059
              3 136         0.0069082976
              2  33         0.0068498938
              2  19         0.0060571150
              1  14         0.0058652683
              3 130         0.0058652458

    Largest TIjAb Amplitudes:
      2   2   2   2        -0.0761097065
      2   2   2   8         0.0400666606
      2   2   8   2         0.0400666606
      2   2  15  15        -0.0369033998
      2   2   2  15        -0.0368583130
      2   2  15   2        -0.0368583130
      2   2   2  10         0.0362156041
      2   2  10   2         0.0362156041
      3   3 130 130        -0.0312580959
      1   1  14  14        -0.0312580919

    SCF energy       (wfn)                    =  -39.525835197543721
    Reference energy (file100)                =  -39.525835197545767

    Opposite-spin MP2 correlation energy      =   -0.181608419133139
    Same-spin MP2 correlation energy          =   -0.045785553143354
    MP2 correlation energy                    =   -0.227393972277527
      * MP2 total energy                      =  -39.753229169823292

    Opposite-spin CCSD correlation energy     =   -0.196257594564679
    Same-spin CCSD correlation energy         =   -0.041358206944377
    CCSD correlation energy                   =   -0.237615814294821
      * CCSD total energy                     =  -39.763451011840587


*** tstop() called on cqc01 at Sat Apr 27 16:08:56 2019
Module time:
	user time   =      34.02 seconds =       0.57 minutes
	system time =      63.18 seconds =       1.05 minutes
	total time  =        986 seconds =      16.43 minutes
Total time:
	user time   =     183.16 seconds =       3.05 minutes
	system time =     117.35 seconds =       1.96 minutes
	total time  =       2078 seconds =      34.63 minutes

*** Psi4 exiting successfully. Buy a developer a beer!
