
    -----------------------------------------------------------------------
          Psi4: An Open-Source Ab Initio Electronic Structure Package
                               Psi4 1.2a1.dev938 

                         Git: Rev {HEAD} fc51d9a dirty


    R. M. Parrish, L. A. Burns, D. G. A. Smith, A. C. Simmonett,
    A. E. DePrince III, E. G. Hohenstein, U. Bozkaya, A. Yu. Sokolov,
    R. Di Remigio, R. M. Richard, J. F. Gonthier, A. M. James,
    H. R. McAlexander, A. Kumar, M. Saitow, X. Wang, B. P. Pritchard,
    P. Verma, H. F. Schaefer III, K. Patkowski, R. A. King, E. F. Valeev,
    F. A. Evangelista, J. M. Turney, T. D. Crawford, and C. D. Sherrill,
    J. Chem. Theory Comput. 13(7) pp 3185--3197 (2017).
    (doi: 10.1021/acs.jctc.7b00174)

    -----------------------------------------------------------------------


    Psi4 started on: Thursday, 20 August 2020 10:42PM

    Process ID: 425555
    PSIDATADIR: /home/irmler/Programs/psi4/beforeGrueneis3/stage/usr/local/psi4/share/psi4
    Memory:     500.0 MiB
    Threads:    4
    
  ==> Input File <==

--------------------------------------------------------------------------
# Any line starting with the # character is a comment line
memory 250000 mb
molecule molecule{
1 3
F          0.0000000000        0.0000000000        0.0000000000
}

set {
  reference uhf
  basis aug-cc-pv(q+d)z
  scf_type OUT_OF_CORE
  freeze_core true
}

energy('ccsd')
--------------------------------------------------------------------------

  Memory set to 232.831 GiB by Python driver.

*** tstart() called on cqc05
*** at Thu Aug 20 22:42:19 2020

   => Loading Basis Set <=

    Name: AUG-CC-PV(Q+D)Z
    Role: ORBITAL
    Keyword: BASIS
    atoms 1 entry F          line   499 file /home/irmler/Programs/psi4/beforeGrueneis3/stage/usr/local/psi4/share/psi4/basis/aug-cc-pv_qpd_z.gbs 


         ---------------------------------------------------------
                                   SCF
            by Justin Turney, Rob Parrish, Andy Simmonett
                             and Daniel Smith
                              UHF Reference
                        4 Threads, 238418 MiB Core
         ---------------------------------------------------------

  ==> Geometry <==

    Molecular point group: d2h
    Geometry (in Angstrom), charge = 1, multiplicity = 3:

       Center              X                  Y                   Z               Mass       
    ------------   -----------------  -----------------  -----------------  -----------------
           F          0.000000000000     0.000000000000     0.000000000000    18.998403224000

  Running in d2h symmetry.

  Rotational constants: A = ************  B = ************  C = ************ [cm^-1]
  Rotational constants: A = ************  B = ************  C = ************ [MHz]
  Nuclear repulsion =    0.000000000000000

  Charge       = 1
  Multiplicity = 3
  Electrons    = 8
  Nalpha       = 5
  Nbeta        = 3

  ==> Algorithm <==

  SCF Algorithm Type is OUT_OF_CORE.
  DIIS enabled.
  MOM disabled.
  Fractional occupation disabled.
  Guess Type is GWH.
  Energy threshold   = 1.00e-08
  Density threshold  = 1.00e-08
  Integral threshold = 0.00e+00

  ==> Primary Basis <==

  Basis Set: AUG-CC-PV(Q+D)Z
    Blend: AUG-CC-PV(Q+D)Z
    Number of shells: 20
    Number of basis function: 80
    Number of Cartesian functions: 105
    Spherical Harmonics?: true
    Max angular momentum: 4

  ==> Pre-Iterations <==

   -------------------------------------------------------
    Irrep   Nso     Nmo     Nalpha   Nbeta   Ndocc  Nsocc
   -------------------------------------------------------
     Ag        20      20       0       0       0       0
     B1g        8       8       0       0       0       0
     B2g        8       8       0       0       0       0
     B3g        8       8       0       0       0       0
     Au         3       3       0       0       0       0
     B1u       11      11       0       0       0       0
     B2u       11      11       0       0       0       0
     B3u       11      11       0       0       0       0
   -------------------------------------------------------
    Total      80      80       5       3       3       2
   -------------------------------------------------------

  ==> Integral Setup <==

  ==> DiskJK: Disk-Based J/K Matrices <==

    J tasked:                  Yes
    K tasked:                  Yes
    wK tasked:                  No
    Memory (MB):            178813
    Schwarz Cutoff:          1E-12

  Minimum eigenvalue in the overlap matrix is 3.4045524217E-03.
  Using Symmetric Orthogonalization.

  SCF Guess: Generalized Wolfsberg-Helmholtz.

  ==> Iterations <==

                        Total Energy        Delta E     RMS |[F,P]|

   @UHF iter   1:   -94.77408407713339   -9.47741e+01   3.17963e-01 
   @UHF iter   2:   -98.59172944236336   -3.81765e+00   5.17877e-02 DIIS
   @UHF iter   3:   -98.83030119961565   -2.38572e-01   1.02289e-02 DIIS
   @UHF iter   4:   -98.83874539128087   -8.44419e-03   7.09363e-04 DIIS
   @UHF iter   5:   -98.83883623955720   -9.08483e-05   1.23241e-04 DIIS
   @UHF iter   6:   -98.83884075625097   -4.51669e-06   2.90534e-05 DIIS
   @UHF iter   7:   -98.83884102380355   -2.67553e-07   3.38292e-06 DIIS
   @UHF iter   8:   -98.83884102671146   -2.90791e-09   4.29982e-07 DIIS
   @UHF iter   9:   -98.83884102677079   -5.93303e-11   5.34877e-08 DIIS
   @UHF iter  10:   -98.83884102677152   -7.24754e-13   3.54026e-09 DIIS

  ==> Post-Iterations <==

   @Spin Contamination Metric:   5.322510615E-03
   @S^2 Expected:                2.000000000E+00
   @S^2 Observed:                2.005322511E+00
   @S   Expected:                1.000000000E+00
   @S   Observed:                1.000000000E+00

    Orbital Energies (a.u.)
    -----------------------

    Alpha Occupied:                                                       

       1Ag   -27.194543     2Ag    -2.401044     1B1u   -1.536967  
       1B3u   -1.536967     1B2u   -1.415413  

    Alpha Virtual:                                                        

       3Ag    -0.131817     2B1u   -0.080229     2B3u   -0.080229  
       2B2u   -0.072118     4Ag     0.271540     1B2g    0.271540  
       1B3g    0.284323     1B1g    0.284323     5Ag     0.288679  
       3B3u    0.428828     3B1u    0.428828     3B2u    0.459115  
       6Ag     0.660719     4B3u    1.410598     4B1u    1.410598  
       4B2u    1.426532     1Au     1.426532     5B1u    1.436248  
       5B3u    1.436248     5B2u    1.439519     7Ag     1.443237  
       2B2g    1.443237     2B3g    1.483911     2B1g    1.483911  
       8Ag     1.498265     6B1u    2.699418     6B3u    2.699418  
       6B2u    2.776663     3B2g    4.127492     9Ag     4.127492  
       3B1g    4.149737     3B3g    4.149737     4B2g    4.165824  
      10Ag     4.165824     4B1g    4.175562     4B3g    4.175562  
      11Ag     4.178822    12Ag     4.309976     7B3u    4.800216  
       7B1u    4.800216     7B2u    4.841925     2Au     4.841925  
       8B3u    4.867439     8B1u    4.867439     8B2u    4.876039  
       5B2g    4.931579    13Ag     4.931579     5B1g    5.003597  
       5B3g    5.003597    14Ag     5.028901     9B1u   12.141463  
       9B3u   12.141463     9B2u   12.233323    15Ag    12.840961  
       6B2g   12.840961     6B3g   12.887082     6B1g   12.887082  
      16Ag    12.920325     7B2g   12.920325     7B3g   12.940396  
       7B1g   12.940396    17Ag    12.947107    10B1u   14.940429  
      10B3u   14.940429     3Au    15.006267    10B2u   15.006267  
      11B1u   15.046304    11B3u   15.046304    11B2u   15.059752  
       8B2g   15.805616    18Ag    15.805616     8B1g   15.887239  
       8B3g   15.887239    19Ag    15.914973    20Ag    52.217475  

    Beta Occupied:                                                        

       1Ag   -27.088551     2Ag    -1.994244     1B2u   -1.310423  

    Beta Virtual:                                                         

       1B3u   -0.493602     1B1u   -0.493602     3Ag    -0.119371  
       2B2u   -0.069504     2B1u   -0.056005     2B3u   -0.056005  
       4Ag     0.290409     1B2g    0.290409     1B3g    0.293073  
       1B1g    0.293073     5Ag     0.294213     3B2u    0.474485  
       3B3u    0.529882     3B1u    0.529882     6Ag     0.711098  
       4B3u    1.427541     4B1u    1.427541     4B2u    1.437212  
       1Au     1.437212     5B3u    1.443044     5B1u    1.443044  
       5B2u    1.444986     7Ag     1.542710     2B3g    1.546604  
       2B1g    1.546604     2B2g    1.561523     8Ag     1.561523  
       6B2u    2.819333     6B1u    2.885108     6B3u    2.885108  
       3B2g    4.153736     9Ag     4.153736     3B1g    4.168995  
       3B3g    4.168995     4B2g    4.179908    10Ag     4.179908  
       4B1g    4.186455     4B3g    4.186455    11Ag     4.188637  
      12Ag     4.423185     7B3u    4.884448     7B1u    4.884448  
       7B2u    4.899520     2Au     4.899520     8B3u    4.908534  
       8B1u    4.908534     8B2u    4.911529    13Ag     5.120673  
       5B1g    5.125850     5B3g    5.125850     5B2g    5.144719  
      14Ag     5.144719     9B2u   12.279107     9B1u   12.299146  
       9B3u   12.299146     6B2g   12.924041    15Ag    12.924041  
       6B3g   12.950901     6B1g   12.950901    16Ag    12.970118  
       7B2g   12.970118     7B3g   12.981660     7B1g   12.981660  
      17Ag    12.985508    10B1u   15.084750    10B3u   15.084750  
       3Au    15.109175    10B2u   15.109175    11B1u   15.123850  
      11B3u   15.123850    11B2u   15.128744     8B2g   15.985235  
      18Ag    15.985235     8B1g   15.994672     8B3g   15.994672  
      19Ag    15.997939    20Ag    52.279794  

    Final Occupation by Irrep:
             Ag   B1g   B2g   B3g    Au   B1u   B2u   B3u 
    DOCC [     2,    0,    0,    0,    0,    0,    1,    0 ]
    SOCC [     0,    0,    0,    0,    0,    1,    0,    1 ]

  Energy converged.

  @UHF Final Energy:   -98.83884102677152

   => Energetics <=

    Nuclear Repulsion Energy =              0.0000000000000000
    One-Electron Energy =                -133.1995324399405263
    Two-Electron Energy =                  34.3606914131690075
    Total Energy =                        -98.8388410267715187


  UHF NO Occupations:
  HONO-2 :    2 Ag 1.9979047
  HONO-1 :    1B1u 1.0000000
  HONO-0 :    1B3u 1.0000000
  LUNO+0 :    3 Ag 0.0020953
  LUNO+1 :    2B2u 0.0005660
  LUNO+2 :    4 Ag 0.0000023
  LUNO+3 :    5 Ag 0.0000000



Properties will be evaluated at   0.000000,   0.000000,   0.000000 Bohr

Properties computed using the SCF density matrix

  Nuclear Dipole Moment: (a.u.)
     X:     0.0000      Y:     0.0000      Z:     0.0000

  Electronic Dipole Moment: (a.u.)
     X:     0.0000      Y:     0.0000      Z:     0.0000

  Dipole Moment: (a.u.)
     X:     0.0000      Y:     0.0000      Z:     0.0000     Total:     0.0000

  Dipole Moment: (Debye)
     X:     0.0000      Y:     0.0000      Z:     0.0000     Total:     0.0000


*** tstop() called on cqc05 at Thu Aug 20 22:42:19 2020
Module time:
	user time   =       1.26 seconds =       0.02 minutes
	system time =       0.06 seconds =       0.00 minutes
	total time  =          0 seconds =       0.00 minutes
Total time:
	user time   =       1.26 seconds =       0.02 minutes
	system time =       0.06 seconds =       0.00 minutes
	total time  =          0 seconds =       0.00 minutes

*** tstart() called on cqc05
*** at Thu Aug 20 22:42:19 2020


	Wfn Parameters:
	--------------------
	Wavefunction         = CCSD
	Number of irreps     = 8
	Number of MOs        = 80
	Number of active MOs = 79
	AO-Basis             = NONE
	Semicanonical        = false
	Reference            = UHF
	Print Level          = 1

	IRREP	# MOs	# FZDC	# DOCC	# SOCC	# VIRT	# FZVR
	-----	-----	------	------	------	------	------
	 Ag	   20	    1	    1	    0	    18	    0
	 B1g	   8	    0	    0	    0	    8	    0
	 B2g	   8	    0	    0	    0	    8	    0
	 B3g	   8	    0	    0	    0	    8	    0
	 Au	   3	    0	    0	    0	    3	    0
	 B1u	   11	    0	    0	    1	    10	    0
	 B2u	   11	    0	    1	    0	    10	    0
	 B3u	   11	    0	    0	    1	    10	    0
	Transforming integrals...
	IWL integrals will be deleted.
	(OO|OO)...
	Presorting SO-basis two-electron integrals.
	Sorting File: SO Ints (nn|nn) nbuckets = 1
	Transforming the one-electron integrals and constructing Fock matrices
	Starting AA/AB first half-transformation.
	Sorting AA/AB half-transformed integrals.
	Starting BB first half-transformation.
	Sorting BB half-transformed integrals.
	First half integral transformation complete.
	Starting AA second half-transformation.
	Starting AB second half-transformation.
	Starting BB second half-transformation.
	Two-electron integral transformation complete.
	(OO|OV)...
	Starting AA second half-transformation.
	Starting AB second half-transformation.
	Starting BB second half-transformation.
	Two-electron integral transformation complete.
	(OO|VV)...
	Starting AA second half-transformation.
	Starting AB second half-transformation.
	Starting BB second half-transformation.
	Two-electron integral transformation complete.
	(OV|OO)...
	Starting AA/AB first half-transformation.
	Sorting AA/AB half-transformed integrals.
	Starting BB first half-transformation.
	Sorting BB half-transformed integrals.
	First half integral transformation complete.
	Starting AA second half-transformation.
	Starting AB second half-transformation.
	Starting BB second half-transformation.
	Two-electron integral transformation complete.
	(OV|OV)...
	Starting AA second half-transformation.
	Starting AB second half-transformation.
	Starting BB second half-transformation.
	Two-electron integral transformation complete.
	(OV|VV)...
	Starting AA second half-transformation.
	Starting AB second half-transformation.
	Starting BB second half-transformation.
	Two-electron integral transformation complete.
	(VV|OO)...
	Starting AA/AB first half-transformation.
	Sorting AA/AB half-transformed integrals.
	Starting BB first half-transformation.
	Sorting BB half-transformed integrals.
	First half integral transformation complete.
	Starting AA second half-transformation.
	Starting AB second half-transformation.
	Starting BB second half-transformation.
	Two-electron integral transformation complete.
	(VV|OV)...
	Starting AA second half-transformation.
	Starting AB second half-transformation.
	Starting BB second half-transformation.
	Two-electron integral transformation complete.
	(VV|VV)...
	Starting AA second half-transformation.
	Starting AB second half-transformation.
	Starting BB second half-transformation.
	Two-electron integral transformation complete.
	Frozen core energy     =    -75.47966799659521

	Size of irrep 0 of <AB|CD> integrals:      0.141 (MW) /      1.125 (MB)
	Size of irrep 1 of <AB|CD> integrals:      0.114 (MW) /      0.914 (MB)
	Size of irrep 2 of <AB|CD> integrals:      0.114 (MW) /      0.914 (MB)
	Size of irrep 3 of <AB|CD> integrals:      0.114 (MW) /      0.914 (MB)
	Size of irrep 4 of <AB|CD> integrals:      0.086 (MW) /      0.691 (MB)
	Size of irrep 5 of <AB|CD> integrals:      0.132 (MW) /      1.060 (MB)
	Size of irrep 6 of <AB|CD> integrals:      0.132 (MW) /      1.060 (MB)
	Size of irrep 7 of <AB|CD> integrals:      0.132 (MW) /      1.060 (MB)
	Total:                                     0.967 (MW) /      7.738 (MB)

	Size of irrep 0 of <ab|cd> integrals:      0.156 (MW) /      1.248 (MB)
	Size of irrep 1 of <ab|cd> integrals:      0.123 (MW) /      0.986 (MB)
	Size of irrep 2 of <ab|cd> integrals:      0.129 (MW) /      1.031 (MB)
	Size of irrep 3 of <ab|cd> integrals:      0.123 (MW) /      0.986 (MB)
	Size of irrep 4 of <ab|cd> integrals:      0.096 (MW) /      0.769 (MB)
	Size of irrep 5 of <ab|cd> integrals:      0.152 (MW) /      1.217 (MB)
	Size of irrep 6 of <ab|cd> integrals:      0.144 (MW) /      1.155 (MB)
	Size of irrep 7 of <ab|cd> integrals:      0.152 (MW) /      1.217 (MB)
	Total:                                     1.076 (MW) /      8.608 (MB)

	Size of irrep 0 of <Ab|Cd> integrals:      0.714 (MW) /      5.712 (MB)
	Size of irrep 1 of <Ab|Cd> integrals:      0.475 (MW) /      3.798 (MB)
	Size of irrep 2 of <Ab|Cd> integrals:      0.484 (MW) /      3.875 (MB)
	Size of irrep 3 of <Ab|Cd> integrals:      0.475 (MW) /      3.798 (MB)
	Size of irrep 4 of <Ab|Cd> integrals:      0.365 (MW) /      2.919 (MB)
	Size of irrep 5 of <Ab|Cd> integrals:      0.569 (MW) /      4.548 (MB)
	Size of irrep 6 of <Ab|Cd> integrals:      0.554 (MW) /      4.428 (MB)
	Size of irrep 7 of <Ab|Cd> integrals:      0.569 (MW) /      4.548 (MB)
	Total:                                     4.203 (MW) /     33.626 (MB)

	Size of irrep 0 of <IA|BC> integrals:      0.040 (MW) /      0.317 (MB)
	Size of irrep 1 of <IA|BC> integrals:      0.021 (MW) /      0.168 (MB)
	Size of irrep 2 of <IA|BC> integrals:      0.021 (MW) /      0.168 (MB)
	Size of irrep 3 of <IA|BC> integrals:      0.021 (MW) /      0.168 (MB)
	Size of irrep 4 of <IA|BC> integrals:      0.016 (MW) /      0.127 (MB)
	Size of irrep 5 of <IA|BC> integrals:      0.032 (MW) /      0.256 (MB)
	Size of irrep 6 of <IA|BC> integrals:      0.032 (MW) /      0.256 (MB)
	Size of irrep 7 of <IA|BC> integrals:      0.032 (MW) /      0.256 (MB)
	Total:                                     0.214 (MW) /      1.716 (MB)

	Size of irrep 0 of <ia|bc> integrals:      0.024 (MW) /      0.194 (MB)
	Size of irrep 1 of <ia|bc> integrals:      0.013 (MW) /      0.107 (MB)
	Size of irrep 2 of <ia|bc> integrals:      0.008 (MW) /      0.063 (MB)
	Size of irrep 3 of <ia|bc> integrals:      0.013 (MW) /      0.107 (MB)
	Size of irrep 4 of <ia|bc> integrals:      0.007 (MW) /      0.055 (MB)
	Size of irrep 5 of <ia|bc> integrals:      0.015 (MW) /      0.119 (MB)
	Size of irrep 6 of <ia|bc> integrals:      0.021 (MW) /      0.170 (MB)
	Size of irrep 7 of <ia|bc> integrals:      0.015 (MW) /      0.119 (MB)
	Total:                                     0.117 (MW) /      0.933 (MB)

	Size of irrep 0 of <Ia|Bc> integrals:      0.042 (MW) /      0.338 (MB)
	Size of irrep 1 of <Ia|Bc> integrals:      0.022 (MW) /      0.176 (MB)
	Size of irrep 2 of <Ia|Bc> integrals:      0.023 (MW) /      0.184 (MB)
	Size of irrep 3 of <Ia|Bc> integrals:      0.022 (MW) /      0.176 (MB)
	Size of irrep 4 of <Ia|Bc> integrals:      0.016 (MW) /      0.130 (MB)
	Size of irrep 5 of <Ia|Bc> integrals:      0.034 (MW) /      0.271 (MB)
	Size of irrep 6 of <Ia|Bc> integrals:      0.033 (MW) /      0.262 (MB)
	Size of irrep 7 of <Ia|Bc> integrals:      0.034 (MW) /      0.271 (MB)
	Total:                                     0.226 (MW) /      1.810 (MB)

	Size of irrep 0 of <iA|bC> integrals:      0.024 (MW) /      0.189 (MB)
	Size of irrep 1 of <iA|bC> integrals:      0.012 (MW) /      0.099 (MB)
	Size of irrep 2 of <iA|bC> integrals:      0.008 (MW) /      0.061 (MB)
	Size of irrep 3 of <iA|bC> integrals:      0.012 (MW) /      0.099 (MB)
	Size of irrep 4 of <iA|bC> integrals:      0.007 (MW) /      0.053 (MB)
	Size of irrep 5 of <iA|bC> integrals:      0.014 (MW) /      0.109 (MB)
	Size of irrep 6 of <iA|bC> integrals:      0.021 (MW) /      0.167 (MB)
	Size of irrep 7 of <iA|bC> integrals:      0.014 (MW) /      0.109 (MB)
	Total:                                     0.111 (MW) /      0.886 (MB)

	Size of irrep 0 of tIjAb amplitudes:       0.002 (MW) /      0.014 (MB)
	Size of irrep 1 of tIjAb amplitudes:       0.001 (MW) /      0.006 (MB)
	Size of irrep 2 of tIjAb amplitudes:       0.000 (MW) /      0.000 (MB)
	Size of irrep 3 of tIjAb amplitudes:       0.001 (MW) /      0.006 (MB)
	Size of irrep 4 of tIjAb amplitudes:       0.000 (MW) /      0.000 (MB)
	Size of irrep 5 of tIjAb amplitudes:       0.001 (MW) /      0.006 (MB)
	Size of irrep 6 of tIjAb amplitudes:       0.001 (MW) /      0.012 (MB)
	Size of irrep 7 of tIjAb amplitudes:       0.001 (MW) /      0.006 (MB)
	Total:                                     0.006 (MW) /      0.049 (MB)

	Nuclear Rep. energy          =      0.00000000000000
	SCF energy                   =    -98.83884102677152
	One-electron energy          =    -36.52328993861634
	Two-electron (AA) energy     =      4.91414851866891
	Two-electron (BB) energy     =      0.72922183690739
	Two-electron (AB) energy     =      7.52074655286362
	Two-electron energy          =     13.16411690843992
	Reference energy             =    -98.83884102677163

*** tstop() called on cqc05 at Thu Aug 20 22:42:20 2020
Module time:
	user time   =       0.44 seconds =       0.01 minutes
	system time =       0.27 seconds =       0.00 minutes
	total time  =          1 seconds =       0.02 minutes
Total time:
	user time   =       1.70 seconds =       0.03 minutes
	system time =       0.33 seconds =       0.01 minutes
	total time  =          1 seconds =       0.02 minutes

*** tstart() called on cqc05
*** at Thu Aug 20 22:42:20 2020

            **************************
            *                        *
            *        CCENERGY        *
            *                        *
            **************************

    Nuclear Rep. energy (wfn)     =    0.000000000000000
    SCF energy          (wfn)     =  -98.838841026771519
    Reference energy    (file100) =  -98.838841026771632

    Input parameters:
    -----------------
    Wave function   =     CCSD
    Reference wfn   =     UHF
    Brueckner       =     No
    Memory (Mbytes) =     250000.0
    Maxiter         =     50
    R_Convergence   =     1.0e-07
    E_Convergence   =     1.0e-06
    Restart         =     Yes
    DIIS            =     Yes
    AO Basis        =     NONE
    ABCD            =     NEW
    Cache Level     =     2
    Cache Type      =     LRU
    Print Level     =     1
    Num. of threads =     4
    # Amps to Print =     10
    Print MP2 Amps? =     No
    Analyze T2 Amps =     No
    Print Pair Ener =     No
    Local CC        =     No
    SCS-MP2         =     False
    SCSN-MP2        =     False
    SCS-CCSD        =     False

MP2 correlation energy -0.1598861135043708
                Solving CC Amplitude Equations
                ------------------------------
  Iter             Energy              RMS        T1Diag      D1Diag    New D1Diag    D2Diag
  ----     ---------------------    ---------   ----------  ----------  ----------   --------
     0        -0.159886113504371    0.000e+00    0.000000    0.000000    0.000000    0.000000
     1        -0.171137743035389    2.053e-02    0.003862    0.000000    0.000000    0.000000
     2        -0.173962049568955    6.720e-03    0.005367    0.000000    0.000000    0.000000
     3        -0.174032770670834    1.753e-03    0.005715    0.000000    0.000000    0.000000
     4        -0.174023876167667    5.662e-04    0.005726    0.000000    0.000000    0.000000
     5        -0.174032861153608    1.712e-04    0.005720    0.000000    0.000000    0.000000
     6        -0.174033680492659    3.870e-05    0.005717    0.000000    0.000000    0.000000
     7        -0.174033561055643    9.522e-06    0.005717    0.000000    0.000000    0.000000
     8        -0.174033489181137    2.395e-06    0.005717    0.000000    0.000000    0.000000
     9        -0.174033485166002    5.183e-07    0.005717    0.000000    0.000000    0.000000
    10        -0.174033490696023    1.087e-07    0.005717    0.000000    0.000000    0.000000
    11        -0.174033489067078    2.742e-08    0.005717    0.000000    0.000000    0.000000
    11        -0.174033489067078    2.742e-08    0.005717    0.000000    0.000000    0.000000

    Iterations converged.


    CCSD corr. energy   =   -0.174033489067078
    PPL corr. energy    =    0.028784940457082
    OS PPL corr. energy =    0.024137278995388
    SS PPL corr. energy =    0.004647661461693
    Largest TIA Amplitudes:
              1  46        -0.0035952263
              3  66        -0.0035952263
              2  56        -0.0035766536
              0   0        -0.0035359907
              1  45        -0.0032786714
              3  65        -0.0032786714
              2  55        -0.0031791700
              0   3         0.0030624285
              0   5         0.0024050131
              0   2        -0.0017559322

    Largest Tia Amplitudes:
              0   4        -0.0059051693
              0   2         0.0035279556
              0  10         0.0032450061
              1  60         0.0028275111
              0   3        -0.0026229461
              0   9         0.0025508466
              1  56        -0.0019911051
              0   0         0.0012887762
              1  57        -0.0012245868
              1  63         0.0011085287

    Largest TIJAB Amplitudes:
      3   1  27   4        -0.0128378805
      3   2  66  56        -0.0127918269
      2   1  56  46        -0.0127918269
      3   1  66  46        -0.0123168024
      3   1  69  49        -0.0123097960
      3   2  69  59        -0.0121039302
      2   1  59  49        -0.0121039302
      3   2  19   5        -0.0118581714
      2   1  35   5         0.0118581714
      3   2  69  56        -0.0108182247

    Largest Tijab Amplitudes:
      1   0  45  35         0.0137146614
      1   0  66  19         0.0137146614
      1   0  45  34        -0.0085575992
      1   0  66  18        -0.0085575992
      1   0  57   3         0.0078559275
      1   0  45  38        -0.0076255677
      1   0  66  22        -0.0076255677
      1   0  60   3         0.0064348678
      1   0  60   9        -0.0060132639
      1   0  57   0        -0.0049806933

    Largest TIjAb Amplitudes:
      1   0   4  45        -0.0275617642
      1   0  27  66        -0.0275617642
      3   0   4  66         0.0275617642
      3   0  27  45        -0.0275617642
      2   0  19  66        -0.0271359337
      2   0  35  45        -0.0271359337
      2   1  56  57        -0.0239077760
      2   1  59  60        -0.0226227021
      2   1  59  57        -0.0187142436
      2   1  56  60        -0.0182187620

    SCF energy       (wfn)                    =  -98.838841026771519
    Reference energy (file100)                =  -98.838841026771632

    Opposite-spin MP2 correlation energy      =   -0.122235034789498
    Same-spin MP2 correlation energy          =   -0.037651078714872
    MP2 correlation energy                    =   -0.159886113504371
      * MP2 total energy                      =  -98.998727140276003

    Opposite-spin CCSD correlation energy     =   -0.135688902187316
    Same-spin CCSD correlation energy         =   -0.038344586808941
    CCSD correlation energy                   =   -0.174033489067078
      * CCSD total energy                     =  -99.012874515838718


*** tstop() called on cqc05 at Thu Aug 20 22:42:22 2020
Module time:
	user time   =       0.40 seconds =       0.01 minutes
	system time =       0.34 seconds =       0.01 minutes
	total time  =          2 seconds =       0.03 minutes
Total time:
	user time   =       2.10 seconds =       0.04 minutes
	system time =       0.67 seconds =       0.01 minutes
	total time  =          3 seconds =       0.05 minutes

*** Psi4 exiting successfully. Buy a developer a beer!
