
    -----------------------------------------------------------------------
          Psi4: An Open-Source Ab Initio Electronic Structure Package
                               Psi4 1.2a1.dev938 

                         Git: Rev {HEAD} fc51d9a dirty


    R. M. Parrish, L. A. Burns, D. G. A. Smith, A. C. Simmonett,
    A. E. DePrince III, E. G. Hohenstein, U. Bozkaya, A. Yu. Sokolov,
    R. Di Remigio, R. M. Richard, J. F. Gonthier, A. M. James,
    H. R. McAlexander, A. Kumar, M. Saitow, X. Wang, B. P. Pritchard,
    P. Verma, H. F. Schaefer III, K. Patkowski, R. A. King, E. F. Valeev,
    F. A. Evangelista, J. M. Turney, T. D. Crawford, and C. D. Sherrill,
    J. Chem. Theory Comput. 13(7) pp 3185--3197 (2017).
    (doi: 10.1021/acs.jctc.7b00174)

    -----------------------------------------------------------------------


    Psi4 started on: Friday, 21 August 2020 06:51AM

    Process ID: 428197
    PSIDATADIR: /home/irmler/Programs/psi4/beforeGrueneis3/stage/usr/local/psi4/share/psi4
    Memory:     500.0 MiB
    Threads:    4
    
  ==> Input File <==

--------------------------------------------------------------------------
# Any line starting with the # character is a comment line
memory 250000 mb
molecule molecule{
1 3
F          0.0000000000        0.0000000000        0.0000000000
}

set {
  reference uhf
  basis aug-cc-pv(5+d)z
  scf_type OUT_OF_CORE
  freeze_core true
}

energy('ccsd')
--------------------------------------------------------------------------

  Memory set to 232.831 GiB by Python driver.

*** tstart() called on cqc05
*** at Fri Aug 21 06:51:40 2020

   => Loading Basis Set <=

    Name: AUG-CC-PV(5+D)Z
    Role: ORBITAL
    Keyword: BASIS
    atoms 1 entry F          line   454 file /home/irmler/Programs/psi4/beforeGrueneis3/stage/usr/local/psi4/share/psi4/basis/aug-cc-pv_5pd_z.gbs 


         ---------------------------------------------------------
                                   SCF
            by Justin Turney, Rob Parrish, Andy Simmonett
                             and Daniel Smith
                              UHF Reference
                        4 Threads, 238418 MiB Core
         ---------------------------------------------------------

  ==> Geometry <==

    Molecular point group: d2h
    Geometry (in Angstrom), charge = 1, multiplicity = 3:

       Center              X                  Y                   Z               Mass       
    ------------   -----------------  -----------------  -----------------  -----------------
           F          0.000000000000     0.000000000000     0.000000000000    18.998403224000

  Running in d2h symmetry.

  Rotational constants: A = ************  B = ************  C = ************ [cm^-1]
  Rotational constants: A = ************  B = ************  C = ************ [MHz]
  Nuclear repulsion =    0.000000000000000

  Charge       = 1
  Multiplicity = 3
  Electrons    = 8
  Nalpha       = 5
  Nbeta        = 3

  ==> Algorithm <==

  SCF Algorithm Type is OUT_OF_CORE.
  DIIS enabled.
  MOM disabled.
  Fractional occupation disabled.
  Guess Type is GWH.
  Energy threshold   = 1.00e-08
  Density threshold  = 1.00e-08
  Integral threshold = 0.00e+00

  ==> Primary Basis <==

  Basis Set: AUG-CC-PV(5+D)Z
    Blend: AUG-CC-PV(5+D)Z
    Number of shells: 27
    Number of basis function: 127
    Number of Cartesian functions: 182
    Spherical Harmonics?: true
    Max angular momentum: 5

  ==> Pre-Iterations <==

   -------------------------------------------------------
    Irrep   Nso     Nmo     Nalpha   Nbeta   Ndocc  Nsocc
   -------------------------------------------------------
     Ag        26      26       0       0       0       0
     B1g       11      11       0       0       0       0
     B2g       11      11       0       0       0       0
     B3g       11      11       0       0       0       0
     Au         8       8       0       0       0       0
     B1u       20      20       0       0       0       0
     B2u       20      20       0       0       0       0
     B3u       20      20       0       0       0       0
   -------------------------------------------------------
    Total     127     127       5       3       3       2
   -------------------------------------------------------

  ==> Integral Setup <==

  ==> DiskJK: Disk-Based J/K Matrices <==

    J tasked:                  Yes
    K tasked:                  Yes
    wK tasked:                  No
    Memory (MB):            178813
    Schwarz Cutoff:          1E-12

  Minimum eigenvalue in the overlap matrix is 1.6434294920E-03.
  Using Symmetric Orthogonalization.

  SCF Guess: Generalized Wolfsberg-Helmholtz.

  ==> Iterations <==

                        Total Energy        Delta E     RMS |[F,P]|

   @UHF iter   1:   -94.65709514649157   -9.46571e+01   2.34848e-01 
   @UHF iter   2:   -98.59160740049393   -3.93451e+00   3.31139e-02 DIIS
   @UHF iter   3:   -98.83177811335663   -2.40171e-01   7.10666e-03 DIIS
   @UHF iter   4:   -98.84082891303203   -9.05080e-03   5.12362e-04 DIIS
   @UHF iter   5:   -98.84093433158039   -1.05419e-04   7.75073e-05 DIIS
   @UHF iter   6:   -98.84093870991585   -4.37834e-06   1.98086e-05 DIIS
   @UHF iter   7:   -98.84093899573534   -2.85819e-07   2.96584e-06 DIIS
   @UHF iter   8:   -98.84093900087689   -5.14154e-09   3.14910e-07 DIIS
   @UHF iter   9:   -98.84093900094538   -6.84963e-11   3.96034e-08 DIIS
   @UHF iter  10:   -98.84093900094656   -1.17950e-12   5.03089e-09 DIIS

  ==> Post-Iterations <==

   @Spin Contamination Metric:   5.322466460E-03
   @S^2 Expected:                2.000000000E+00
   @S^2 Observed:                2.005322466E+00
   @S   Expected:                1.000000000E+00
   @S   Observed:                1.000000000E+00

    Orbital Energies (a.u.)
    -----------------------

    Alpha Occupied:                                                       

       1Ag   -27.193659     2Ag    -2.400808     1B3u   -1.537230  
       1B2u   -1.537230     1B1u   -1.415638  

    Alpha Virtual:                                                        

       3Ag    -0.139366     2B2u   -0.091290     2B3u   -0.091290  
       2B1u   -0.084634     4Ag     0.198495     1B1g    0.198495  
       1B2g    0.208380     1B3g    0.208380     5Ag     0.211755  
       3B3u    0.241069     3B2u    0.241069     3B1u    0.260260  
       6Ag     0.501587     4B3u    0.956567     4B2u    0.956567  
       1Au     0.966931     4B1u    0.966931     5B3u    0.973202  
       5B2u    0.973202     5B1u    0.975309     7Ag     1.124368  
       2B1g    1.124368     2B3g    1.156498     2B2g    1.156498  
       8Ag     1.167839     6B3u    1.449918     6B2u    1.449918  
       6B1u    1.500968     9Ag     2.846656     3B1g    2.846656  
       3B2g    2.861601     3B3g    2.861601    10Ag     2.872413  
       4B1g    2.872413     4B2g    2.878961     4B3g    2.878961  
      11Ag     2.881154    12Ag     3.001258     7B2u    3.286330  
       7B3u    3.286330     2Au     3.316372     7B1u    3.316372  
       8B2u    3.334614     8B3u    3.334614     8B1u    3.340742  
      13Ag     3.523572     5B1g    3.523572     5B3g    3.583504  
       5B2g    3.583504    14Ag     3.604552     9B3u    5.229341  
       9B2u    5.229341     9B1u    5.316347    10B3u    7.367624  
      10B2u    7.367624     3Au     7.389434    10B1u    7.389434  
      11B2u    7.406516    11B3u    7.406516    11B1u    7.418782  
       4Au     7.418782    12B2u    7.426168    12B3u    7.426168  
      12B1u    7.428635    15Ag     8.307732     6B1g    8.307732  
       6B3g    8.342844     6B2g    8.342844    16Ag     8.368183  
       7B1g    8.368183     7B3g    8.383498     7B2g    8.383498  
      17Ag     8.388623    13B2u    9.088993    13B3u    9.088993  
      13B1u    9.144284     5Au     9.144284    14B2u    9.177846  
      14B3u    9.177846    14B1u    9.189105    18Ag    10.025353  
       8B1g   10.025353     8B2g   10.104029     8B3g   10.104029  
      19Ag    10.131020    20Ag    12.063237    15B3u   18.424776  
      15B2u   18.424776    15B1u   18.512679    16B3u   20.116937  
      16B2u   20.116937     6Au    20.156856    16B1u   20.156856  
      17B3u   20.188078    17B2u   20.188078     7Au    20.210474  
      17B1u   20.210474    18B3u   20.223950    18B2u   20.223950  
      18B1u   20.228449    21Ag    23.641514     9B1g   23.641514  
       9B2g   23.695779     9B3g   23.695779    22Ag    23.734771  
      10B1g   23.734771    10B2g   23.758262    10B3g   23.758262  
      23Ag    23.766108    19B2u   24.726316    19B3u   24.726316  
       8Au    24.792596    19B1u   24.792596    20B2u   24.832651  
      20B3u   24.832651    20B1u   24.846054    11B1g   27.946923  
      24Ag    27.946923    11B2g   28.023047    11B3g   28.023047  
      25Ag    28.048792    26Ag    75.827179  

    Beta Occupied:                                                        

       1Ag   -27.088111     2Ag    -1.993975     1B1u   -1.310654  

    Beta Virtual:                                                         

       1B3u   -0.493566     1B2u   -0.493566     3Ag    -0.128105  
       2B1u   -0.082615     2B3u   -0.072508     2B2u   -0.072508  
       4Ag     0.210921     1B1g    0.210921     1B3g    0.214049  
       1B2g    0.214049     5Ag     0.215289     3B1u    0.269200  
       3B3u    0.305757     3B2u    0.305757     6Ag     0.540717  
       4B2u    0.964122     4B3u    0.964122     1Au     0.971552  
       4B1u    0.971552     5B2u    0.976032     5B3u    0.976032  
       5B1u    0.977529     7Ag     1.198825     2B3g    1.201030  
       2B2g    1.201030     8Ag     1.210282     2B1g    1.210282  
       6B1u    1.527399     6B3u    1.585125     6B2u    1.585125  
       9Ag     2.859146     3B1g    2.859146     3B3g    2.870558  
       3B2g    2.870558    10Ag     2.878732     4B1g    2.878732  
       4B3g    2.883641     4B2g    2.883641    11Ag     2.885277  
      12Ag     3.090301     7B2u    3.338250     7B3u    3.338250  
       2Au     3.351107     7B1u    3.351107     8B2u    3.358783  
       8B3u    3.358783     8B1u    3.361334    13Ag     3.679396  
       5B3g    3.684155     5B2g    3.684155    14Ag     3.702451  
       5B1g    3.702451     9B1u    5.359391     9B3u    5.391786  
       9B2u    5.391786    10B3u    7.390461    10B2u    7.390461  
      10B1u    7.407394     3Au     7.407394    11B2u    7.420615  
      11B3u    7.420615     4Au     7.430086    11B1u    7.430086  
      12B2u    7.435779    12B3u    7.435779    12B1u    7.437679  
       6B1g    8.362308    15Ag     8.362308     6B3g    8.384126  
       6B2g    8.384126    16Ag     8.399717     7B1g    8.399717  
       7B3g    8.409070     7B2g    8.409070    17Ag     8.412187  
      13B2u    9.205330    13B3u    9.205330     5Au     9.226090  
      13B1u    9.226090    14B2u    9.238511    14B3u    9.238511  
      14B1u    9.242646    18Ag    10.211175     8B1g   10.211175  
       8B2g   10.213975     8B3g   10.213975    19Ag    10.215082  
      20Ag    12.162198    15B3u   18.548174    15B2u   18.548174  
      15B1u   18.551363    16B3u   20.176399    16B2u   20.176399  
       6Au    20.205117    16B1u   20.205117    17B3u   20.227531  
      17B2u   20.227531     7Au    20.243582    17B1u   20.243582  
      18B3u   20.253229    18B2u   20.253229    18B1u   20.256448  
       9B1g   23.737829    21Ag    23.737829     9B2g   23.770786  
       9B3g   23.770786    22Ag    23.794377    10B1g   23.794377  
      10B2g   23.808551    10B3g   23.808551    23Ag    23.813279  
      19B2u   24.850910    19B3u   24.850910     8Au    24.882358  
      19B1u   24.882358    20B2u   24.901271    20B3u   24.901271  
      20B1u   24.907583    11B1g   28.073385    24Ag    28.073385  
      11B2g   28.099834    11B3g   28.099834    25Ag    28.108739  
      26Ag    75.868573  

    Final Occupation by Irrep:
             Ag   B1g   B2g   B3g    Au   B1u   B2u   B3u 
    DOCC [     2,    0,    0,    0,    0,    1,    0,    0 ]
    SOCC [     0,    0,    0,    0,    0,    0,    1,    1 ]

  Energy converged.

  @UHF Final Energy:   -98.84093900094656

   => Energetics <=

    Nuclear Repulsion Energy =              0.0000000000000000
    One-Electron Energy =                -133.2045722320653738
    Two-Electron Energy =                  34.3636332311188113
    Total Energy =                        -98.8409390009465625


  UHF NO Occupations:
  HONO-2 :    2 Ag 1.9979036
  HONO-1 :    1B2u 1.0000000
  HONO-0 :    1B3u 1.0000000
  LUNO+0 :    3 Ag 0.0020964
  LUNO+1 :    2B1u 0.0005646
  LUNO+2 :    4 Ag 0.0000026
  LUNO+3 :    5 Ag 0.0000000



Properties will be evaluated at   0.000000,   0.000000,   0.000000 Bohr

Properties computed using the SCF density matrix

  Nuclear Dipole Moment: (a.u.)
     X:     0.0000      Y:     0.0000      Z:     0.0000

  Electronic Dipole Moment: (a.u.)
     X:     0.0000      Y:     0.0000      Z:     0.0000

  Dipole Moment: (a.u.)
     X:     0.0000      Y:     0.0000      Z:     0.0000     Total:     0.0000

  Dipole Moment: (Debye)
     X:     0.0000      Y:     0.0000      Z:     0.0000     Total:     0.0000


*** tstop() called on cqc05 at Fri Aug 21 06:51:46 2020
Module time:
	user time   =       5.99 seconds =       0.10 minutes
	system time =       0.21 seconds =       0.00 minutes
	total time  =          6 seconds =       0.10 minutes
Total time:
	user time   =       5.99 seconds =       0.10 minutes
	system time =       0.21 seconds =       0.00 minutes
	total time  =          6 seconds =       0.10 minutes

*** tstart() called on cqc05
*** at Fri Aug 21 06:51:46 2020


	Wfn Parameters:
	--------------------
	Wavefunction         = CCSD
	Number of irreps     = 8
	Number of MOs        = 127
	Number of active MOs = 126
	AO-Basis             = NONE
	Semicanonical        = false
	Reference            = UHF
	Print Level          = 1

	IRREP	# MOs	# FZDC	# DOCC	# SOCC	# VIRT	# FZVR
	-----	-----	------	------	------	------	------
	 Ag	   26	    1	    1	    0	    24	    0
	 B1g	   11	    0	    0	    0	    11	    0
	 B2g	   11	    0	    0	    0	    11	    0
	 B3g	   11	    0	    0	    0	    11	    0
	 Au	   8	    0	    0	    0	    8	    0
	 B1u	   20	    0	    1	    0	    19	    0
	 B2u	   20	    0	    0	    1	    19	    0
	 B3u	   20	    0	    0	    1	    19	    0
	Transforming integrals...
	IWL integrals will be deleted.
	(OO|OO)...
	Presorting SO-basis two-electron integrals.
	Sorting File: SO Ints (nn|nn) nbuckets = 1
	Transforming the one-electron integrals and constructing Fock matrices
	Starting AA/AB first half-transformation.
	Sorting AA/AB half-transformed integrals.
	Starting BB first half-transformation.
	Sorting BB half-transformed integrals.
	First half integral transformation complete.
	Starting AA second half-transformation.
	Starting AB second half-transformation.
	Starting BB second half-transformation.
	Two-electron integral transformation complete.
	(OO|OV)...
	Starting AA second half-transformation.
	Starting AB second half-transformation.
	Starting BB second half-transformation.
	Two-electron integral transformation complete.
	(OO|VV)...
	Starting AA second half-transformation.
	Starting AB second half-transformation.
	Starting BB second half-transformation.
	Two-electron integral transformation complete.
	(OV|OO)...
	Starting AA/AB first half-transformation.
	Sorting AA/AB half-transformed integrals.
	Starting BB first half-transformation.
	Sorting BB half-transformed integrals.
	First half integral transformation complete.
	Starting AA second half-transformation.
	Starting AB second half-transformation.
	Starting BB second half-transformation.
	Two-electron integral transformation complete.
	(OV|OV)...
	Starting AA second half-transformation.
	Starting AB second half-transformation.
	Starting BB second half-transformation.
	Two-electron integral transformation complete.
	(OV|VV)...
	Starting AA second half-transformation.
	Starting AB second half-transformation.
	Starting BB second half-transformation.
	Two-electron integral transformation complete.
	(VV|OO)...
	Starting AA/AB first half-transformation.
	Sorting AA/AB half-transformed integrals.
	Starting BB first half-transformation.
	Sorting BB half-transformed integrals.
	First half integral transformation complete.
	Starting AA second half-transformation.
	Starting AB second half-transformation.
	Starting BB second half-transformation.
	Two-electron integral transformation complete.
	(VV|OV)...
	Starting AA second half-transformation.
	Starting AB second half-transformation.
	Starting BB second half-transformation.
	Two-electron integral transformation complete.
	(VV|VV)...
	Starting AA second half-transformation.
	Starting AB second half-transformation.
	Starting BB second half-transformation.
	Two-electron integral transformation complete.
	Frozen core energy     =    -75.47983796061791

	Size of irrep 0 of <AB|CD> integrals:      0.964 (MW) /      7.715 (MB)
	Size of irrep 1 of <AB|CD> integrals:      0.806 (MW) /      6.451 (MB)
	Size of irrep 2 of <AB|CD> integrals:      0.806 (MW) /      6.451 (MB)
	Size of irrep 3 of <AB|CD> integrals:      0.806 (MW) /      6.451 (MB)
	Size of irrep 4 of <AB|CD> integrals:      0.671 (MW) /      5.366 (MB)
	Size of irrep 5 of <AB|CD> integrals:      0.925 (MW) /      7.404 (MB)
	Size of irrep 6 of <AB|CD> integrals:      0.925 (MW) /      7.404 (MB)
	Size of irrep 7 of <AB|CD> integrals:      0.925 (MW) /      7.404 (MB)
	Total:                                     6.831 (MW) /     54.645 (MB)

	Size of irrep 0 of <ab|cd> integrals:      1.040 (MW) /      8.323 (MB)
	Size of irrep 1 of <ab|cd> integrals:      0.878 (MW) /      7.024 (MB)
	Size of irrep 2 of <ab|cd> integrals:      0.856 (MW) /      6.845 (MB)
	Size of irrep 3 of <ab|cd> integrals:      0.856 (MW) /      6.845 (MB)
	Size of irrep 4 of <ab|cd> integrals:      0.707 (MW) /      5.658 (MB)
	Size of irrep 5 of <ab|cd> integrals:      0.968 (MW) /      7.746 (MB)
	Size of irrep 6 of <ab|cd> integrals:      0.994 (MW) /      7.952 (MB)
	Size of irrep 7 of <ab|cd> integrals:      0.994 (MW) /      7.952 (MB)
	Total:                                     7.293 (MW) /     58.345 (MB)

	Size of irrep 0 of <Ab|Cd> integrals:      4.511 (MW) /     36.091 (MB)
	Size of irrep 1 of <Ab|Cd> integrals:      3.364 (MW) /     26.908 (MB)
	Size of irrep 2 of <Ab|Cd> integrals:      3.323 (MW) /     26.587 (MB)
	Size of irrep 3 of <Ab|Cd> integrals:      3.323 (MW) /     26.587 (MB)
	Size of irrep 4 of <Ab|Cd> integrals:      2.756 (MW) /     22.045 (MB)
	Size of irrep 5 of <Ab|Cd> integrals:      3.787 (MW) /     30.295 (MB)
	Size of irrep 6 of <Ab|Cd> integrals:      3.838 (MW) /     30.701 (MB)
	Size of irrep 7 of <Ab|Cd> integrals:      3.838 (MW) /     30.701 (MB)
	Total:                                    28.739 (MW) /    229.916 (MB)

	Size of irrep 0 of <IA|BC> integrals:      0.169 (MW) /      1.352 (MB)
	Size of irrep 1 of <IA|BC> integrals:      0.102 (MW) /      0.819 (MB)
	Size of irrep 2 of <IA|BC> integrals:      0.102 (MW) /      0.819 (MB)
	Size of irrep 3 of <IA|BC> integrals:      0.102 (MW) /      0.819 (MB)
	Size of irrep 4 of <IA|BC> integrals:      0.067 (MW) /      0.537 (MB)
	Size of irrep 5 of <IA|BC> integrals:      0.125 (MW) /      1.000 (MB)
	Size of irrep 6 of <IA|BC> integrals:      0.125 (MW) /      1.000 (MB)
	Size of irrep 7 of <IA|BC> integrals:      0.125 (MW) /      1.000 (MB)
	Total:                                     0.918 (MW) /      7.347 (MB)

	Size of irrep 0 of <ia|bc> integrals:      0.093 (MW) /      0.744 (MB)
	Size of irrep 1 of <ia|bc> integrals:      0.036 (MW) /      0.285 (MB)
	Size of irrep 2 of <ia|bc> integrals:      0.057 (MW) /      0.459 (MB)
	Size of irrep 3 of <ia|bc> integrals:      0.057 (MW) /      0.459 (MB)
	Size of irrep 4 of <ia|bc> integrals:      0.032 (MW) /      0.256 (MB)
	Size of irrep 5 of <ia|bc> integrals:      0.085 (MW) /      0.677 (MB)
	Size of irrep 6 of <ia|bc> integrals:      0.062 (MW) /      0.495 (MB)
	Size of irrep 7 of <ia|bc> integrals:      0.062 (MW) /      0.495 (MB)
	Total:                                     0.484 (MW) /      3.869 (MB)

	Size of irrep 0 of <Ia|Bc> integrals:      0.176 (MW) /      1.410 (MB)
	Size of irrep 1 of <Ia|Bc> integrals:      0.108 (MW) /      0.866 (MB)
	Size of irrep 2 of <Ia|Bc> integrals:      0.106 (MW) /      0.846 (MB)
	Size of irrep 3 of <Ia|Bc> integrals:      0.106 (MW) /      0.846 (MB)
	Size of irrep 4 of <Ia|Bc> integrals:      0.068 (MW) /      0.544 (MB)
	Size of irrep 5 of <Ia|Bc> integrals:      0.126 (MW) /      1.012 (MB)
	Size of irrep 6 of <Ia|Bc> integrals:      0.129 (MW) /      1.034 (MB)
	Size of irrep 7 of <Ia|Bc> integrals:      0.129 (MW) /      1.034 (MB)
	Total:                                     0.949 (MW) /      7.593 (MB)

	Size of irrep 0 of <iA|bC> integrals:      0.091 (MW) /      0.731 (MB)
	Size of irrep 1 of <iA|bC> integrals:      0.035 (MW) /      0.279 (MB)
	Size of irrep 2 of <iA|bC> integrals:      0.055 (MW) /      0.438 (MB)
	Size of irrep 3 of <iA|bC> integrals:      0.055 (MW) /      0.438 (MB)
	Size of irrep 4 of <iA|bC> integrals:      0.032 (MW) /      0.252 (MB)
	Size of irrep 5 of <iA|bC> integrals:      0.084 (MW) /      0.669 (MB)
	Size of irrep 6 of <iA|bC> integrals:      0.059 (MW) /      0.470 (MB)
	Size of irrep 7 of <iA|bC> integrals:      0.059 (MW) /      0.470 (MB)
	Total:                                     0.468 (MW) /      3.747 (MB)

	Size of irrep 0 of tIjAb amplitudes:       0.004 (MW) /      0.034 (MB)
	Size of irrep 1 of tIjAb amplitudes:       0.000 (MW) /      0.000 (MB)
	Size of irrep 2 of tIjAb amplitudes:       0.002 (MW) /      0.015 (MB)
	Size of irrep 3 of tIjAb amplitudes:       0.002 (MW) /      0.015 (MB)
	Size of irrep 4 of tIjAb amplitudes:       0.000 (MW) /      0.000 (MB)
	Size of irrep 5 of tIjAb amplitudes:       0.004 (MW) /      0.031 (MB)
	Size of irrep 6 of tIjAb amplitudes:       0.002 (MW) /      0.016 (MB)
	Size of irrep 7 of tIjAb amplitudes:       0.002 (MW) /      0.016 (MB)
	Total:                                     0.016 (MW) /      0.126 (MB)

	Nuclear Rep. energy          =      0.00000000000000
	SCF energy                   =    -98.84093900094656
	One-electron energy          =    -36.52666705704591
	Two-electron (AA) energy     =      4.91485003986431
	Two-electron (BB) energy     =      0.72926680918602
	Two-electron (AB) energy     =      7.52144916766684
	Two-electron energy          =     13.16556601671717
	Reference energy             =    -98.84093900094665

*** tstop() called on cqc05 at Fri Aug 21 06:51:50 2020
Module time:
	user time   =       2.37 seconds =       0.04 minutes
	system time =       1.41 seconds =       0.02 minutes
	total time  =          4 seconds =       0.07 minutes
Total time:
	user time   =       8.36 seconds =       0.14 minutes
	system time =       1.62 seconds =       0.03 minutes
	total time  =         10 seconds =       0.17 minutes

*** tstart() called on cqc05
*** at Fri Aug 21 06:51:50 2020

            **************************
            *                        *
            *        CCENERGY        *
            *                        *
            **************************

    Nuclear Rep. energy (wfn)     =    0.000000000000000
    SCF energy          (wfn)     =  -98.840939000946562
    Reference energy    (file100) =  -98.840939000946648

    Input parameters:
    -----------------
    Wave function   =     CCSD
    Reference wfn   =     UHF
    Brueckner       =     No
    Memory (Mbytes) =     250000.0
    Maxiter         =     50
    R_Convergence   =     1.0e-07
    E_Convergence   =     1.0e-06
    Restart         =     Yes
    DIIS            =     Yes
    AO Basis        =     NONE
    ABCD            =     NEW
    Cache Level     =     2
    Cache Type      =     LRU
    Print Level     =     1
    Num. of threads =     4
    # Amps to Print =     10
    Print MP2 Amps? =     No
    Analyze T2 Amps =     No
    Print Pair Ener =     No
    Local CC        =     No
    SCS-MP2         =     False
    SCSN-MP2        =     False
    SCS-CCSD        =     False

MP2 correlation energy -0.1662692728093967
                Solving CC Amplitude Equations
                ------------------------------
  Iter             Energy              RMS        T1Diag      D1Diag    New D1Diag    D2Diag
  ----     ---------------------    ---------   ----------  ----------  ----------   --------
     0        -0.166269272809397    0.000e+00    0.000000    0.000000    0.000000    0.000000
     1        -0.176398776841761    2.006e-02    0.003766    0.000000    0.000000    0.000000
     2        -0.179196725919692    6.635e-03    0.005235    0.000000    0.000000    0.000000
     3        -0.179249254919148    1.718e-03    0.005571    0.000000    0.000000    0.000000
     4        -0.179244246509563    5.711e-04    0.005592    0.000000    0.000000    0.000000
     5        -0.179252465923925    1.695e-04    0.005586    0.000000    0.000000    0.000000
     6        -0.179253017868528    3.965e-05    0.005583    0.000000    0.000000    0.000000
     7        -0.179253031200596    1.002e-05    0.005583    0.000000    0.000000    0.000000
     8        -0.179252956946942    2.402e-06    0.005583    0.000000    0.000000    0.000000
     9        -0.179252942487035    5.331e-07    0.005583    0.000000    0.000000    0.000000
    10        -0.179252949880509    1.285e-07    0.005583    0.000000    0.000000    0.000000
    11        -0.179252948933165    3.579e-08    0.005583    0.000000    0.000000    0.000000
    11        -0.179252948933165    3.579e-08    0.005583    0.000000    0.000000    0.000000

    Iterations converged.


    CCSD corr. energy   =   -0.179252948933165
    PPL corr. energy    =    0.030579336882408
    OS PPL corr. energy =    0.025785028391111
    SS PPL corr. energy =    0.004794308491298
    Largest TIA Amplitudes:
              2  85        -0.0034457712
              3 104        -0.0034457712
              1  66        -0.0032751930
              0   0         0.0032605939
              0   3        -0.0029219433
              2  84        -0.0028457125
              3 103        -0.0028457125
              1  65        -0.0026585681
              0   5        -0.0024935430
              0   2         0.0015123231

    Largest Tia Amplitudes:
              0   4         0.0056155907
              0  10        -0.0041275481
              0   2        -0.0029646082
              0   9        -0.0028267994
              0   3         0.0027696398
              1  72         0.0025039698
              1  69         0.0017902967
              0   0        -0.0014781118
              1  65        -0.0014733711
              1  66        -0.0011396083

    Largest TIJAB Amplitudes:
      3   1 107  69        -0.0126012387
      2   1  88  69        -0.0126012387
      3   2 107  88        -0.0125728019
      3   2  25   4         0.0108960236
      3   2  28  10         0.0101042854
      3   1  36   5        -0.0100890962
      2   1  47   5        -0.0100890962
      3   1 107  66        -0.0098658703
      2   1  88  66        -0.0098658703
      3   1 104  69        -0.0096077778

    Largest Tijab Amplitudes:
      1   0  84  47        -0.0130678974
      1   0 104  36        -0.0130678974
      1   0  84  50         0.0094770255
      1   0 104  39         0.0094770255
      1   0  84  46         0.0071383846
      1   0 104  35         0.0071383846
      1   0  69   3        -0.0066963414
      1   0  69   9         0.0061216613
      1   0  66   3        -0.0060440175
      1   0  66   9         0.0044260636

    Largest TIjAb Amplitudes:
      2   0   4  84        -0.0254898382
      2   0  25 104         0.0254898382
      3   0   4 104         0.0254898382
      3   0  25  84         0.0254898382
      1   0  36 104         0.0250690567
      1   0  47  84         0.0250690567
      1   1  69  69        -0.0235680582
      2   0  10  84         0.0209388382
      2   0  28 104        -0.0209388382
      3   0  10 104        -0.0209388382

    SCF energy       (wfn)                    =  -98.840939000946562
    Reference energy (file100)                =  -98.840939000946648

    Opposite-spin MP2 correlation energy      =   -0.127817326346451
    Same-spin MP2 correlation energy          =   -0.038451946462944
    MP2 correlation energy                    =   -0.166269272809397
      * MP2 total energy                      =  -99.007208273756049

    Opposite-spin CCSD correlation energy     =   -0.140192857266400
    Same-spin CCSD correlation energy         =   -0.039060091438991
    CCSD correlation energy                   =   -0.179252948933165
      * CCSD total energy                     =  -99.020191949879816


*** tstop() called on cqc05 at Fri Aug 21 06:51:53 2020
Module time:
	user time   =       1.32 seconds =       0.02 minutes
	system time =       1.13 seconds =       0.02 minutes
	total time  =          3 seconds =       0.05 minutes
Total time:
	user time   =       9.68 seconds =       0.16 minutes
	system time =       2.75 seconds =       0.05 minutes
	total time  =         13 seconds =       0.22 minutes

*** Psi4 exiting successfully. Buy a developer a beer!
