
    -----------------------------------------------------------------------
          Psi4: An Open-Source Ab Initio Electronic Structure Package
                               Psi4 1.2a1.dev938 

                         Git: Rev {HEAD} fc51d9a dirty


    R. M. Parrish, L. A. Burns, D. G. A. Smith, A. C. Simmonett,
    A. E. DePrince III, E. G. Hohenstein, U. Bozkaya, A. Yu. Sokolov,
    R. Di Remigio, R. M. Richard, J. F. Gonthier, A. M. James,
    H. R. McAlexander, A. Kumar, M. Saitow, X. Wang, B. P. Pritchard,
    P. Verma, H. F. Schaefer III, K. Patkowski, R. A. King, E. F. Valeev,
    F. A. Evangelista, J. M. Turney, T. D. Crawford, and C. D. Sherrill,
    J. Chem. Theory Comput. 13(7) pp 3185--3197 (2017).
    (doi: 10.1021/acs.jctc.7b00174)

    -----------------------------------------------------------------------


    Psi4 started on: Thursday, 20 August 2020 07:58PM

    Process ID: 423347
    PSIDATADIR: /home/irmler/Programs/psi4/beforeGrueneis3/stage/usr/local/psi4/share/psi4
    Memory:     500.0 MiB
    Threads:    4
    
  ==> Input File <==

--------------------------------------------------------------------------
# Any line starting with the # character is a comment line
memory 250000 mb
molecule molecule{
0 3
C          0.0000000000        0.0000000000        0.0617255210
H          0.0000000000       -0.9845498409       -0.3677725027
H          0.0000000000        0.9845498409       -0.3677725027
}

set {
  reference uhf
  basis aug-cc-pv(t+d)z
  scf_type OUT_OF_CORE
  freeze_core true
}

energy('ccsd')
--------------------------------------------------------------------------

  Memory set to 232.831 GiB by Python driver.

*** tstart() called on cqc05
*** at Thu Aug 20 19:58:39 2020

   => Loading Basis Set <=

    Name: AUG-CC-PV(T+D)Z
    Role: ORBITAL
    Keyword: BASIS
    atoms 1   entry C          line   255 file /home/irmler/Programs/psi4/beforeGrueneis3/stage/usr/local/psi4/share/psi4/basis/aug-cc-pv_tpd_z.gbs 
    atoms 2-3 entry H          line    56 file /home/irmler/Programs/psi4/beforeGrueneis3/stage/usr/local/psi4/share/psi4/basis/aug-cc-pv_tpd_z.gbs 


         ---------------------------------------------------------
                                   SCF
            by Justin Turney, Rob Parrish, Andy Simmonett
                             and Daniel Smith
                              UHF Reference
                        4 Threads, 238418 MiB Core
         ---------------------------------------------------------

  ==> Geometry <==

    Molecular point group: c2v
    Full point group: C2v

    Geometry (in Angstrom), charge = 0, multiplicity = 3:

       Center              X                  Y                   Z               Mass       
    ------------   -----------------  -----------------  -----------------  -----------------
           C          0.000000000000     0.000000000000     0.061767931923    12.000000000000
           H          0.000000000000    -0.984549840900    -0.367730091777     1.007825032070
           H         -0.000000000000     0.984549840900    -0.367730091777     1.007825032070

  Running in c2v symmetry.

  Rotational constants: A =     52.95305  B =      8.62792  C =      7.41909 [cm^-1]
  Rotational constants: A = 1587492.63601  B = 258658.43565  C = 222418.61359 [MHz]
  Nuclear repulsion =    6.180487197024922

  Charge       = 0
  Multiplicity = 3
  Electrons    = 8
  Nalpha       = 5
  Nbeta        = 3

  ==> Algorithm <==

  SCF Algorithm Type is OUT_OF_CORE.
  DIIS enabled.
  MOM disabled.
  Fractional occupation disabled.
  Guess Type is GWH.
  Energy threshold   = 1.00e-08
  Density threshold  = 1.00e-08
  Integral threshold = 0.00e+00

  ==> Primary Basis <==

  Basis Set: AUG-CC-PV(T+D)Z
    Blend: AUG-CC-PV(T+D)Z
    Number of shells: 32
    Number of basis function: 92
    Number of Cartesian functions: 105
    Spherical Harmonics?: true
    Max angular momentum: 3

  ==> Pre-Iterations <==

   -------------------------------------------------------
    Irrep   Nso     Nmo     Nalpha   Nbeta   Ndocc  Nsocc
   -------------------------------------------------------
     A1        35      35       0       0       0       0
     A2        12      12       0       0       0       0
     B1        18      18       0       0       0       0
     B2        27      27       0       0       0       0
   -------------------------------------------------------
    Total      92      92       5       3       3       2
   -------------------------------------------------------

  ==> Integral Setup <==

  ==> DiskJK: Disk-Based J/K Matrices <==

    J tasked:                  Yes
    K tasked:                  Yes
    wK tasked:                  No
    Memory (MB):            178813
    Schwarz Cutoff:          1E-12

  Minimum eigenvalue in the overlap matrix is 1.2715802004E-04.
  Using Symmetric Orthogonalization.

  SCF Guess: Generalized Wolfsberg-Helmholtz.

  ==> Iterations <==

                        Total Energy        Delta E     RMS |[F,P]|

   @UHF iter   1:   -36.51677063591593   -3.65168e+01   1.01145e-01 
   @UHF iter   2:   -38.74133100979429   -2.22456e+00   2.16024e-02 DIIS
   @UHF iter   3:   -38.92110820826017   -1.79777e-01   5.89051e-03 DIIS
   @UHF iter   4:   -38.93617053858662   -1.50623e-02   9.71680e-04 DIIS
   @UHF iter   5:   -38.93790675771803   -1.73622e-03   4.06805e-04 DIIS
   @UHF iter   6:   -38.93819201708683   -2.85259e-04   9.55741e-05 DIIS
   @UHF iter   7:   -38.93820709291183   -1.50758e-05   2.09948e-05 DIIS
   @UHF iter   8:   -38.93820764300666   -5.50095e-07   4.76275e-06 DIIS
   @UHF iter   9:   -38.93820767105908   -2.80524e-08   1.01108e-06 DIIS
   @UHF iter  10:   -38.93820767232494   -1.26586e-09   3.66237e-07 DIIS
   @UHF iter  11:   -38.93820767253266   -2.07727e-10   1.08130e-07 DIIS
   @UHF iter  12:   -38.93820767255191   -1.92486e-11   2.80977e-08 DIIS
   @UHF iter  13:   -38.93820767255341   -1.49925e-12   5.15072e-09 DIIS

  ==> Post-Iterations <==

   @Spin Contamination Metric:   1.596641914E-02
   @S^2 Expected:                2.000000000E+00
   @S^2 Observed:                2.015966419E+00
   @S   Expected:                1.000000000E+00
   @S   Observed:                1.000000000E+00

    Orbital Energies (a.u.)
    -----------------------

    Alpha Occupied:                                                       

       1A1   -11.265724     2A1    -0.950658     1B2    -0.619070  
       3A1    -0.453127     1B1    -0.409416  

    Alpha Virtual:                                                        

       4A1     0.030524     2B2     0.045207     5A1     0.088668  
       2B1     0.093887     3B2     0.136958     6A1     0.140085  
       7A1     0.203738     4B2     0.227337     1A2     0.259933  
       8A1     0.283572     3B1     0.288345     9A1     0.334777  
       5B2     0.335957     4B1     0.341640     6B2     0.371374  
      10A1     0.395570    11A1     0.411202     2A2     0.416088  
       7B2     0.433760    12A1     0.545849     5B1     0.579402  
       8B2     0.699350    13A1     0.738264     9B2     0.799668  
       3A2     0.845145     6B1     0.875284    14A1     0.880615  
      10B2     0.917181    15A1     0.943339     7B1     0.958970  
      16A1     0.980803    11B2     0.993457     4A2     1.022722  
      12B2     1.031314     8B1     1.071317    17A1     1.074019  
       5A2     1.095590    18A1     1.099736     9B1     1.256132  
      19A1     1.259323    13B2     1.366578     6A2     1.384497  
      20A1     1.446533    14B2     1.452350    21A1     1.541450  
      10B1     1.551358    15B2     1.628730    11B1     1.639515  
      22A1     1.929249    16B2     1.930789     7A2     2.054346  
      17B2     2.085243    23A1     2.262365    18B2     2.858839  
      12B1     2.865504    24A1     2.955869    25A1     2.971005  
       8A2     3.202172    13B1     3.343081    26A1     3.399504  
      27A1     3.427437    19B2     3.429833    14B1     3.429938  
       9A2     3.515252    15B1     3.563362    20B2     3.575113  
      28A1     3.615269    21B2     3.761906    29A1     3.845764  
      22B2     4.017380    10A2     4.200038    30A1     4.237975  
      23B2     4.244988    16B1     4.258236    31A1     4.630733  
      17B1     4.655336    11A2     4.721487    24B2     4.923536  
      32A1     4.945960    12A2     5.252228    25B2     5.299737  
      18B1     5.303511    33A1     5.680039    34A1     5.913905  
      26B2     6.062537    27B2     6.344516    35A1    14.970955  

    Beta Occupied:                                                        

       1A1   -11.218659     2A1    -0.779832     1B2    -0.588349  

    Beta Virtual:                                                         

       3A1     0.032632     2B2     0.045679     4A1     0.057991  
       1B1     0.065574     3B2     0.138701     5A1     0.145673  
       6A1     0.157969     2B1     0.178434     7A1     0.213521  
       4B2     0.238679     1A2     0.269094     8A1     0.313675  
       3B1     0.314942     5B2     0.337515     9A1     0.364639  
       4B1     0.371859     6B2     0.378014    10A1     0.417436  
       2A2     0.425771    11A1     0.435629     7B2     0.452127  
      12A1     0.586899     5B1     0.675414     8B2     0.727889  
      13A1     0.792208     9B2     0.813495     3A2     0.866444  
       6B1     0.914393    14A1     0.919888    10B2     0.926686  
      15A1     0.966604     7B1     0.968847    16A1     1.002891  
      11B2     1.005313     4A2     1.029958    12B2     1.045424  
      17A1     1.105718     5A2     1.136008     8B1     1.138942  
      18A1     1.149545     9B1     1.294170    19A1     1.296532  
      13B2     1.388257     6A2     1.405236    14B2     1.463242  
      20A1     1.474675    10B1     1.571875    21A1     1.584426  
      15B2     1.656601    11B1     1.693122    22A1     1.948525  
      16B2     1.955333     7A2     2.076883    17B2     2.098325  
      23A1     2.299837    18B2     2.869202    12B1     2.941460  
      24A1     2.996001    25A1     3.042245     8A2     3.252414  
      13B1     3.437082    19B2     3.456677    26A1     3.471748  
      14B1     3.483035    27A1     3.518034     9A2     3.560308  
      20B2     3.607113    15B1     3.625404    28A1     3.655006  
      21B2     3.804392    29A1     3.863822    22B2     4.039224  
      10A2     4.224160    30A1     4.255805    23B2     4.264712  
      16B1     4.278175    31A1     4.638823    17B1     4.660583  
      11A2     4.723181    24B2     4.923205    32A1     4.958297  
      12A2     5.275831    25B2     5.311219    18B1     5.326273  
      33A1     5.698998    34A1     5.926019    26B2     6.077330  
      27B2     6.358877    35A1    15.003139  

    Final Occupation by Irrep:
             A1    A2    B1    B2 
    DOCC [     2,    0,    0,    1 ]
    SOCC [     1,    0,    1,    0 ]

  Energy converged.

  @UHF Final Energy:   -38.93820767255341

   => Energetics <=

    Nuclear Repulsion Energy =              6.1804871970249220
    One-Electron Energy =                 -63.9525540000392496
    Two-Electron Energy =                  18.8338591304609118
    Total Energy =                        -38.9382076725534176


  UHF NO Occupations:
  HONO-2 :    2 A1 1.9938531
  HONO-1 :    3 A1 1.0000000
  HONO-0 :    1 B1 1.0000000
  LUNO+0 :    4 A1 0.0061469
  LUNO+1 :    2 B2 0.0018549
  LUNO+2 :    5 A1 0.0000020
  LUNO+3 :    6 A1 0.0000000



Properties will be evaluated at   0.000000,   0.000000,   0.000000 Bohr

Properties computed using the SCF density matrix

  Nuclear Dipole Moment: (a.u.)
     X:     0.0000      Y:     0.0000      Z:    -0.6895

  Electronic Dipole Moment: (a.u.)
     X:     0.0000      Y:     0.0000      Z:     0.4604

  Dipole Moment: (a.u.)
     X:     0.0000      Y:     0.0000      Z:    -0.2291     Total:     0.2291

  Dipole Moment: (Debye)
     X:     0.0000      Y:     0.0000      Z:    -0.5823     Total:     0.5823


*** tstop() called on cqc05 at Thu Aug 20 19:58:41 2020
Module time:
	user time   =       1.72 seconds =       0.03 minutes
	system time =       0.11 seconds =       0.00 minutes
	total time  =          2 seconds =       0.03 minutes
Total time:
	user time   =       1.72 seconds =       0.03 minutes
	system time =       0.11 seconds =       0.00 minutes
	total time  =          2 seconds =       0.03 minutes

*** tstart() called on cqc05
*** at Thu Aug 20 19:58:41 2020


	Wfn Parameters:
	--------------------
	Wavefunction         = CCSD
	Number of irreps     = 4
	Number of MOs        = 92
	Number of active MOs = 91
	AO-Basis             = NONE
	Semicanonical        = false
	Reference            = UHF
	Print Level          = 1

	IRREP	# MOs	# FZDC	# DOCC	# SOCC	# VIRT	# FZVR
	-----	-----	------	------	------	------	------
	 A1	   35	    1	    1	    1	    32	    0
	 A2	   12	    0	    0	    0	    12	    0
	 B1	   18	    0	    0	    1	    17	    0
	 B2	   27	    0	    1	    0	    26	    0
	Transforming integrals...
	IWL integrals will be deleted.
	(OO|OO)...
	Presorting SO-basis two-electron integrals.
	Sorting File: SO Ints (nn|nn) nbuckets = 1
	Transforming the one-electron integrals and constructing Fock matrices
	Starting AA/AB first half-transformation.
	Sorting AA/AB half-transformed integrals.
	Starting BB first half-transformation.
	Sorting BB half-transformed integrals.
	First half integral transformation complete.
	Starting AA second half-transformation.
	Starting AB second half-transformation.
	Starting BB second half-transformation.
	Two-electron integral transformation complete.
	(OO|OV)...
	Starting AA second half-transformation.
	Starting AB second half-transformation.
	Starting BB second half-transformation.
	Two-electron integral transformation complete.
	(OO|VV)...
	Starting AA second half-transformation.
	Starting AB second half-transformation.
	Starting BB second half-transformation.
	Two-electron integral transformation complete.
	(OV|OO)...
	Starting AA/AB first half-transformation.
	Sorting AA/AB half-transformed integrals.
	Starting BB first half-transformation.
	Sorting BB half-transformed integrals.
	First half integral transformation complete.
	Starting AA second half-transformation.
	Starting AB second half-transformation.
	Starting BB second half-transformation.
	Two-electron integral transformation complete.
	(OV|OV)...
	Starting AA second half-transformation.
	Starting AB second half-transformation.
	Starting BB second half-transformation.
	Two-electron integral transformation complete.
	(OV|VV)...
	Starting AA second half-transformation.
	Starting AB second half-transformation.
	Starting BB second half-transformation.
	Two-electron integral transformation complete.
	(VV|OO)...
	Starting AA/AB first half-transformation.
	Sorting AA/AB half-transformed integrals.
	Starting BB first half-transformation.
	Sorting BB half-transformed integrals.
	First half integral transformation complete.
	Starting AA second half-transformation.
	Starting AB second half-transformation.
	Starting BB second half-transformation.
	Two-electron integral transformation complete.
	(VV|OV)...
	Starting AA second half-transformation.
	Starting AB second half-transformation.
	Starting BB second half-transformation.
	Two-electron integral transformation complete.
	(VV|VV)...
	Starting AA second half-transformation.
	Starting AB second half-transformation.
	Starting BB second half-transformation.
	Two-electron integral transformation complete.
	Frozen core energy     =    -34.32928581728593

	Size of irrep 0 of <AB|CD> integrals:      1.047 (MW) /      8.372 (MB)
	Size of irrep 1 of <AB|CD> integrals:      0.682 (MW) /      5.458 (MB)
	Size of irrep 2 of <AB|CD> integrals:      0.733 (MW) /      5.862 (MB)
	Size of irrep 3 of <AB|CD> integrals:      1.073 (MW) /      8.586 (MB)
	Total:                                     3.535 (MW) /     28.279 (MB)

	Size of irrep 0 of <ab|cd> integrals:      1.149 (MW) /      9.193 (MB)
	Size of irrep 1 of <ab|cd> integrals:      0.746 (MW) /      5.972 (MB)
	Size of irrep 2 of <ab|cd> integrals:      0.821 (MW) /      6.567 (MB)
	Size of irrep 3 of <ab|cd> integrals:      1.153 (MW) /      9.228 (MB)
	Total:                                     3.870 (MW) /     30.960 (MB)

	Size of irrep 0 of <Ab|Cd> integrals:      4.761 (MW) /     38.089 (MB)
	Size of irrep 1 of <Ab|Cd> integrals:      2.856 (MW) /     22.849 (MB)
	Size of irrep 2 of <Ab|Cd> integrals:      3.101 (MW) /     24.809 (MB)
	Size of irrep 3 of <Ab|Cd> integrals:      4.452 (MW) /     35.617 (MB)
	Total:                                    15.170 (MW) /    121.364 (MB)

	Size of irrep 0 of <IA|BC> integrals:      0.228 (MW) /      1.826 (MB)
	Size of irrep 1 of <IA|BC> integrals:      0.111 (MW) /      0.885 (MB)
	Size of irrep 2 of <IA|BC> integrals:      0.134 (MW) /      1.068 (MB)
	Size of irrep 3 of <IA|BC> integrals:      0.199 (MW) /      1.591 (MB)
	Total:                                     0.671 (MW) /      5.371 (MB)

	Size of irrep 0 of <ia|bc> integrals:      0.132 (MW) /      1.054 (MB)
	Size of irrep 1 of <ia|bc> integrals:      0.052 (MW) /      0.415 (MB)
	Size of irrep 2 of <ia|bc> integrals:      0.054 (MW) /      0.435 (MB)
	Size of irrep 3 of <ia|bc> integrals:      0.127 (MW) /      1.014 (MB)
	Total:                                     0.365 (MW) /      2.917 (MB)

	Size of irrep 0 of <Ia|Bc> integrals:      0.240 (MW) /      1.920 (MB)
	Size of irrep 1 of <Ia|Bc> integrals:      0.115 (MW) /      0.919 (MB)
	Size of irrep 2 of <Ia|Bc> integrals:      0.143 (MW) /      1.141 (MB)
	Size of irrep 3 of <Ia|Bc> integrals:      0.205 (MW) /      1.637 (MB)
	Total:                                     0.702 (MW) /      5.618 (MB)

	Size of irrep 0 of <iA|bC> integrals:      0.127 (MW) /      1.012 (MB)
	Size of irrep 1 of <iA|bC> integrals:      0.049 (MW) /      0.392 (MB)
	Size of irrep 2 of <iA|bC> integrals:      0.051 (MW) /      0.409 (MB)
	Size of irrep 3 of <iA|bC> integrals:      0.122 (MW) /      0.979 (MB)
	Total:                                     0.349 (MW) /      2.792 (MB)

	Size of irrep 0 of tIjAb amplitudes:       0.007 (MW) /      0.052 (MB)
	Size of irrep 1 of tIjAb amplitudes:       0.002 (MW) /      0.014 (MB)
	Size of irrep 2 of tIjAb amplitudes:       0.002 (MW) /      0.014 (MB)
	Size of irrep 3 of tIjAb amplitudes:       0.006 (MW) /      0.051 (MB)
	Total:                                     0.016 (MW) /      0.131 (MB)

	Nuclear Rep. energy          =      6.18048719702492
	SCF energy                   =    -38.93820767255341
	One-electron energy          =    -17.77836599196783
	Two-electron (AA) energy     =      2.58477376637457
	Two-electron (BB) energy     =      0.36175722411901
	Two-electron (AB) energy     =      4.04242594918179
	Two-electron energy          =      6.98895693967536
	Reference energy             =    -38.93820767255347

*** tstop() called on cqc05 at Thu Aug 20 19:58:43 2020
Module time:
	user time   =       1.35 seconds =       0.02 minutes
	system time =       0.74 seconds =       0.01 minutes
	total time  =          2 seconds =       0.03 minutes
Total time:
	user time   =       3.07 seconds =       0.05 minutes
	system time =       0.85 seconds =       0.01 minutes
	total time  =          4 seconds =       0.07 minutes

*** tstart() called on cqc05
*** at Thu Aug 20 19:58:43 2020

            **************************
            *                        *
            *        CCENERGY        *
            *                        *
            **************************

    Nuclear Rep. energy (wfn)     =    6.180487197024922
    SCF energy          (wfn)     =  -38.938207672553411
    Reference energy    (file100) =  -38.938207672553474

    Input parameters:
    -----------------
    Wave function   =     CCSD
    Reference wfn   =     UHF
    Brueckner       =     No
    Memory (Mbytes) =     250000.0
    Maxiter         =     50
    R_Convergence   =     1.0e-07
    E_Convergence   =     1.0e-06
    Restart         =     Yes
    DIIS            =     Yes
    AO Basis        =     NONE
    ABCD            =     NEW
    Cache Level     =     2
    Cache Type      =     LRU
    Print Level     =     1
    Num. of threads =     4
    # Amps to Print =     10
    Print MP2 Amps? =     No
    Analyze T2 Amps =     No
    Print Pair Ener =     No
    Local CC        =     No
    SCS-MP2         =     False
    SCSN-MP2        =     False
    SCS-CCSD        =     False

MP2 correlation energy -0.1193744445783446
                Solving CC Amplitude Equations
                ------------------------------
  Iter             Energy              RMS        T1Diag      D1Diag    New D1Diag    D2Diag
  ----     ---------------------    ---------   ----------  ----------  ----------   --------
     0        -0.119374444578346    0.000e+00    0.000000    0.000000    0.000000    0.000000
     1        -0.133103288501984    3.843e-02    0.008260    0.000000    0.000000    0.000000
     2        -0.137855224812435    1.542e-02    0.013680    0.000000    0.000000    0.000000
     3        -0.138241304108858    5.306e-03    0.016323    0.000000    0.000000    0.000000
     4        -0.138249149176908    1.562e-03    0.016895    0.000000    0.000000    0.000000
     5        -0.138254864968553    5.266e-04    0.016989    0.000000    0.000000    0.000000
     6        -0.138259441092835    1.885e-04    0.016982    0.000000    0.000000    0.000000
     7        -0.138260837893054    7.126e-05    0.016973    0.000000    0.000000    0.000000
     8        -0.138260810308241    2.186e-05    0.016970    0.000000    0.000000    0.000000
     9        -0.138260746258576    6.482e-06    0.016970    0.000000    0.000000    0.000000
    10        -0.138260768612181    2.292e-06    0.016970    0.000000    0.000000    0.000000
    11        -0.138260769526603    8.086e-07    0.016970    0.000000    0.000000    0.000000
    12        -0.138260772767359    2.274e-07    0.016970    0.000000    0.000000    0.000000
    13        -0.138260771916094    6.945e-08    0.016970    0.000000    0.000000    0.000000
    13        -0.138260771916094    6.945e-08    0.016970    0.000000    0.000000    0.000000

    Iterations converged.


    CCSD corr. energy   =   -0.138260771916094
    PPL corr. energy    =    0.035017358896831
    OS PPL corr. energy =    0.029633326119448
    SS PPL corr. energy =    0.005384032777381
    Largest TIA Amplitudes:
              2  44        -0.0100516294
              2  45        -0.0090290241
              1   1        -0.0076823780
              0   3        -0.0074211782
              1   4        -0.0064549573
              0   8        -0.0064435501
              0   7         0.0048820357
              1   3         0.0047478564
              2  48         0.0039174963
              1   8         0.0039013448

    Largest Tia Amplitudes:
              0   3         0.0142555858
              0   9         0.0133069207
              0   4         0.0118883627
              0   1         0.0100523494
              0   7        -0.0080481444
              0   8        -0.0065452090
              1  70         0.0063818899
              1  68         0.0057499055
              0   6        -0.0053575006
              0  12         0.0053185428

    Largest TIJAB Amplitudes:
      2   1  47   9         0.0161254837
      2   1  45   4        -0.0134005822
      3   1  66   8         0.0131355672
      2   1  48  10        -0.0127955567
      3   1  63   8         0.0123557112
      3   2  68  47        -0.0122250323
      2   1  47   5        -0.0121364786
      3   1  67   8         0.0120656343
      3   2  66  47        -0.0119599857
      2   1  47   1        -0.0116051015

    Largest Tijab Amplitudes:
      1   0  46  35         0.0062476649
      1   0  46  37        -0.0058891163
      1   0  69   3        -0.0053814170
      1   0  46  33        -0.0048832058
      1   0  68   3        -0.0046429214
      1   0  69   1        -0.0046203817
      1   0  65   3        -0.0045034252
      1   0  70   7         0.0043123057
      1   0  68   7         0.0038629632
      1   0  69   2         0.0036750095

    Largest TIjAb Amplitudes:
      3   1  68  70        -0.0233020994
      2   0   3  46        -0.0223728807
      3   1   8   9        -0.0217387621
      3   1  67  69        -0.0206837514
      2   0   9  46         0.0183304509
      3   1   3   9        -0.0182030269
      2   0   7  46         0.0181186263
      2   0  10  46         0.0181101691
      1   0  48  46        -0.0178039129
      3   1  66  70        -0.0177174895

    SCF energy       (wfn)                    =  -38.938207672553411
    Reference energy (file100)                =  -38.938207672553474

    Opposite-spin MP2 correlation energy      =   -0.092400310217704
    Same-spin MP2 correlation energy          =   -0.026974134360618
    MP2 correlation energy                    =   -0.119374444578345
      * MP2 total energy                      =  -39.057582117131822

    Opposite-spin CCSD correlation energy     =   -0.109491327663408
    Same-spin CCSD correlation energy         =   -0.028769441431276
    CCSD correlation energy                   =   -0.138260771916094
      * CCSD total energy                     =  -39.076468444469569


*** tstop() called on cqc05 at Thu Aug 20 19:58:46 2020
Module time:
	user time   =       1.15 seconds =       0.02 minutes
	system time =       0.83 seconds =       0.01 minutes
	total time  =          3 seconds =       0.05 minutes
Total time:
	user time   =       4.22 seconds =       0.07 minutes
	system time =       1.68 seconds =       0.03 minutes
	total time  =          7 seconds =       0.12 minutes

*** Psi4 exiting successfully. Buy a developer a beer!
