
    -----------------------------------------------------------------------
          Psi4: An Open-Source Ab Initio Electronic Structure Package
                               Psi4 1.2a1.dev939 

                         Git: Rev {HEAD} fa1ec19 dirty


    R. M. Parrish, L. A. Burns, D. G. A. Smith, A. C. Simmonett,
    A. E. DePrince III, E. G. Hohenstein, U. Bozkaya, A. Yu. Sokolov,
    R. Di Remigio, R. M. Richard, J. F. Gonthier, A. M. James,
    H. R. McAlexander, A. Kumar, M. Saitow, X. Wang, B. P. Pritchard,
    P. Verma, H. F. Schaefer III, K. Patkowski, R. A. King, E. F. Valeev,
    F. A. Evangelista, J. M. Turney, T. D. Crawford, and C. D. Sherrill,
    J. Chem. Theory Comput. 13(7) pp 3185--3197 (2017).
    (doi: 10.1021/acs.jctc.7b00174)

    -----------------------------------------------------------------------


    Psi4 started on: Friday, 15 January 2021 12:07PM

    Process ID: 231122
    PSIDATADIR: /home/fs71337/airmler/src/psi4_uhf/build/stage/usr/local/psi4/share/psi4
    Memory:     500.0 MiB
    Threads:    1
    
  ==> Input File <==

--------------------------------------------------------------------------
# Any line starting with the # character is a comment line
memory 250000 mb
molecule molecule{
0 3
C          0.0000000000        0.0000000000        0.0617255210
H          0.0000000000       -0.9845498409       -0.3677725027
H          0.0000000000        0.9845498409       -0.3677725027
}

set {
  reference uhf
  basis aug-cc-pv(6+d)z
  scf_type OUT_OF_CORE
  freeze_core true
  DOCC [     2,    0,    0,    1 ]
  SOCC [     1,    0,    1,    0 ]
}

energy('ccsd')
--------------------------------------------------------------------------

  Memory set to 232.831 GiB by Python driver.

*** tstart() called on n412-045.vsc4.prov
*** at Fri Jan 15 12:07:27 2021

   => Loading Basis Set <=

    Name: AUG-CC-PV(6+D)Z
    Role: ORBITAL
    Keyword: BASIS
    atoms 1   entry C          line   267 file /home/fs71337/airmler/src/psi4_uhf/build/stage/usr/local/psi4/share/psi4/basis/aug-cc-pv_6pd_z.gbs 
    atoms 2-3 entry H          line    51 file /home/fs71337/airmler/src/psi4_uhf/build/stage/usr/local/psi4/share/psi4/basis/aug-cc-pv_6pd_z.gbs 


         ---------------------------------------------------------
                                   SCF
            by Justin Turney, Rob Parrish, Andy Simmonett
                             and Daniel Smith
                              UHF Reference
                        1 Threads, 238418 MiB Core
         ---------------------------------------------------------

  ==> Geometry <==

    Molecular point group: c2v
    Full point group: C2v

    Geometry (in Angstrom), charge = 0, multiplicity = 3:

       Center              X                  Y                   Z               Mass       
    ------------   -----------------  -----------------  -----------------  -----------------
           C          0.000000000000     0.000000000000     0.061767931923    12.000000000000
           H          0.000000000000    -0.984549840900    -0.367730091777     1.007825032070
           H         -0.000000000000     0.984549840900    -0.367730091777     1.007825032070

  Running in c2v symmetry.

  Rotational constants: A =     52.95305  B =      8.62792  C =      7.41909 [cm^-1]
  Rotational constants: A = 1587492.63601  B = 258658.43565  C = 222418.61359 [MHz]
  Nuclear repulsion =    6.180487197024922

  Charge       = 0
  Multiplicity = 3
  Electrons    = 8
  Nalpha       = 5
  Nbeta        = 3

  ==> Algorithm <==

  SCF Algorithm Type is OUT_OF_CORE.
  DIIS enabled.
  MOM disabled.
  Fractional occupation disabled.
  Guess Type is GWH.
  Energy threshold   = 1.00e-08
  Density threshold  = 1.00e-08
  Integral threshold = 0.00e+00

  ==> Primary Basis <==

  Basis Set: AUG-CC-PV(6+D)Z
    Blend: AUG-CC-PV(6+D)Z
    Number of shells: 89
    Number of basis function: 443
    Number of Cartesian functions: 658
    Spherical Harmonics?: true
    Max angular momentum: 6

  ==> Pre-Iterations <==

   -------------------------------------------------------
    Irrep   Nso     Nmo     Nalpha   Nbeta   Ndocc  Nsocc
   -------------------------------------------------------
     A1       143     143       3       2       2       1
     A2        81      81       0       0       0       0
     B1        96      96       1       0       0       1
     B2       123     123       1       1       1       0
   -------------------------------------------------------
    Total     443     443       5       3       3       2
   -------------------------------------------------------

  ==> Integral Setup <==

  ==> DiskJK: Disk-Based J/K Matrices <==

    J tasked:                  Yes
    K tasked:                  Yes
    wK tasked:                  No
    Memory (MB):            178813
    Schwarz Cutoff:          1E-12

  Minimum eigenvalue in the overlap matrix is 1.0190433212E-06.
  Using Symmetric Orthogonalization.

  SCF Guess: Generalized Wolfsberg-Helmholtz.

  ==> Iterations <==

                        Total Energy        Delta E     RMS |[F,P]|

   @UHF iter   1:   124.65248217137736    1.24652e+02   1.01638e-01 
   @UHF iter   2:   -31.86449782048884   -1.56517e+02   2.36904e-02 DIIS
   @UHF iter   3:   -36.21157514965700   -4.34708e+00   6.50623e-03 DIIS
   @UHF iter   4:   -38.51946467285073   -2.30789e+00   3.94328e-03 DIIS
   @UHF iter   5:   -38.90876129424891   -3.89297e-01   8.92607e-04 DIIS
   @UHF iter   6:   -38.93947161382845   -3.07103e-02   1.38588e-04 DIIS
   @UHF iter   7:   -38.94076008447534   -1.28847e-03   5.37741e-05 DIIS
   @UHF iter   8:   -38.94099306060222   -2.32976e-04   1.05468e-05 DIIS
   @UHF iter   9:   -38.94100156100269   -8.50040e-06   3.55305e-06 DIIS
   @UHF iter  10:   -38.94100263480168   -1.07380e-06   8.02996e-07 DIIS
   @UHF iter  11:   -38.94100268684024   -5.20386e-08   2.60393e-07 DIIS
   @UHF iter  12:   -38.94100269360798   -6.76774e-09   8.49336e-08 DIIS
   @UHF iter  13:   -38.94100269436662   -7.58639e-10   2.14271e-08 DIIS
   @UHF iter  14:   -38.94100269441324   -4.66116e-11   4.64833e-09 DIIS

  ==> Post-Iterations <==

   @Spin Contamination Metric:   1.602803767E-02
   @S^2 Expected:                2.000000000E+00
   @S^2 Observed:                2.016028038E+00
   @S   Expected:                1.000000000E+00
   @S   Observed:                1.000000000E+00

    Orbital Energies (a.u.)
    -----------------------

    Alpha Occupied:                                                       

       1A1   -11.264596     2A1    -0.950353     1B2    -0.619036  
       3A1    -0.453330     1B1    -0.409701  

    Alpha Virtual:                                                        

       4A1     0.021204     2B2     0.032903     5A1     0.052585  
       2B1     0.054799     3B2     0.086174     6A1     0.094049  
       7A1     0.134989     4B2     0.138497     1A2     0.157473  
       8A1     0.169134     3B1     0.171455     9A1     0.201607  
       5B2     0.201980     4B1     0.209056    10A1     0.219867  
       6B2     0.231222     5B1     0.240041     2A2     0.247842  
       7B2     0.248282    11A1     0.256543    12A1     0.278437  
       8B2     0.290810    13A1     0.336954     9B2     0.386939  
       3A2     0.409721     6B1     0.421920    14A1     0.426420  
       7B1     0.462862    15A1     0.463417    10B2     0.481053  
       4A2     0.499423    16A1     0.505846    17A1     0.513575  
       8B1     0.513594    11B2     0.523289    18A1     0.549502  
      12B2     0.558451     9B1     0.561216     5A2     0.570090  
      13B2     0.585503    19A1     0.597453    20A1     0.628698  
       6A2     0.643496    14B2     0.656313    10B1     0.670992  
      15B2     0.693147    21A1     0.722400    16B2     0.738836  
      11B1     0.741789    22A1     0.745628     7A2     0.877910  
      23A1     0.913367    12B1     0.935093    17B2     0.939625  
      24A1     0.992531    18B2     1.006558    13B1     1.062342  
      25A1     1.067028    26A1     1.099467     8A2     1.116125  
      14B1     1.130516    27A1     1.133977    19B2     1.139855  
       9A2     1.149365    20B2     1.174148    28A1     1.213781  
      15B1     1.214676    10A2     1.217695    21B2     1.243915  
      22B2     1.306715    29A1     1.313571    16B1     1.317626  
      23B2     1.320606    30A1     1.330564    17B1     1.371261  
      31A1     1.372259    11A2     1.391555    24B2     1.398445  
      12A2     1.436539    32A1     1.439211    25B2     1.449632  
      33A1     1.464343    18B1     1.489091    19B1     1.526549  
      26B2     1.535318    34A1     1.555432    13A2     1.589411  
      35A1     1.607456    20B1     1.618269    36A1     1.633975  
      27B2     1.667910    14A2     1.689778    21B1     1.792772  
      28B2     1.809621    37A1     1.894875    38A1     1.917151  
      29B2     2.036404    15A2     2.107363    39A1     2.126439  
      22B1     2.130610    30B2     2.171546    31B2     2.197504  
      40A1     2.204964    16A2     2.246820    23B1     2.260019  
      41A1     2.337446    32B2     2.356375    24B1     2.360609  
      17A2     2.380852    42A1     2.411208    43A1     2.447129  
      25B1     2.449287    33B2     2.465364    26B1     2.478094  
      18A2     2.484228    34B2     2.498722    35B2     2.513466  
      44A1     2.520936    36B2     2.598160    19A2     2.609461  
      45A1     2.647612    27B1     2.669131    20A2     2.672273  
      21A2     2.686266    37B2     2.703968    46A1     2.733484  
      28B1     2.750328    47A1     2.790344    38B2     2.799408  
      29B1     2.843187    48A1     2.856261    39B2     2.871683  
      49A1     2.891939    30B1     2.996800    40B2     3.028981  
      22A2     3.034131    50A1     3.041577    51A1     3.085685  
      41B2     3.107587    23A2     3.122491    52A1     3.166785  
      31B1     3.188255    32B1     3.230804    53A1     3.248620  
      54A1     3.289976    33B1     3.309304    42B2     3.311996  
      43B2     3.368928    24A2     3.370854    55A1     3.442855  
      44B2     3.496420    25A2     3.501746    34B1     3.523377  
      56A1     3.579601    26A2     3.627559    45B2     3.650903  
      35B1     3.717708    57A1     3.740642    46B2     3.773731  
      36B1     3.927107    58A1     3.954750    47B2     4.030318  
      27A2     4.066049    37B1     4.150369    59A1     4.184208  
      48B2     4.342363    38B1     4.370729    60A1     4.371435  
      28A2     4.510757    49B2     4.513604    61A1     4.557678  
      29A2     4.560942    62A1     4.590460    39B1     4.608729  
      63A1     4.660939    50B2     4.669169    30A2     4.789982  
      64A1     4.804209    51B2     4.825242    52B2     4.852076  
      31A2     4.904795    40B1     4.935385    65A1     4.940949  
      41B1     5.035504    66A1     5.041473    42B1     5.092700  
      32A2     5.093080    53B2     5.101644    54B2     5.145033  
      67A1     5.160324    33A2     5.189445    55B2     5.196579  
      43B1     5.214083    56B2     5.221430    68A1     5.249833  
      44B1     5.273557    34A2     5.292462    69A1     5.309651  
      35A2     5.317511    57B2     5.323042    45B1     5.349294  
      58B2     5.393656    70A1     5.415694    71A1     5.532420  
      59B2     5.543268    46B1     5.715073    72A1     5.734048  
      73A1     5.789358    47B1     5.821046    74A1     5.848768  
      60B2     5.881905    36A2     5.901640    61B2     5.974017  
      37A2     6.003728    62B2     6.030111    38A2     6.051492  
      48B1     6.053881    63B2     6.279199    75A1     6.282830  
      49B1     6.290942    39A2     6.305739    64B2     6.338929  
      76A1     6.353579    50B1     6.360623    40A2     6.363178  
      77A1     6.403823    65B2     6.431933    51B1     6.529496  
      52B1     6.580615    66B2     6.594768    78A1     6.599503  
      79A1     6.667600    41A2     6.796321    67B2     6.813357  
      53B1     6.859274    80A1     6.884827    42A2     6.938978  
      81A1     6.949697    68B2     6.992980    82A1     7.010837  
      54B1     7.069263    43A2     7.295419    83A1     7.406698  
      55B1     7.420105    84A1     7.452065    69B2     7.495889  
      70B2     7.562792    85A1     7.593102    44A2     7.681186  
      56B1     7.760424    86A1     7.840890    71B2     7.954813  
      45A2     8.064176    87A1     8.090091    57B1     8.101761  
      72B2     8.191557    58B1     8.224673    88A1     8.335492  
      73B2     8.403293    89A1     8.495592    46A2     8.531587  
      74B2     8.610137    59B1     8.666097    47A2     8.756484  
      60B1     8.873202    90A1     8.923254    75B2     9.064871  
      91A1     9.360296    76B2     9.452674    61B1     9.706521  
      48A2     9.791474    92A1     9.870826    62B1     9.949959  
      77B2     9.963094    49A2     9.967662    93A1     9.986902  
      94A1    10.056192    78B2    10.144222    63B1    10.154803  
      79B2    10.257017    95A1    10.260442    50A2    10.332199  
      51A2    10.408331    64B1    10.441421    96A1    10.456798  
      80B2    10.474733    97A1    10.510163    81B2    10.558363  
      52A2    10.565071    82B2    10.784235    65B1    10.904371  
      53A2    10.926794    83B2    10.985980    98A1    10.991228  
      99A1    11.117509    84B2    11.285939    66B1    11.464413  
      85B2    11.527666    54A2    11.665102   100A1    11.730698  
      67B1    11.825526    86B2    11.924839   101A1    11.936393  
      55A2    11.973108    56A2    12.272513    87B2    12.391988  
     102A1    12.414248    68B1    12.443303   103A1    12.620174  
      69B1    12.651495   104A1    12.720053    88B2    12.924229  
      57A2    13.017071    89B2    13.018571   105A1    13.177428  
      90B2    13.466688    70B1    13.520929    58A2    13.597583  
     106A1    13.599783    71B1    13.800264   107A1    13.971248  
      59A2    14.061219    72B1    14.375298   108A1    14.475515  
      91B2    14.512981   109A1    14.618445    73B1    14.622413  
      60A2    14.697224    74B1    14.714876   110A1    14.733127  
      92B2    14.828825    61A2    14.906947    75B1    14.981413  
      93B2    15.151812   111A1    15.249516    94B2    15.407630  
      62A2    15.498278    76B1    15.531596   112A1    15.616829  
      77B1    15.727244    95B2    15.765814   113A1    15.957111  
      96B2    16.367322    97B2    16.637231   114A1    16.702997  
      63A2    17.032290   115A1    17.063202    78B1    17.065151  
     116A1    17.203551    79B1    17.241477    98B2    17.582125  
      64A2    17.583440   117A1    17.583664    80B1    17.592624  
      99B2    17.678633   118A1    17.814055    81B1    18.072002  
     119A1    18.077087    65A2    18.152680   100B2    18.222383  
     101B2    18.229813    66A2    18.492385    67A2    18.716619  
     120A1    18.905272   102B2    19.029293    82B1    19.034412  
     121A1    19.374676   103B2    19.463922    83B1    19.579694  
      68A2    19.761175   122A1    20.065639   104B2    20.261314  
     123A1    20.263195    84B1    20.354106    69A2    20.509730  
     124A1    20.579471    85B1    20.656650   105B2    20.670033  
     106B2    20.739148   125A1    20.752359    70A2    20.805700  
     107B2    21.255367    71A2    21.523320    86B1    21.555600  
     126A1    21.681464    87B1    21.773677   108B2    21.791110  
     127A1    21.890985    88B1    21.905558    72A2    21.980713  
     109B2    22.014396   128A1    22.017375   110B2    22.060177  
      89B1    22.186106    73A2    22.197146   129A1    22.328378  
     130A1    22.429894   131A1    22.482249    74A2    22.577150  
      90B1    22.673855   111B2    22.721088    75A2    23.243457  
     112B2    23.439076   132A1    23.562959   113B2    23.727627  
      91B1    23.869867   133A1    24.125134    76A2    24.214350  
     114B2    24.228122   134A1    24.459802   115B2    24.503266  
      92B1    24.505178    77A2    24.513800   116B2    25.009156  
     135A1    25.225602   117B2    25.708736    93B1    25.838802  
      78A2    25.925256   136A1    25.991411    79A2    26.127603  
      94B1    26.167631   118B2    26.951920   137A1    26.988215  
     119B2    27.349377    95B1    27.449182   138A1    27.461833  
     139A1    27.594189    80A2    27.601562   120B2    28.050721  
     121B2    28.689915   140A1    28.784907    81A2    36.516270  
      96B1    36.604427   141A1    36.807208   122B2    36.898564  
     142A1    38.713807   123B2    39.854726   143A1    63.105242  

    Beta Occupied:                                                        

       1A1   -11.217344     2A1    -0.779604     1B2    -0.588488  

    Beta Virtual:                                                         

       3A1     0.022464     2B2     0.033136     4A1     0.042164  
       1B1     0.045596     3B2     0.086741     5A1     0.097806  
       6A1     0.108028     2B1     0.123468     7A1     0.137835  
       4B2     0.141322     1A2     0.159908     8A1     0.178211  
       3B1     0.179323     5B2     0.202615     9A1     0.214881  
       4B1     0.221526     6B2     0.233830     2A2     0.249620  
       7B2     0.251253    10A1     0.257266    11A1     0.268890  
      12A1     0.288301     8B2     0.294251     5B1     0.301175  
      13A1     0.352107     9B2     0.406029     3A2     0.420737  
       6B1     0.433692    14A1     0.443568    15A1     0.474098  
       7B1     0.478568    10B2     0.482263     4A2     0.500642  
      16A1     0.514202     8B1     0.525594    11B2     0.528949  
      17A1     0.546794    12B2     0.562819    18A1     0.567986  
       9B1     0.570624     5A2     0.572709    13B2     0.591825  
      19A1     0.613305    20A1     0.647434    14B2     0.662019  
       6A2     0.662624    15B2     0.703723    10B1     0.734401  
      21A1     0.749045    16B2     0.760822    11B1     0.773359  
      22A1     0.776317     7A2     0.890574    23A1     0.925477  
      17B2     0.942555    12B1     0.957913    18B2     1.013807  
      24A1     1.017521    13B1     1.067936    25A1     1.079562  
      26A1     1.115007     8A2     1.119309    14B1     1.135075  
      27A1     1.137547    19B2     1.146472     9A2     1.150794  
      20B2     1.176690    10A2     1.225713    28A1     1.226269  
      15B1     1.228248    21B2     1.251543    22B2     1.309218  
      23B2     1.331467    29A1     1.334635    16B1     1.340176  
      30A1     1.345190    31A1     1.399549    17B1     1.401597  
      24B2     1.421969    11A2     1.427399    12A2     1.445773  
      25B2     1.463448    32A1     1.478667    33A1     1.487105  
      18B1     1.522949    26B2     1.544691    19B1     1.553960  
      34A1     1.578586    13A2     1.596193    35A1     1.625057  
      20B1     1.641287    36A1     1.651641    27B2     1.673399  
      14A2     1.704950    28B2     1.823213    21B1     1.841205  
      37A1     1.920718    38A1     1.933887    29B2     2.045899  
      15A2     2.116893    39A1     2.145438    22B1     2.147127  
      30B2     2.176756    31B2     2.202920    40A1     2.214583  
      16A2     2.251677    23B1     2.272472    41A1     2.346097  
      32B2     2.362040    24B1     2.371224    17A2     2.384524  
      42A1     2.418123    43A1     2.450069    25B1     2.451014  
      33B2     2.470364    18A2     2.485914    26B1     2.487083  
      34B2     2.502093    35B2     2.518793    44A1     2.533931  
      36B2     2.602587    19A2     2.612173    45A1     2.658312  
      27B1     2.674081    20A2     2.688838    21A2     2.705717  
      37B2     2.726965    46A1     2.752310    28B1     2.769192  
      38B2     2.809484    47A1     2.812178    29B1     2.855518  
      48A1     2.870422    39B2     2.881446    49A1     2.906007  
      30B1     3.035247    40B2     3.040164    22A2     3.045495  
      50A1     3.069553    51A1     3.111503    41B2     3.128242  
      23A2     3.139886    52A1     3.200268    31B1     3.212054  
      32B1     3.260750    53A1     3.274027    54A1     3.311829  
      42B2     3.322538    33B1     3.342025    43B2     3.378458  
      24A2     3.397145    55A1     3.461566    44B2     3.511873  
      25A2     3.521742    34B1     3.540906    56A1     3.594499  
      26A2     3.641086    45B2     3.665405    35B1     3.761119  
      57A1     3.778315    46B2     3.786182    36B1     3.960808  
      58A1     3.983728    47B2     4.048884    27A2     4.082421  
      37B1     4.173442    59A1     4.201851    48B2     4.356469  
      38B1     4.379163    60A1     4.380846    28A2     4.515941  
      49B2     4.518760    29A2     4.564149    61A1     4.578801  
      62A1     4.599022    39B1     4.614597    63A1     4.665368  
      50B2     4.672740    30A2     4.797698    64A1     4.814934  
      51B2     4.831863    52B2     4.855987    31A2     4.909258  
      40B1     4.943005    65A1     4.952747    41B1     5.042800  
      66A1     5.045619    32A2     5.096638    42B1     5.099003  
      53B2     5.109311    54B2     5.150864    67A1     5.163293  
      33A2     5.197933    55B2     5.204034    43B1     5.217593  
      56B2     5.227512    68A1     5.253037    44B1     5.278031  
      34A2     5.296020    69A1     5.314631    35A2     5.320974  
      57B2     5.325980    45B1     5.359340    58B2     5.397758  
      70A1     5.425360    71A1     5.542021    59B2     5.551925  
      46B1     5.731101    72A1     5.751222    73A1     5.804185  
      47B1     5.834568    74A1     5.866787    60B2     5.889869  
      36A2     5.912721    61B2     5.982706    37A2     6.027446  
      62B2     6.042484    38A2     6.065140    48B1     6.065249  
      63B2     6.295810    75A1     6.308487    49B1     6.314981  
      39A2     6.321408    64B2     6.356700    76A1     6.367486  
      50B1     6.374388    40A2     6.375254    77A1     6.427133  
      65B2     6.445558    51B1     6.563206    52B1     6.603713  
      66B2     6.609009    78A1     6.612610    79A1     6.687465  
      41A2     6.806893    67B2     6.821335    53B1     6.892743  
      80A1     6.916834    42A2     6.964527    81A1     6.969780  
      68B2     7.013467    82A1     7.026027    54B1     7.089970  
      43A2     7.313615    83A1     7.431366    55B1     7.458174  
      84A1     7.480021    69B2     7.514196    70B2     7.582291  
      85A1     7.617531    44A2     7.701451    56B1     7.790864  
      86A1     7.873205    71B2     7.972204    45A2     8.078389  
      87A1     8.102575    57B1     8.114506    72B2     8.205137  
      58B1     8.243662    88A1     8.349685    73B2     8.410397  
      89A1     8.510614    46A2     8.549577    74B2     8.624532  
      59B1     8.696928    47A2     8.765795    60B1     8.889395  
      90A1     8.946121    75B2     9.076644    91A1     9.370893  
      76B2     9.464477    61B1     9.713660    48A2     9.802204  
      92A1     9.876156    62B1     9.955455    77B2     9.969896  
      49A2     9.970885    93A1     9.989927    94A1    10.063080  
      78B2    10.149233    63B1    10.163083    95A1    10.264043  
      79B2    10.265488    50A2    10.350214    51A2    10.409796  
      64B1    10.445317    96A1    10.466566    80B2    10.480289  
      97A1    10.513129    81B2    10.559753    52A2    10.570852  
      82B2    10.788885    65B1    10.907112    53A2    10.929550  
      83B2    10.991485    98A1    11.003453    99A1    11.124422  
      84B2    11.293975    66B1    11.470357    85B2    11.533453  
      54A2    11.672612   100A1    11.738642    67B1    11.837003  
      86B2    11.932156   101A1    11.949045    55A2    11.982758  
      56A2    12.283474    87B2    12.402551   102A1    12.424700  
      68B1    12.454815   103A1    12.640478    69B1    12.676263  
     104A1    12.731953    88B2    12.939824    89B2    13.032503  
      57A2    13.037137   105A1    13.192154    90B2    13.483341  
      70B1    13.540408    58A2    13.610773   106A1    13.618583  
      71B1    13.811440   107A1    13.993449    59A2    14.077337  
      72B1    14.393636   108A1    14.491461    91B2    14.532409  
     109A1    14.652098    73B1    14.656647    60A2    14.710866  
      74B1    14.746066   110A1    14.760937    92B2    14.840173  
      61A2    14.925649    75B1    15.000506    93B2    15.161309  
     111A1    15.264490    94B2    15.422897    62A2    15.519697  
      76B1    15.553202   112A1    15.639547    77B1    15.751921  
      95B2    15.786746   113A1    15.979758    96B2    16.385374  
      97B2    16.651463   114A1    16.714544    63A2    17.054890  
     115A1    17.097045    78B1    17.100467   116A1    17.220834  
      79B1    17.264682    98B2    17.582887    64A2    17.584199  
     117A1    17.585110    80B1    17.593477    99B2    17.694967  
     118A1    17.832699    81B1    18.075416   119A1    18.083379  
      65A2    18.157167   100B2    18.232248   101B2    18.245691  
      66A2    18.510740    67A2    18.734527   120A1    18.915326  
     102B2    19.040337    82B1    19.051335   121A1    19.382774  
     103B2    19.468177    83B1    19.586102    68A2    19.768188  
     122A1    20.073070   104B2    20.265593   123A1    20.286325  
      84B1    20.371240    69A2    20.516946   124A1    20.582163  
      85B1    20.658573   105B2    20.676719   106B2    20.740470  
     125A1    20.757302    70A2    20.807278   107B2    21.260241  
      71A2    21.525913    86B1    21.558243   126A1    21.685949  
      87B1    21.776724   108B2    21.791583   127A1    21.891467  
      88B1    21.909325    72A2    21.981282   109B2    22.014995  
     128A1    22.018195   110B2    22.063730    89B1    22.192767  
      73A2    22.197807   129A1    22.333424   130A1    22.430595  
     131A1    22.487920    74A2    22.579201    90B1    22.676041  
     111B2    22.721992    75A2    23.254072   112B2    23.441759  
     132A1    23.565667   113B2    23.732682    91B1    23.870259  
     133A1    24.126814    76A2    24.214425   114B2    24.227888  
     134A1    24.459156   115B2    24.502685    92B1    24.504244  
      77A2    24.513461   116B2    25.009797   135A1    25.226427  
     117B2    25.709682    93B1    25.840488    78A2    25.926925  
     136A1    25.992842    79A2    26.128850    94B1    26.168672  
     118B2    26.952305   137A1    26.988965   119B2    27.352235  
      95B1    27.451312   138A1    27.463083   139A1    27.595455  
      80A2    27.603585   120B2    28.053522   121B2    28.692543  
     140A1    28.788299    81A2    36.515438    96B1    36.603605  
     141A1    36.806188   122B2    36.897594   142A1    38.713349  
     123B2    39.853859   143A1    63.119636  

    Final Occupation by Irrep:
             A1    A2    B1    B2 
    DOCC [     2,    0,    0,    1 ]
    SOCC [     1,    0,    1,    0 ]

  Energy converged.

  @UHF Final Energy:   -38.94100269441324

   => Energetics <=

    Nuclear Repulsion Energy =              6.1804871970249220
    One-Electron Energy =                 -63.9605272189989904
    Two-Electron Energy =                  18.8390373275608276
    PCM Polarization Energy =               0.0000000000000000
    Total Energy =                        -38.9410026944132426

    Alert: EFP and PCM quantities not currently incorporated into SCF psivars.
  UHF NO Occupations:
  HONO-2 :    2 A1 1.9938241
  HONO-1 :    1 B1 1.0000000
  HONO-0 :    3 A1 1.0000000
  LUNO+0 :    4 A1 0.0061759
  LUNO+1 :    2 B2 0.0018564
  LUNO+2 :    5 A1 0.0000025
  LUNO+3 :    6 A1 0.0000000



Properties will be evaluated at   0.000000,   0.000000,   0.000000 Bohr

Properties computed using the SCF density matrix

  Nuclear Dipole Moment: (a.u.)
     X:     0.0000      Y:     0.0000      Z:    -0.6895

  Electronic Dipole Moment: (a.u.)
     X:     0.0000      Y:     0.0000      Z:     0.4614

  Dipole Moment: (a.u.)
     X:     0.0000      Y:     0.0000      Z:    -0.2281     Total:     0.2281

  Dipole Moment: (Debye)
     X:     0.0000      Y:     0.0000      Z:    -0.5798     Total:     0.5798


*** tstop() called on n412-045.vsc4.prov at Fri Jan 15 12:40:39 2021
Module time:
	user time   =    1275.67 seconds =      21.26 minutes
	system time =     194.73 seconds =       3.25 minutes
	total time  =       1992 seconds =      33.20 minutes
Total time:
	user time   =    1275.67 seconds =      21.26 minutes
	system time =     194.73 seconds =       3.25 minutes
	total time  =       1992 seconds =      33.20 minutes

*** tstart() called on n412-045.vsc4.prov
*** at Fri Jan 15 12:40:39 2021


	Wfn Parameters:
	--------------------
	Wavefunction         = CCSD
	Number of irreps     = 4
	Number of MOs        = 443
	Number of active MOs = 442
	AO-Basis             = NONE
	Semicanonical        = false
	Reference            = UHF
	Print Level          = 1

	IRREP	# MOs	# FZDC	# DOCC	# SOCC	# VIRT	# FZVR
	-----	-----	------	------	------	------	------
	 A1	   143	    1	    1	    1	    140	    0
	 A2	   81	    0	    0	    0	    81	    0
	 B1	   96	    0	    0	    1	    95	    0
	 B2	   123	    0	    1	    0	    122	    0
	Transforming integrals...
	IWL integrals will be deleted.
	(OO|OO)...
	Presorting SO-basis two-electron integrals.
	Sorting File: SO Ints (nn|nn) nbuckets = 1
	Transforming the one-electron integrals and constructing Fock matrices
	Starting AA/AB first half-transformation.
	Sorting AA/AB half-transformed integrals.
	Starting BB first half-transformation.
	Sorting BB half-transformed integrals.
	First half integral transformation complete.
	Starting AA second half-transformation.
	Starting AB second half-transformation.
	Starting BB second half-transformation.
	Two-electron integral transformation complete.
	(OO|OV)...
	Starting AA second half-transformation.
	Starting AB second half-transformation.
	Starting BB second half-transformation.
	Two-electron integral transformation complete.
	(OO|VV)...
	Starting AA second half-transformation.
	Starting AB second half-transformation.
	Starting BB second half-transformation.
	Two-electron integral transformation complete.
	(OV|OO)...
	Starting AA/AB first half-transformation.
	Sorting AA/AB half-transformed integrals.
	Starting BB first half-transformation.
	Sorting BB half-transformed integrals.
	First half integral transformation complete.
	Starting AA second half-transformation.
	Starting AB second half-transformation.
	Starting BB second half-transformation.
	Two-electron integral transformation complete.
	(OV|OV)...
	Starting AA second half-transformation.
	Starting AB second half-transformation.
	Starting BB second half-transformation.
	Two-electron integral transformation complete.
	(OV|VV)...
	Starting AA second half-transformation.
	Starting AB second half-transformation.
	Starting BB second half-transformation.
	Two-electron integral transformation complete.
	(VV|OO)...
	Starting AA/AB first half-transformation.
	Sorting AA/AB half-transformed integrals.
	Starting BB first half-transformation.
	Sorting BB half-transformed integrals.
	First half integral transformation complete.
	Starting AA second half-transformation.
	Starting AB second half-transformation.
	Starting BB second half-transformation.
	Two-electron integral transformation complete.
	(VV|OV)...
	Starting AA second half-transformation.
	Starting AB second half-transformation.
	Starting BB second half-transformation.
	Two-electron integral transformation complete.
	(VV|VV)...
	Starting AA second half-transformation.
	Starting AB second half-transformation.
	Starting BB second half-transformation.
	Two-electron integral transformation complete.
	Frozen core energy     =    -34.33005393142788

	Size of irrep 0 of <AB|CD> integrals:    615.834 (MW) /   4926.671 (MB)
	Size of irrep 1 of <AB|CD> integrals:    525.785 (MW) /   4206.279 (MB)
	Size of irrep 2 of <AB|CD> integrals:    537.405 (MW) /   4299.241 (MB)
	Size of irrep 3 of <AB|CD> integrals:    613.801 (MW) /   4910.405 (MB)
	Total:                                  2292.825 (MW) /  18342.596 (MB)

	Size of irrep 0 of <ab|cd> integrals:    627.553 (MW) /   5020.421 (MB)
	Size of irrep 1 of <ab|cd> integrals:    535.136 (MW) /   4281.086 (MB)
	Size of irrep 2 of <ab|cd> integrals:    548.403 (MW) /   4387.222 (MB)
	Size of irrep 3 of <ab|cd> integrals:    623.900 (MW) /   4991.204 (MB)
	Total:                                  2334.991 (MW) /  18679.932 (MB)

	Size of irrep 0 of <Ab|Cd> integrals:   2530.593 (MW) /  20244.744 (MB)
	Size of irrep 1 of <Ab|Cd> integrals:   2121.800 (MW) /  16974.400 (MB)
	Size of irrep 2 of <Ab|Cd> integrals:   2171.467 (MW) /  17371.734 (MB)
	Size of irrep 3 of <Ab|Cd> integrals:   2475.361 (MW) /  19802.888 (MB)
	Total:                                  9299.221 (MW) /  74393.766 (MB)

	Size of irrep 0 of <IA|BC> integrals:     24.885 (MW) /    199.078 (MB)
	Size of irrep 1 of <IA|BC> integrals:     17.381 (MW) /    139.048 (MB)
	Size of irrep 2 of <IA|BC> integrals:     19.056 (MW) /    152.445 (MB)
	Size of irrep 3 of <IA|BC> integrals:     23.041 (MW) /    184.326 (MB)
	Total:                                    84.362 (MW) /    674.897 (MB)

	Size of irrep 0 of <ia|bc> integrals:     13.293 (MW) /    106.340 (MB)
	Size of irrep 1 of <ia|bc> integrals:      8.189 (MW) /     65.513 (MB)
	Size of irrep 2 of <ia|bc> integrals:      8.290 (MW) /     66.320 (MB)
	Size of irrep 3 of <ia|bc> integrals:     13.138 (MW) /    105.107 (MB)
	Total:                                    42.910 (MW) /    343.280 (MB)

	Size of irrep 0 of <Ia|Bc> integrals:     25.152 (MW) /    201.220 (MB)
	Size of irrep 1 of <Ia|Bc> integrals:     17.504 (MW) /    140.032 (MB)
	Size of irrep 2 of <Ia|Bc> integrals:     19.292 (MW) /    154.336 (MB)
	Size of irrep 3 of <Ia|Bc> integrals:     23.185 (MW) /    185.479 (MB)
	Total:                                    85.133 (MW) /    681.067 (MB)

	Size of irrep 0 of <iA|bC> integrals:     13.180 (MW) /    105.439 (MB)
	Size of irrep 1 of <iA|bC> integrals:      8.107 (MW) /     64.857 (MB)
	Size of irrep 2 of <iA|bC> integrals:      8.201 (MW) /     65.611 (MB)
	Size of irrep 3 of <iA|bC> integrals:     13.035 (MW) /    104.282 (MB)
	Total:                                    42.524 (MW) /    340.190 (MB)

	Size of irrep 0 of tIjAb amplitudes:       0.151 (MW) /      1.207 (MB)
	Size of irrep 1 of tIjAb amplitudes:       0.046 (MW) /      0.369 (MB)
	Size of irrep 2 of tIjAb amplitudes:       0.047 (MW) /      0.373 (MB)
	Size of irrep 3 of tIjAb amplitudes:       0.149 (MW) /      1.194 (MB)
	Total:                                     0.393 (MW) /      3.143 (MB)

	Nuclear Rep. energy          =      6.18048719702492
	SCF energy                   =    -38.94100269441324
	One-electron energy          =    -17.78235948979443
	Two-electron (AA) energy     =      2.58596554883487
	Two-electron (BB) energy     =      0.36172696281583
	Two-electron (AB) energy     =      4.04323101813053
	Two-electron energy          =      6.99092352978123
	Reference energy             =    -38.94100269441616

*** tstop() called on n412-045.vsc4.prov at Fri Jan 15 13:21:20 2021
Module time:
	user time   =    1021.51 seconds =      17.03 minutes
	system time =     575.59 seconds =       9.59 minutes
	total time  =       2441 seconds =      40.68 minutes
Total time:
	user time   =    2297.18 seconds =      38.29 minutes
	system time =     770.32 seconds =      12.84 minutes
	total time  =       4433 seconds =      73.88 minutes

*** tstart() called on n412-045.vsc4.prov
*** at Fri Jan 15 13:21:20 2021

            **************************
            *                        *
            *        CCENERGY        *
            *                        *
            **************************

    Nuclear Rep. energy (wfn)     =    6.180487197024922
    SCF energy          (wfn)     =  -38.941002694413235
    Reference energy    (file100) =  -38.941002694416156

    Input parameters:
    -----------------
    Wave function   =     CCSD
    Reference wfn   =     UHF
    Brueckner       =     No
    Memory (Mbytes) =     250000.0
    Maxiter         =     50
    R_Convergence   =     1.0e-07
    E_Convergence   =     1.0e-06
    Restart         =     Yes
    DIIS            =     Yes
    AO Basis        =     NONE
    ABCD            =     NEW
    Cache Level     =     2
    Cache Type      =     LRU
    Print Level     =     1
    Num. of threads =     1
    # Amps to Print =     10
    Print MP2 Amps? =     No
    Analyze T2 Amps =     No
    Print Pair Ener =     No
    Local CC        =     No
    SCS-MP2         =     False
    SCSN-MP2        =     False
    SCS-CCSD        =     False

MP2 correlation energy -0.1302664804901942
                Solving CC Amplitude Equations
                ------------------------------
  Iter             Energy              RMS        T1Diag      D1Diag    New D1Diag    D2Diag
  ----     ---------------------    ---------   ----------  ----------  ----------   --------
     0        -0.130266480490229    0.000e+00    0.000000    0.000000    0.000000    0.000000
     1        -0.140672456172697    3.830e-02    0.009184    0.000000    0.000000    0.000000
     2        -0.145662431041188    1.537e-02    0.014195    0.000000    0.000000    0.000000
     3        -0.145975015368340    5.486e-03    0.016690    0.000000    0.000000    0.000000
     4        -0.146022518700138    1.953e-03    0.017531    0.000000    0.000000    0.000000
     5        -0.146029837236071    5.891e-04    0.017651    0.000000    0.000000    0.000000
     6        -0.146028597307037    2.015e-04    0.017651    0.000000    0.000000    0.000000
     7        -0.146030962619725    8.514e-05    0.017641    0.000000    0.000000    0.000000
     8        -0.146031963161424    2.545e-05    0.017639    0.000000    0.000000    0.000000
     9        -0.146031445534607    8.097e-06    0.017638    0.000000    0.000000    0.000000
    10        -0.146031517795446    3.057e-06    0.017638    0.000000    0.000000    0.000000
    11        -0.146031538694563    1.089e-06    0.017638    0.000000    0.000000    0.000000
    12        -0.146031556076756    3.368e-07    0.017638    0.000000    0.000000    0.000000
    13        -0.146031560950718    1.188e-07    0.017638    0.000000    0.000000    0.000000
    14        -0.146031561700237    5.059e-08    0.017638    0.000000    0.000000    0.000000
    14        -0.146031561700237    5.059e-08    0.017638    0.000000    0.000000    0.000000

    Iterations converged.


    CCSD corr. energy   =   -0.146031561700237
    PPL corr. energy    =    0.039636307407043
    OS PPL corr. energy =    0.033860737551442
    SS PPL corr. energy =    0.005775569855609
    Largest TIA Amplitudes:
              2 221        -0.0064766626
              2 222        -0.0063658703
              0   9         0.0060746124
              2 224        -0.0054471433
              0   8        -0.0053365006
              1   1         0.0049828391
              2 225        -0.0049825125
              1   5         0.0049690217
              1   4        -0.0048336894
              2 226        -0.0045639377

    Largest Tia Amplitudes:
              0   3         0.0146654811
              0   9         0.0127964476
              0  15        -0.0103968956
              0  10        -0.0095658192
              0  16        -0.0090156241
              0   7        -0.0087713313
              1 332         0.0083317398
              0   1        -0.0065903706
              1 325         0.0064994886
              0  23        -0.0064198871

    Largest TIJAB Amplitudes:
      3   2 142   9        -0.0111878073
      2   1 229  13         0.0101836553
      3   2 330 229        -0.0093958954
      2   1 229   5         0.0093912822
      3   1 323  16         0.0092739113
      3   2 145   9         0.0090562786
      3   2 146   9         0.0085218832
      2   1 230  17         0.0084021639
      2   1 229  18        -0.0079601258
      2   1 225  10         0.0079390948

    Largest Tijab Amplitudes:
      1   0 325   3        -0.0052148699
      1   0 223 143        -0.0047941224
      1   0 332   3        -0.0046126207
      1   0 223 147         0.0044681943
      1   0 226 143        -0.0039174157
      1   0 223 146         0.0039063696
      1   0 226 147         0.0038944956
      1   0 325   7         0.0036041325
      1   0 332   7         0.0034574956
      1   0 226 146         0.0033713452

    Largest TIjAb Amplitudes:
      3   1 330 332        -0.0225060550
      3   1 323 332        -0.0200939543
      2   0   9 223         0.0191329817
      3   1 323 325        -0.0179606252
      3   1   9  10        -0.0173626695
      3   1 330 325        -0.0169485250
      2   0   9 226         0.0163199789
      3   0 323   3        -0.0162347271
      2   0  14 223         0.0155693542
      2   0   8 223        -0.0148840013

    SCF energy       (wfn)                    =  -38.941002694413235
    Reference energy (file100)                =  -38.941002694416156

    Opposite-spin MP2 correlation energy      =   -0.101946383238107
    Same-spin MP2 correlation energy          =   -0.028320097251252
    MP2 correlation energy                    =   -0.130266480490194
      * MP2 total energy                      =  -39.071269174906348

    Opposite-spin CCSD correlation energy     =   -0.116132809834101
    Same-spin CCSD correlation energy         =   -0.029898781198604
    CCSD correlation energy                   =   -0.146031561700237
      * CCSD total energy                     =  -39.087034256116389


*** tstop() called on n412-045.vsc4.prov at Fri Jan 15 14:13:51 2021
Module time:
	user time   =     534.51 seconds =       8.91 minutes
	system time =    1267.77 seconds =      21.13 minutes
	total time  =       3151 seconds =      52.52 minutes
Total time:
	user time   =    2831.69 seconds =      47.19 minutes
	system time =    2038.09 seconds =      33.97 minutes
	total time  =       7584 seconds =     126.40 minutes

*** Psi4 exiting successfully. Buy a developer a beer!
