
    -----------------------------------------------------------------------
          Psi4: An Open-Source Ab Initio Electronic Structure Package
                               Psi4 1.2a1.dev939 

                         Git: Rev {HEAD} fa1ec19 dirty


    R. M. Parrish, L. A. Burns, D. G. A. Smith, A. C. Simmonett,
    A. E. DePrince III, E. G. Hohenstein, U. Bozkaya, A. Yu. Sokolov,
    R. Di Remigio, R. M. Richard, J. F. Gonthier, A. M. James,
    H. R. McAlexander, A. Kumar, M. Saitow, X. Wang, B. P. Pritchard,
    P. Verma, H. F. Schaefer III, K. Patkowski, R. A. King, E. F. Valeev,
    F. A. Evangelista, J. M. Turney, T. D. Crawford, and C. D. Sherrill,
    J. Chem. Theory Comput. 13(7) pp 3185--3197 (2017).
    (doi: 10.1021/acs.jctc.7b00174)

    -----------------------------------------------------------------------


    Psi4 started on: Friday, 15 January 2021 10:57AM

    Process ID: 224488
    PSIDATADIR: /home/fs71337/airmler/src/psi4_uhf/build/stage/usr/local/psi4/share/psi4
    Memory:     500.0 MiB
    Threads:    1
    
  ==> Input File <==

--------------------------------------------------------------------------
# Any line starting with the # character is a comment line
memory 250000 mb
molecule molecule{
0 3
C          0.0000000000        0.0000000000        0.0617255210
H          0.0000000000       -0.9845498409       -0.3677725027
H          0.0000000000        0.9845498409       -0.3677725027
}

set {
  reference uhf
  basis aug-cc-pv(5+d)z
  scf_type OUT_OF_CORE
  freeze_core true
  DOCC [     2,    0,    0,    1 ]
  SOCC [     1,    0,    1,    0 ]
}

energy('ccsd')
--------------------------------------------------------------------------

  Memory set to 232.831 GiB by Python driver.

*** tstart() called on n412-045.vsc4.prov
*** at Fri Jan 15 10:57:14 2021

   => Loading Basis Set <=

    Name: AUG-CC-PV(5+D)Z
    Role: ORBITAL
    Keyword: BASIS
    atoms 1   entry C          line   223 file /home/fs71337/airmler/src/psi4_uhf/build/stage/usr/local/psi4/share/psi4/basis/aug-cc-pv_5pd_z.gbs 
    atoms 2-3 entry H          line    56 file /home/fs71337/airmler/src/psi4_uhf/build/stage/usr/local/psi4/share/psi4/basis/aug-cc-pv_5pd_z.gbs 


         ---------------------------------------------------------
                                   SCF
            by Justin Turney, Rob Parrish, Andy Simmonett
                             and Daniel Smith
                              UHF Reference
                        1 Threads, 238418 MiB Core
         ---------------------------------------------------------

  ==> Geometry <==

    Molecular point group: c2v
    Full point group: C2v

    Geometry (in Angstrom), charge = 0, multiplicity = 3:

       Center              X                  Y                   Z               Mass       
    ------------   -----------------  -----------------  -----------------  -----------------
           C          0.000000000000     0.000000000000     0.061767931923    12.000000000000
           H          0.000000000000    -0.984549840900    -0.367730091777     1.007825032070
           H         -0.000000000000     0.984549840900    -0.367730091777     1.007825032070

  Running in c2v symmetry.

  Rotational constants: A =     52.95305  B =      8.62792  C =      7.41909 [cm^-1]
  Rotational constants: A = 1587492.63601  B = 258658.43565  C = 222418.61359 [MHz]
  Nuclear repulsion =    6.180487197024922

  Charge       = 0
  Multiplicity = 3
  Electrons    = 8
  Nalpha       = 5
  Nbeta        = 3

  ==> Algorithm <==

  SCF Algorithm Type is OUT_OF_CORE.
  DIIS enabled.
  MOM disabled.
  Fractional occupation disabled.
  Guess Type is GWH.
  Energy threshold   = 1.00e-08
  Density threshold  = 1.00e-08
  Integral threshold = 0.00e+00

  ==> Primary Basis <==

  Basis Set: AUG-CC-PV(5+D)Z
    Blend: AUG-CC-PV(5+D)Z
    Number of shells: 67
    Number of basis function: 287
    Number of Cartesian functions: 392
    Spherical Harmonics?: true
    Max angular momentum: 5

  ==> Pre-Iterations <==

   -------------------------------------------------------
    Irrep   Nso     Nmo     Nalpha   Nbeta   Ndocc  Nsocc
   -------------------------------------------------------
     A1        96      96       3       2       2       1
     A2        49      49       0       0       0       0
     B1        61      61       1       0       0       1
     B2        81      81       1       1       1       0
   -------------------------------------------------------
    Total     287     287       5       3       3       2
   -------------------------------------------------------

  ==> Integral Setup <==

  ==> DiskJK: Disk-Based J/K Matrices <==

    J tasked:                  Yes
    K tasked:                  Yes
    wK tasked:                  No
    Memory (MB):            178813
    Schwarz Cutoff:          1E-12

  Minimum eigenvalue in the overlap matrix is 5.8738434886E-06.
  Using Symmetric Orthogonalization.

  SCF Guess: Generalized Wolfsberg-Helmholtz.

  ==> Iterations <==

                        Total Energy        Delta E     RMS |[F,P]|

   @UHF iter   1:     5.64641109938296    5.64641e+00   9.37473e-02 
   @UHF iter   2:   -38.49520127132644   -4.41416e+01   6.16531e-03 DIIS
   @UHF iter   3:   -38.89610971325715   -4.00908e-01   1.68067e-03 DIIS
   @UHF iter   4:   -38.93231309630423   -3.62034e-02   4.72506e-04 DIIS
   @UHF iter   5:   -38.93914124515736   -6.82815e-03   1.96793e-04 DIIS
   @UHF iter   6:   -38.94080167225270   -1.66043e-03   5.58524e-05 DIIS
   @UHF iter   7:   -38.94092897044148   -1.27298e-04   1.33054e-05 DIIS
   @UHF iter   8:   -38.94093484482887   -5.87439e-06   2.82146e-06 DIIS
   @UHF iter   9:   -38.94093510452730   -2.59698e-07   8.51999e-07 DIIS
   @UHF iter  10:   -38.94093513373478   -2.92075e-08   2.84820e-07 DIIS
   @UHF iter  11:   -38.94093513735557   -3.62080e-09   6.16477e-08 DIIS
   @UHF iter  12:   -38.94093513751562   -1.60043e-10   1.32058e-08 DIIS
   @UHF iter  13:   -38.94093513752195   -6.33804e-12   3.01466e-09 DIIS

  ==> Post-Iterations <==

   @Spin Contamination Metric:   1.602861994E-02
   @S^2 Expected:                2.000000000E+00
   @S^2 Observed:                2.016028620E+00
   @S   Expected:                1.000000000E+00
   @S   Observed:                1.000000000E+00

    Orbital Energies (a.u.)
    -----------------------

    Alpha Occupied:                                                       

       1A1   -11.264606     2A1    -0.950358     1B2    -0.619034  
       3A1    -0.453327     1B1    -0.409697  

    Alpha Virtual:                                                        

       4A1     0.023981     2B2     0.035589     5A1     0.061641  
       2B1     0.065055     3B2     0.098179     6A1     0.108574  
       7A1     0.154018     4B2     0.165305     1A2     0.180658  
       8A1     0.194564     3B1     0.196003     9A1     0.227405  
       5B2     0.229696     4B1     0.233505     6B2     0.245339  
      10A1     0.260997     2A2     0.280132     7B2     0.296114  
      11A1     0.302629     5B1     0.327903    12A1     0.343387  
       8B2     0.397223    13A1     0.429044     3A2     0.480102  
       9B2     0.483074    14A1     0.511790     6B1     0.515220  
       7B1     0.553199    15A1     0.563260    10B2     0.566268  
      16A1     0.592221     8B1     0.595083     4A2     0.621304  
      17A1     0.624858    11B2     0.625350    18A1     0.651842  
       9B1     0.677724    12B2     0.678214     5A2     0.679258  
      13B2     0.691047    19A1     0.697490     6A2     0.758155  
      14B2     0.790030    15B2     0.794791    20A1     0.815442  
      10B1     0.842563    21A1     0.859254    11B1     0.965778  
      16B2     1.025802    22A1     1.046048     7A2     1.079124  
      12B1     1.113030    23A1     1.124906    17B2     1.151919  
      24A1     1.212477    13B1     1.263975    18B2     1.277478  
      25A1     1.312685     8A2     1.315451    19B2     1.327360  
      26A1     1.339837     9A2     1.395287    14B1     1.403349  
      20B2     1.408110    27A1     1.421235    10A2     1.466400  
      21B2     1.472068    15B1     1.487238    28A1     1.488033  
      22B2     1.536162    29A1     1.551242    23B2     1.633250  
      16B1     1.634464    30A1     1.643394    11A2     1.644291  
      31A1     1.686563    17B1     1.697705    18B1     1.756613  
      32A1     1.761131    24B2     1.795382    12A2     1.817638  
      25B2     1.838921    33A1     1.870821    13A2     1.905934  
      26B2     1.952250    19B1     1.952271    34A1     1.986339  
      27B2     2.077767    20B1     2.089008    35A1     2.102926  
      14A2     2.114290    36A1     2.208831    37A1     2.380256  
      28B2     2.385147    21B1     2.442329    29B2     2.476225  
      38A1     2.575468    15A2     2.671959    30B2     2.679636  
      39A1     2.712179    22B1     2.736792    23B1     2.828836  
      31B2     2.868308    40A1     2.898309    16A2     2.899893  
      41A1     3.038680    24B1     3.041491    17A2     3.049545  
      42A1     3.084744    32B2     3.146635    33B2     3.206329  
      18A2     3.272816    43A1     3.285511    34B2     3.301795  
      44A1     3.328961    25B1     3.333217    26B1     3.368381  
      35B2     3.369484    19A2     3.423079    27B1     3.458049  
      45A1     3.459132    36B2     3.469552    20A2     3.496566  
      46A1     3.536148    21A2     3.562843    37B2     3.592553  
      38B2     3.626049    28B1     3.753824    47A1     3.771365  
      29B1     3.786321    39B2     3.791665    48A1     3.825849  
      49A1     3.840957    40B2     3.897975    22A2     3.967801  
      30B1     3.989999    50A1     4.019613    41B2     4.050965  
      23A2     4.065442    31B1     4.126888    51A1     4.128495  
      32B1     4.149060    52A1     4.164984    42B2     4.206896  
      53A1     4.259847    24A2     4.366122    33B1     4.366508  
      54A1     4.379371    43B2     4.493114    34B1     4.583345  
      25A2     4.596342    26A2     4.600961    44B2     4.660131  
      55A1     4.756531    45B2     4.783145    56A1     4.858899  
      35B1     4.883493    46B2     4.889529    57A1     5.004851  
      58A1     5.142216    36B1     5.189956    27A2     5.206968  
      59A1     5.412227    47B2     5.432281    37B1     5.463300  
      28A2     5.674369    60A1     5.723710    48B2     5.774523  
      38B1     5.879727    49B2     5.880202    61A1     6.025958  
      50B2     6.079400    29A2     6.098994    62A1     6.161669  
      39B1     6.208504    63A1     6.224432    51B2     6.364763  
      30A2     6.469283    64A1     6.784324    40B1     6.856199  
      52B2     6.859285    31A2     6.905646    65A1     7.118465  
      53B2     7.120143    41B1     7.172718    54B2     7.369817  
      32A2     7.487642    55B2     7.541547    66A1     7.648762  
      33A2     7.864537    56B2     7.923531    42B1     7.992958  
      67A1     8.100327    68A1     8.394897    57B2     8.421053  
      69A1     9.016503    43B1     9.039314    70A1     9.040995  
      58B2     9.219009    34A2     9.275125    44B1     9.320071  
      45B1     9.576279    35A2     9.585292    71A1     9.623051  
      46B1     9.741765    59B2     9.816480    72A1    10.040299  
      60B2    10.050121    73A1    10.221720    36A2    10.340676  
      74A1    10.441840    47B1    10.445496    61B2    10.446793  
      37A2    10.551457    48B1    10.577174    75A1    10.669104  
      49B1    10.777642    76A1    10.908339    62B2    10.927759  
      63B2    11.151295    77A1    11.239510    38A2    11.550714  
      78A1    11.766278    50B1    11.794249    64B2    11.988654  
      65B2    12.178575    79A1    12.534096    51B1    12.753070  
      39A2    13.217407    66B2    13.219535    80A1    13.242437  
      52B1    13.249197    40A2    13.276428    81A1    13.369168  
      53B1    13.435159    41A2    13.506084    67B2    13.586040  
      68B2    13.624137    82A1    13.643505    54B1    13.686956  
      83A1    13.770700    42A2    13.955562    69B2    14.028115  
      43A2    14.284378    70B2    14.333602    55B1    14.354234  
      84A1    14.355349    71B2    14.446899    85A1    14.495316  
      44A2    14.551141    56B1    14.648478    86A1    14.715364  
      45A2    14.772174    57B1    14.832960    72B2    14.954130  
      73B2    15.082728    87A1    15.091771    58B1    15.187406  
      88A1    15.264203    74B2    15.301840    46A2    15.521130  
      47A2    15.590872    89A1    15.841143    75B2    16.254953  
      90A1    16.270378    59B1    16.417127    76B2    16.458403  
      91A1    16.554032    77B2    16.875331    60B1    17.842298  
      78B2    17.894880    48A2    17.934326    92A1    18.110108  
      61B1    18.204225    49A2    18.617914    79B2    18.731739  
      93A1    19.233212    94A1    19.610447    80B2    19.853313  
      95A1    21.293317    81B2    21.528412    96A1    40.319224  

    Beta Occupied:                                                        

       1A1   -11.217359     2A1    -0.779606     1B2    -0.588484  

    Beta Virtual:                                                         

       3A1     0.025490     2B2     0.035863     4A1     0.046970  
       1B1     0.051731     3B2     0.099010     5A1     0.112872  
       6A1     0.120201     2B1     0.137547     7A1     0.157953  
       4B2     0.170114     1A2     0.184312     3B1     0.207294  
       8A1     0.207593     5B2     0.230800     9A1     0.244708  
       6B2     0.247165     4B1     0.255467     2A2     0.282606  
      10A1     0.292966     7B2     0.299385    11A1     0.317663  
      12A1     0.364960     5B1     0.394100     8B2     0.421494  
      13A1     0.449971     9B2     0.489100     3A2     0.494418  
       6B1     0.540007    14A1     0.542647     7B1     0.564351  
      10B2     0.567747    15A1     0.569540    16A1     0.604033  
       8B1     0.608621     4A2     0.623914    11B2     0.630235  
      17A1     0.659191    18A1     0.672157     5A2     0.683071  
      12B2     0.683398     9B1     0.688375    13B2     0.703550  
      19A1     0.712444     6A2     0.784249    14B2     0.793671  
      15B2     0.821852    20A1     0.841985    10B1     0.878896  
      21A1     0.889671    16B2     1.033874    11B1     1.048874  
      22A1     1.082728     7A2     1.090011    12B1     1.126676  
      23A1     1.139582    17B2     1.159820    24A1     1.224536  
      13B1     1.269948    18B2     1.282632     8A2     1.317370  
      25A1     1.333076    19B2     1.339155    26A1     1.367779  
       9A2     1.398311    14B1     1.409067    20B2     1.413238  
      27A1     1.427461    10A2     1.472285    21B2     1.480517  
      15B1     1.497242    28A1     1.497491    22B2     1.540355  
      29A1     1.558666    23B2     1.652789    16B1     1.672587  
      30A1     1.676807    11A2     1.693427    17B1     1.722974  
      31A1     1.723256    32A1     1.805098    24B2     1.813715  
      18B1     1.817795    12A2     1.833060    25B2     1.850448  
      33A1     1.906036    13A2     1.916350    26B2     1.967601  
      19B1     1.968261    34A1     2.000855    27B2     2.093288  
      20B1     2.108051    35A1     2.125089    14A2     2.129186  
      36A1     2.225830    28B2     2.398419    37A1     2.403733  
      29B2     2.487195    21B1     2.502975    38A1     2.604373  
      15A2     2.679636    30B2     2.684253    39A1     2.742130  
      22B1     2.761327    23B1     2.836393    31B2     2.876636  
      16A2     2.905607    40A1     2.910191    41A1     3.049410  
      24B1     3.050302    17A2     3.061865    42A1     3.096039  
      32B2     3.150922    33B2     3.225501    18A2     3.290120  
      43A1     3.291626    34B2     3.307432    44A1     3.335250  
      25B1     3.340140    35B2     3.371955    26B1     3.372306  
      19A2     3.430265    27B1     3.464313    45A1     3.468150  
      36B2     3.477184    20A2     3.509375    46A1     3.553821  
      21A2     3.575047    37B2     3.599518    38B2     3.645353  
      28B1     3.772495    47A1     3.790646    39B2     3.808127  
      29B1     3.827996    48A1     3.838371    49A1     3.879950  
      40B2     3.916694    22A2     3.981961    30B1     4.030758  
      50A1     4.055617    41B2     4.069070    23A2     4.092098  
      51A1     4.159366    31B1     4.160168    32B1     4.191235  
      52A1     4.204167    42B2     4.224144    53A1     4.278541  
      24A2     4.385554    33B1     4.394460    54A1     4.402609  
      43B2     4.510771    34B1     4.601881    25A2     4.615360  
      26A2     4.619865    44B2     4.679238    55A1     4.779426  
      45B2     4.792887    56A1     4.882036    46B2     4.906435  
      35B1     4.908812    57A1     5.036667    58A1     5.163614  
      27A2     5.224224    36B1     5.224299    59A1     5.425169  
      47B2     5.448724    37B1     5.472779    28A2     5.685417  
      60A1     5.745333    48B2     5.783249    49B2     5.891161  
      38B1     5.904222    61A1     6.041955    50B2     6.083336  
      29A2     6.100838    62A1     6.176198    39B1     6.212686  
      63A1     6.228657    51B2     6.384456    30A2     6.493691  
      64A1     6.799540    40B1     6.871192    52B2     6.871435  
      31A2     6.918119    53B2     7.126911    65A1     7.129085  
      41B1     7.180575    54B2     7.374587    32A2     7.496869  
      55B2     7.555524    66A1     7.653399    33A2     7.877430  
      56B2     7.934982    42B1     8.010195    67A1     8.114040  
      68A1     8.408882    57B2     8.431848    69A1     9.056231  
      43B1     9.073351    70A1     9.075177    58B2     9.244629  
      34A2     9.301082    44B1     9.358369    45B1     9.602702  
      35A2     9.605279    71A1     9.651000    46B1     9.771735  
      59B2     9.835274    60B2    10.066202    72A1    10.070494  
      73A1    10.250886    36A2    10.369600    61B2    10.478003  
      74A1    10.487576    47B1    10.489701    37A2    10.580738  
      48B1    10.603401    75A1    10.698393    49B1    10.819360  
      76A1    10.939099    62B2    10.950117    63B2    11.179616  
      77A1    11.263443    38A2    11.585205    78A1    11.785825  
      50B1    11.828848    64B2    12.005476    65B2    12.201732  
      79A1    12.577123    51B1    12.793910    39A2    13.218619  
      66B2    13.220618    80A1    13.243947    52B1    13.250592  
      40A2    13.300821    81A1    13.369051    53B1    13.435660  
      41A2    13.506261    67B2    13.593432    68B2    13.634549  
      82A1    13.650368    54B1    13.691233    83A1    13.779259  
      42A2    13.959045    69B2    14.031697    43A2    14.288635  
      70B2    14.335440    55B1    14.353782    84A1    14.357401  
      71B2    14.447717    85A1    14.496411    44A2    14.550324  
      56B1    14.649891    86A1    14.716106    45A2    14.774966  
      57B1    14.835721    72B2    14.956954    73B2    15.085732  
      87A1    15.094121    58B1    15.191519    88A1    15.266045  
      74B2    15.304954    46A2    15.525016    47A2    15.593573  
      89A1    15.846701    75B2    16.256339    90A1    16.273016  
      59B1    16.421850    76B2    16.461187    91A1    16.556190  
      77B2    16.876091    60B1    17.845483    78B2    17.898301  
      48A2    17.934690    92A1    18.110151    61B1    18.207043  
      49A2    18.624910    79B2    18.732520    93A1    19.237850  
      94A1    19.616282    80B2    19.858545    95A1    21.294990  
      81B2    21.530276    96A1    40.339731  

    Final Occupation by Irrep:
             A1    A2    B1    B2 
    DOCC [     2,    0,    0,    1 ]
    SOCC [     1,    0,    1,    0 ]

  Energy converged.

  @UHF Final Energy:   -38.94093513752195

   => Energetics <=

    Nuclear Repulsion Energy =              6.1804871970249220
    One-Electron Energy =                 -63.9603745993426855
    Two-Electron Energy =                  18.8389522647958074
    Total Energy =                        -38.9409351375219543


  UHF NO Occupations:
  HONO-2 :    2 A1 1.9938240
  HONO-1 :    3 A1 1.0000000
  HONO-0 :    1 B1 1.0000000
  LUNO+0 :    4 A1 0.0061760
  LUNO+1 :    2 B2 0.0018567
  LUNO+2 :    5 A1 0.0000025
  LUNO+3 :    6 A1 0.0000000



Properties will be evaluated at   0.000000,   0.000000,   0.000000 Bohr

Properties computed using the SCF density matrix

  Nuclear Dipole Moment: (a.u.)
     X:     0.0000      Y:     0.0000      Z:    -0.6895

  Electronic Dipole Moment: (a.u.)
     X:     0.0000      Y:     0.0000      Z:     0.4613

  Dipole Moment: (a.u.)
     X:     0.0000      Y:     0.0000      Z:    -0.2281     Total:     0.2281

  Dipole Moment: (Debye)
     X:     0.0000      Y:     0.0000      Z:    -0.5798     Total:     0.5798


*** tstop() called on n412-045.vsc4.prov at Fri Jan 15 11:00:12 2021
Module time:
	user time   =     166.89 seconds =       2.78 minutes
	system time =      10.73 seconds =       0.18 minutes
	total time  =        178 seconds =       2.97 minutes
Total time:
	user time   =     166.89 seconds =       2.78 minutes
	system time =      10.73 seconds =       0.18 minutes
	total time  =        178 seconds =       2.97 minutes

*** tstart() called on n412-045.vsc4.prov
*** at Fri Jan 15 11:00:12 2021


	Wfn Parameters:
	--------------------
	Wavefunction         = CCSD
	Number of irreps     = 4
	Number of MOs        = 287
	Number of active MOs = 286
	AO-Basis             = NONE
	Semicanonical        = false
	Reference            = UHF
	Print Level          = 1

	IRREP	# MOs	# FZDC	# DOCC	# SOCC	# VIRT	# FZVR
	-----	-----	------	------	------	------	------
	 A1	   96	    1	    1	    1	    93	    0
	 A2	   49	    0	    0	    0	    49	    0
	 B1	   61	    0	    0	    1	    60	    0
	 B2	   81	    0	    1	    0	    80	    0
	Transforming integrals...
	IWL integrals will be deleted.
	(OO|OO)...
	Presorting SO-basis two-electron integrals.
	Sorting File: SO Ints (nn|nn) nbuckets = 1
	Transforming the one-electron integrals and constructing Fock matrices
	Starting AA/AB first half-transformation.
	Sorting AA/AB half-transformed integrals.
	Starting BB first half-transformation.
	Sorting BB half-transformed integrals.
	First half integral transformation complete.
	Starting AA second half-transformation.
	Starting AB second half-transformation.
	Starting BB second half-transformation.
	Two-electron integral transformation complete.
	(OO|OV)...
	Starting AA second half-transformation.
	Starting AB second half-transformation.
	Starting BB second half-transformation.
	Two-electron integral transformation complete.
	(OO|VV)...
	Starting AA second half-transformation.
	Starting AB second half-transformation.
	Starting BB second half-transformation.
	Two-electron integral transformation complete.
	(OV|OO)...
	Starting AA/AB first half-transformation.
	Sorting AA/AB half-transformed integrals.
	Starting BB first half-transformation.
	Sorting BB half-transformed integrals.
	First half integral transformation complete.
	Starting AA second half-transformation.
	Starting AB second half-transformation.
	Starting BB second half-transformation.
	Two-electron integral transformation complete.
	(OV|OV)...
	Starting AA second half-transformation.
	Starting AB second half-transformation.
	Starting BB second half-transformation.
	Two-electron integral transformation complete.
	(OV|VV)...
	Starting AA second half-transformation.
	Starting AB second half-transformation.
	Starting BB second half-transformation.
	Two-electron integral transformation complete.
	(VV|OO)...
	Starting AA/AB first half-transformation.
	Sorting AA/AB half-transformed integrals.
	Starting BB first half-transformation.
	Sorting BB half-transformed integrals.
	First half integral transformation complete.
	Starting AA second half-transformation.
	Starting AB second half-transformation.
	Starting BB second half-transformation.
	Two-electron integral transformation complete.
	(VV|OV)...
	Starting AA second half-transformation.
	Starting AB second half-transformation.
	Starting BB second half-transformation.
	Two-electron integral transformation complete.
	(VV|VV)...
	Starting AA second half-transformation.
	Starting AB second half-transformation.
	Starting BB second half-transformation.
	Two-electron integral transformation complete.
	Frozen core energy     =    -34.33003964408903

	Size of irrep 0 of <AB|CD> integrals:    107.827 (MW) /    862.620 (MB)
	Size of irrep 1 of <AB|CD> integrals:     87.553 (MW) /    700.428 (MB)
	Size of irrep 2 of <AB|CD> integrals:     90.250 (MW) /    722.000 (MB)
	Size of irrep 3 of <AB|CD> integrals:    107.744 (MW) /    861.955 (MB)
	Total:                                   393.375 (MW) /   3147.002 (MB)

	Size of irrep 0 of <ab|cd> integrals:    111.028 (MW) /    888.227 (MB)
	Size of irrep 1 of <ab|cd> integrals:     89.984 (MW) /    719.874 (MB)
	Size of irrep 2 of <ab|cd> integrals:     93.200 (MW) /    745.598 (MB)
	Size of irrep 3 of <ab|cd> integrals:    110.439 (MW) /    883.513 (MB)
	Total:                                   404.651 (MW) /   3237.211 (MB)

	Size of irrep 0 of <Ab|Cd> integrals:    449.567 (MW) /   3596.538 (MB)
	Size of irrep 1 of <Ab|Cd> integrals:    355.059 (MW) /   2840.469 (MB)
	Size of irrep 2 of <Ab|Cd> integrals:    366.837 (MW) /   2934.699 (MB)
	Size of irrep 3 of <Ab|Cd> integrals:    436.350 (MW) /   3490.803 (MB)
	Total:                                  1607.814 (MW) /  12862.509 (MB)

	Size of irrep 0 of <IA|BC> integrals:      6.862 (MW) /     54.898 (MB)
	Size of irrep 1 of <IA|BC> integrals:      4.454 (MW) /     35.631 (MB)
	Size of irrep 2 of <IA|BC> integrals:      4.978 (MW) /     39.824 (MB)
	Size of irrep 3 of <IA|BC> integrals:      6.270 (MW) /     50.156 (MB)
	Total:                                    22.564 (MW) /    180.510 (MB)

	Size of irrep 0 of <ia|bc> integrals:      3.716 (MW) /     29.730 (MB)
	Size of irrep 1 of <ia|bc> integrals:      2.087 (MW) /     16.695 (MB)
	Size of irrep 2 of <ia|bc> integrals:      2.124 (MW) /     16.991 (MB)
	Size of irrep 3 of <ia|bc> integrals:      3.657 (MW) /     29.257 (MB)
	Total:                                    11.584 (MW) /     92.674 (MB)

	Size of irrep 0 of <Ia|Bc> integrals:      6.976 (MW) /     55.806 (MB)
	Size of irrep 1 of <Ia|Bc> integrals:      4.503 (MW) /     36.028 (MB)
	Size of irrep 2 of <Ia|Bc> integrals:      5.076 (MW) /     40.604 (MB)
	Size of irrep 3 of <Ia|Bc> integrals:      6.329 (MW) /     50.635 (MB)
	Total:                                    22.884 (MW) /    183.073 (MB)

	Size of irrep 0 of <iA|bC> integrals:      3.668 (MW) /     29.345 (MB)
	Size of irrep 1 of <iA|bC> integrals:      2.054 (MW) /     16.431 (MB)
	Size of irrep 2 of <iA|bC> integrals:      2.088 (MW) /     16.701 (MB)
	Size of irrep 3 of <iA|bC> integrals:      3.614 (MW) /     28.910 (MB)
	Total:                                    11.423 (MW) /     91.388 (MB)

	Size of irrep 0 of tIjAb amplitudes:       0.064 (MW) /      0.509 (MB)
	Size of irrep 1 of tIjAb amplitudes:       0.019 (MW) /      0.151 (MB)
	Size of irrep 2 of tIjAb amplitudes:       0.019 (MW) /      0.153 (MB)
	Size of irrep 3 of tIjAb amplitudes:       0.063 (MW) /      0.501 (MB)
	Total:                                     0.164 (MW) /      1.314 (MB)

	Nuclear Rep. energy          =      6.18048719702492
	SCF energy                   =    -38.94093513752195
	One-electron energy          =    -17.78226013254640
	Two-electron (AA) energy     =      2.58595166149332
	Two-electron (BB) energy     =      0.36172620629499
	Two-electron (AB) energy     =      4.04319957429988
	Two-electron energy          =      6.99087744208818
	Reference energy             =    -38.94093513752233

*** tstop() called on n412-045.vsc4.prov at Fri Jan 15 11:04:32 2021
Module time:
	user time   =     157.99 seconds =       2.63 minutes
	system time =     100.85 seconds =       1.68 minutes
	total time  =        260 seconds =       4.33 minutes
Total time:
	user time   =     324.88 seconds =       5.41 minutes
	system time =     111.58 seconds =       1.86 minutes
	total time  =        438 seconds =       7.30 minutes

*** tstart() called on n412-045.vsc4.prov
*** at Fri Jan 15 11:04:32 2021

            **************************
            *                        *
            *        CCENERGY        *
            *                        *
            **************************

    Nuclear Rep. energy (wfn)     =    6.180487197024922
    SCF energy          (wfn)     =  -38.940935137521954
    Reference energy    (file100) =  -38.940935137522331

    Input parameters:
    -----------------
    Wave function   =     CCSD
    Reference wfn   =     UHF
    Brueckner       =     No
    Memory (Mbytes) =     250000.0
    Maxiter         =     50
    R_Convergence   =     1.0e-07
    E_Convergence   =     1.0e-06
    Restart         =     Yes
    DIIS            =     Yes
    AO Basis        =     NONE
    ABCD            =     NEW
    Cache Level     =     2
    Cache Type      =     LRU
    Print Level     =     1
    Num. of threads =     1
    # Amps to Print =     10
    Print MP2 Amps? =     No
    Analyze T2 Amps =     No
    Print Pair Ener =     No
    Local CC        =     No
    SCS-MP2         =     False
    SCSN-MP2        =     False
    SCS-CCSD        =     False

MP2 correlation energy -0.1291160759837738
                Solving CC Amplitude Equations
                ------------------------------
  Iter             Energy              RMS        T1Diag      D1Diag    New D1Diag    D2Diag
  ----     ---------------------    ---------   ----------  ----------  ----------   --------
     0        -0.129116075983778    0.000e+00    0.000000    0.000000    0.000000    0.000000
     1        -0.140107921372955    3.827e-02    0.009069    0.000000    0.000000    0.000000
     2        -0.144999516902700    1.537e-02    0.014163    0.000000    0.000000    0.000000
     3        -0.145343014198052    5.434e-03    0.016671    0.000000    0.000000    0.000000
     4        -0.145379674739607    1.881e-03    0.017464    0.000000    0.000000    0.000000
     5        -0.145385755447019    5.792e-04    0.017580    0.000000    0.000000    0.000000
     6        -0.145386023031051    1.974e-04    0.017579    0.000000    0.000000    0.000000
     7        -0.145388309070023    8.284e-05    0.017569    0.000000    0.000000    0.000000
     8        -0.145389015211518    2.458e-05    0.017567    0.000000    0.000000    0.000000
     9        -0.145388600249230    7.642e-06    0.017566    0.000000    0.000000    0.000000
    10        -0.145388656260576    2.871e-06    0.017566    0.000000    0.000000    0.000000
    11        -0.145388672990527    1.041e-06    0.017566    0.000000    0.000000    0.000000
    12        -0.145388689668203    3.094e-07    0.017566    0.000000    0.000000    0.000000
    13        -0.145388693587685    1.074e-07    0.017566    0.000000    0.000000    0.000000
    14        -0.145388694120538    4.469e-08    0.017566    0.000000    0.000000    0.000000
    14        -0.145388694120538    4.469e-08    0.017566    0.000000    0.000000    0.000000

    Iterations converged.


    CCSD corr. energy   =   -0.145388694120538
    PPL corr. energy    =    0.039102948650136
    OS PPL corr. energy =    0.033356012572039
    SS PPL corr. energy =    0.005746936078098
    Largest TIA Amplitudes:
              2 142        -0.0073627775
              2 143        -0.0071507919
              0   8        -0.0071333869
              2 146        -0.0062825514
              1   1        -0.0056178373
              1   8         0.0055373141
              1   4         0.0052864125
              2 145        -0.0051557762
              0   3         0.0049135472
              1  10        -0.0048893851

    Largest Tia Amplitudes:
              0   9         0.0145740188
              0   3        -0.0145163584
              0  15        -0.0116910830
              0   8         0.0081158023
              0   4        -0.0077929299
              0   1         0.0076699370
              0   7         0.0074312692
              1 215         0.0064515574
              1 221         0.0055837795
              1 210         0.0055682173

    Largest TIJAB Amplitudes:
      3   1 208   8         0.0139994718
      3   2  95   8         0.0118260477
      2   1 146  10        -0.0118152631
      3   1 208  16        -0.0109611650
      3   2  98   8         0.0100378911
      2   1 208  95         0.0100055688
      2   1 150  10        -0.0099078343
      2   1 151  18         0.0092397894
      2   1 145   5         0.0091207025
      2   1 145   9        -0.0091112318

    Largest Tijab Amplitudes:
      1   0 210   3         0.0056972193
      1   0 144  96        -0.0055606054
      1   0 217   3         0.0050797374
      1   0 144  99        -0.0049115586
      1   0 144 100         0.0038021127
      1   0 211   8        -0.0037934221
      1   0 211  15         0.0037683378
      1   0 210   7        -0.0036996481
      1   0 147  96        -0.0036779070
      1   0 144 104         0.0035543802

    Largest TIjAb Amplitudes:
      3   1 208 210        -0.0185034146
      3   1   8   9        -0.0180944532
      3   1 208 217        -0.0178200094
      2   0   8 144        -0.0176847699
      3   0 208   3         0.0176627143
      2   0  14 144         0.0168534395
      2   0  10 144        -0.0166976565
      2   0   7 144        -0.0153443175
      1   0 146 144         0.0152465038
      3   1  14   9         0.0151070978

    SCF energy       (wfn)                    =  -38.940935137521954
    Reference energy (file100)                =  -38.940935137522331

    Opposite-spin MP2 correlation energy      =   -0.100881922363042
    Same-spin MP2 correlation energy          =   -0.028234153620636
    MP2 correlation energy                    =   -0.129116075983774
      * MP2 total energy                      =  -39.070051213506105

    Opposite-spin CCSD correlation energy     =   -0.115553845733603
    Same-spin CCSD correlation energy         =   -0.029834853959831
    CCSD correlation energy                   =   -0.145388694120538
      * CCSD total energy                     =  -39.086323831642872


*** tstop() called on n412-045.vsc4.prov at Fri Jan 15 11:08:26 2021
Module time:
	user time   =      84.21 seconds =       1.40 minutes
	system time =     149.06 seconds =       2.48 minutes
	total time  =        234 seconds =       3.90 minutes
Total time:
	user time   =     409.09 seconds =       6.82 minutes
	system time =     260.64 seconds =       4.34 minutes
	total time  =        672 seconds =      11.20 minutes

*** Psi4 exiting successfully. Buy a developer a beer!
