
    -----------------------------------------------------------------------
          Psi4: An Open-Source Ab Initio Electronic Structure Package
                               Psi4 1.2a1.dev938 

                         Git: Rev {HEAD} fc51d9a dirty


    R. M. Parrish, L. A. Burns, D. G. A. Smith, A. C. Simmonett,
    A. E. DePrince III, E. G. Hohenstein, U. Bozkaya, A. Yu. Sokolov,
    R. Di Remigio, R. M. Richard, J. F. Gonthier, A. M. James,
    H. R. McAlexander, A. Kumar, M. Saitow, X. Wang, B. P. Pritchard,
    P. Verma, H. F. Schaefer III, K. Patkowski, R. A. King, E. F. Valeev,
    F. A. Evangelista, J. M. Turney, T. D. Crawford, and C. D. Sherrill,
    J. Chem. Theory Comput. 13(7) pp 3185--3197 (2017).
    (doi: 10.1021/acs.jctc.7b00174)

    -----------------------------------------------------------------------


    Psi4 started on: Thursday, 20 August 2020 07:53PM

    Process ID: 422422
    PSIDATADIR: /home/irmler/Programs/psi4/beforeGrueneis3/stage/usr/local/psi4/share/psi4
    Memory:     500.0 MiB
    Threads:    4
    
  ==> Input File <==

--------------------------------------------------------------------------
# Any line starting with the # character is a comment line
memory 250000 mb
molecule molecule{
0 3
C          0.0000000000        0.0000000000        0.0617255210
H          0.0000000000       -0.9845498409       -0.3677725027
H          0.0000000000        0.9845498409       -0.3677725027
}

set {
  reference uhf
  basis aug-cc-pv(d+d)z
  scf_type OUT_OF_CORE
  freeze_core true
}

energy('ccsd')
--------------------------------------------------------------------------

  Memory set to 232.831 GiB by Python driver.

*** tstart() called on cqc05
*** at Thu Aug 20 19:53:42 2020

   => Loading Basis Set <=

    Name: AUG-CC-PV(D+D)Z
    Role: ORBITAL
    Keyword: BASIS
    atoms 1   entry C          line   198 file /home/irmler/Programs/psi4/beforeGrueneis3/stage/usr/local/psi4/share/psi4/basis/aug-cc-pv_dpd_z.gbs 
    atoms 2-3 entry H          line    56 file /home/irmler/Programs/psi4/beforeGrueneis3/stage/usr/local/psi4/share/psi4/basis/aug-cc-pv_dpd_z.gbs 


         ---------------------------------------------------------
                                   SCF
            by Justin Turney, Rob Parrish, Andy Simmonett
                             and Daniel Smith
                              UHF Reference
                        4 Threads, 238418 MiB Core
         ---------------------------------------------------------

  ==> Geometry <==

    Molecular point group: c2v
    Full point group: C2v

    Geometry (in Angstrom), charge = 0, multiplicity = 3:

       Center              X                  Y                   Z               Mass       
    ------------   -----------------  -----------------  -----------------  -----------------
           C          0.000000000000     0.000000000000     0.061767931923    12.000000000000
           H          0.000000000000    -0.984549840900    -0.367730091777     1.007825032070
           H         -0.000000000000     0.984549840900    -0.367730091777     1.007825032070

  Running in c2v symmetry.

  Rotational constants: A =     52.95305  B =      8.62792  C =      7.41909 [cm^-1]
  Rotational constants: A = 1587492.63601  B = 258658.43565  C = 222418.61359 [MHz]
  Nuclear repulsion =    6.180487197024922

  Charge       = 0
  Multiplicity = 3
  Electrons    = 8
  Nalpha       = 5
  Nbeta        = 3

  ==> Algorithm <==

  SCF Algorithm Type is OUT_OF_CORE.
  DIIS enabled.
  MOM disabled.
  Fractional occupation disabled.
  Guess Type is GWH.
  Energy threshold   = 1.00e-08
  Density threshold  = 1.00e-08
  Integral threshold = 0.00e+00

  ==> Primary Basis <==

  Basis Set: AUG-CC-PV(D+D)Z
    Blend: AUG-CC-PV(D+D)Z
    Number of shells: 19
    Number of basis function: 41
    Number of Cartesian functions: 43
    Spherical Harmonics?: true
    Max angular momentum: 2

  ==> Pre-Iterations <==

   -------------------------------------------------------
    Irrep   Nso     Nmo     Nalpha   Nbeta   Ndocc  Nsocc
   -------------------------------------------------------
     A1        18      18       0       0       0       0
     A2         4       4       0       0       0       0
     B1         7       7       0       0       0       0
     B2        12      12       0       0       0       0
   -------------------------------------------------------
    Total      41      41       5       3       3       2
   -------------------------------------------------------

  ==> Integral Setup <==

  ==> DiskJK: Disk-Based J/K Matrices <==

    J tasked:                  Yes
    K tasked:                  Yes
    wK tasked:                  No
    Memory (MB):            178813
    Schwarz Cutoff:          1E-12

  Minimum eigenvalue in the overlap matrix is 9.0462279009E-04.
  Using Symmetric Orthogonalization.

  SCF Guess: Generalized Wolfsberg-Helmholtz.

  ==> Iterations <==

                        Total Energy        Delta E     RMS |[F,P]|

   @UHF iter   1:   -38.40246548793871   -3.84025e+01   6.77965e-02 
   @UHF iter   2:   -38.89140531916957   -4.88940e-01   1.22771e-02 DIIS
   @UHF iter   3:   -38.92284291524418   -3.14376e-02   3.72499e-03 DIIS
   @UHF iter   4:   -38.92712287311736   -4.27996e-03   1.36419e-03 DIIS
   @UHF iter   5:   -38.92811910153020   -9.96228e-04   3.90172e-04 DIIS
   @UHF iter   6:   -38.92820433728485   -8.52358e-05   8.73002e-05 DIIS
   @UHF iter   7:   -38.92820774115330   -3.40387e-06   2.29277e-05 DIIS
   @UHF iter   8:   -38.92820802031093   -2.79158e-07   8.00951e-06 DIIS
   @UHF iter   9:   -38.92820805050700   -3.01961e-08   2.44896e-06 DIIS
   @UHF iter  10:   -38.92820805357381   -3.06682e-09   4.59318e-07 DIIS
   @UHF iter  11:   -38.92820805368854   -1.14724e-10   1.02395e-07 DIIS
   @UHF iter  12:   -38.92820805369320   -4.66827e-12   1.93062e-08 DIIS
   @UHF iter  13:   -38.92820805369341   -2.06057e-13   3.66988e-09 DIIS

  ==> Post-Iterations <==

   @Spin Contamination Metric:   1.557968314E-02
   @S^2 Expected:                2.000000000E+00
   @S^2 Observed:                2.015579683E+00
   @S   Expected:                1.000000000E+00
   @S   Observed:                1.000000000E+00

    Orbital Energies (a.u.)
    -----------------------

    Alpha Occupied:                                                       

       1A1   -11.271512     2A1    -0.951720     1B2    -0.619386  
       3A1    -0.452752     1B1    -0.408750  

    Alpha Virtual:                                                        

       4A1     0.037929     2B2     0.056351     5A1     0.111246  
       2B1     0.115440     3B2     0.159420     6A1     0.173255  
       7A1     0.250519     4B2     0.300047     1A2     0.347673  
       8A1     0.392705     3B1     0.407638     5B2     0.461301  
       9A1     0.490457     4B1     0.516207     6B2     0.520277  
      10A1     0.541617    11A1     0.610285     7B2     0.636160  
       2A2     0.641827     5B1     0.854852    12A1     0.860961  
       8B2     0.972906    13A1     1.081443     9B2     1.412407  
       3A2     1.513030     6B1     1.583518    14A1     1.610590  
      15A1     1.676879    10B2     1.779740    16A1     2.005123  
       7B1     2.014062    11B2     2.307782     4A2     2.316045  
      17A1     2.383647    12B2     2.839902    18A1     3.025147  

    Beta Occupied:                                                        

       1A1   -11.223160     2A1    -0.780474     1B2    -0.587111  

    Beta Virtual:                                                         

       3A1     0.040786     2B2     0.057162     4A1     0.063941  
       1B1     0.072787     3B2     0.161890     5A1     0.171910  
       6A1     0.203833     2B1     0.213400     7A1     0.268665  
       4B2     0.323639     1A2     0.363905     8A1     0.442004  
       3B1     0.457679     5B2     0.468972     6B2     0.530591  
       9A1     0.531566     4B1     0.557502    10A1     0.568887  
      11A1     0.639426     7B2     0.661625     2A2     0.668230  
      12A1     0.959746     5B1     0.980339     8B2     1.005914  
      13A1     1.126941     9B2     1.447844     3A2     1.564404  
      14A1     1.680765     6B1     1.697884    15A1     1.753785  
      10B2     1.787970     7B1     2.050918    16A1     2.051061  
      11B2     2.348624     4A2     2.360271    17A1     2.414650  
      12B2     2.860310    18A1     3.051691  

    Final Occupation by Irrep:
             A1    A2    B1    B2 
    DOCC [     2,    0,    0,    1 ]
    SOCC [     1,    0,    1,    0 ]

  Energy converged.

  @UHF Final Energy:   -38.92820805369341

   => Energetics <=

    Nuclear Repulsion Energy =              6.1804871970249220
    One-Electron Energy =                 -63.9225257300587373
    Two-Electron Energy =                  18.8138304793404032
    PCM Polarization Energy =               0.0000000000000000
    Total Energy =                        -38.9282080536934103

    Alert: EFP and PCM quantities not currently incorporated into SCF psivars.
  UHF NO Occupations:
  HONO-2 :    2 A1 1.9940148
  HONO-1 :    1 B1 1.0000000
  HONO-0 :    3 A1 1.0000000
  LUNO+0 :    4 A1 0.0059852
  LUNO+1 :    2 B2 0.0018230
  LUNO+2 :    5 A1 0.0000012
  LUNO+3 :    6 A1 0.0000000



Properties will be evaluated at   0.000000,   0.000000,   0.000000 Bohr

Properties computed using the SCF density matrix

  Nuclear Dipole Moment: (a.u.)
     X:     0.0000      Y:     0.0000      Z:    -0.6895

  Electronic Dipole Moment: (a.u.)
     X:     0.0000      Y:     0.0000      Z:     0.4574

  Dipole Moment: (a.u.)
     X:     0.0000      Y:     0.0000      Z:    -0.2321     Total:     0.2321

  Dipole Moment: (Debye)
     X:     0.0000      Y:     0.0000      Z:    -0.5900     Total:     0.5900


*** tstop() called on cqc05 at Thu Aug 20 19:53:42 2020
Module time:
	user time   =       0.41 seconds =       0.01 minutes
	system time =       0.01 seconds =       0.00 minutes
	total time  =          0 seconds =       0.00 minutes
Total time:
	user time   =       0.41 seconds =       0.01 minutes
	system time =       0.01 seconds =       0.00 minutes
	total time  =          0 seconds =       0.00 minutes

*** tstart() called on cqc05
*** at Thu Aug 20 19:53:42 2020


	Wfn Parameters:
	--------------------
	Wavefunction         = CCSD
	Number of irreps     = 4
	Number of MOs        = 41
	Number of active MOs = 40
	AO-Basis             = NONE
	Semicanonical        = false
	Reference            = UHF
	Print Level          = 1

	IRREP	# MOs	# FZDC	# DOCC	# SOCC	# VIRT	# FZVR
	-----	-----	------	------	------	------	------
	 A1	   18	    1	    1	    1	    15	    0
	 A2	   4	    0	    0	    0	    4	    0
	 B1	   7	    0	    0	    1	    6	    0
	 B2	   12	    0	    1	    0	    11	    0
	Transforming integrals...
	IWL integrals will be deleted.
	(OO|OO)...
	Presorting SO-basis two-electron integrals.
	Sorting File: SO Ints (nn|nn) nbuckets = 1
	Transforming the one-electron integrals and constructing Fock matrices
	Starting AA/AB first half-transformation.
	Sorting AA/AB half-transformed integrals.
	Starting BB first half-transformation.
	Sorting BB half-transformed integrals.
	First half integral transformation complete.
	Starting AA second half-transformation.
	Starting AB second half-transformation.
	Starting BB second half-transformation.
	Two-electron integral transformation complete.
	(OO|OV)...
	Starting AA second half-transformation.
	Starting AB second half-transformation.
	Starting BB second half-transformation.
	Two-electron integral transformation complete.
	(OO|VV)...
	Starting AA second half-transformation.
	Starting AB second half-transformation.
	Starting BB second half-transformation.
	Two-electron integral transformation complete.
	(OV|OO)...
	Starting AA/AB first half-transformation.
	Sorting AA/AB half-transformed integrals.
	Starting BB first half-transformation.
	Sorting BB half-transformed integrals.
	First half integral transformation complete.
	Starting AA second half-transformation.
	Starting AB second half-transformation.
	Starting BB second half-transformation.
	Two-electron integral transformation complete.
	(OV|OV)...
	Starting AA second half-transformation.
	Starting AB second half-transformation.
	Starting BB second half-transformation.
	Two-electron integral transformation complete.
	(OV|VV)...
	Starting AA second half-transformation.
	Starting AB second half-transformation.
	Starting BB second half-transformation.
	Two-electron integral transformation complete.
	(VV|OO)...
	Starting AA/AB first half-transformation.
	Sorting AA/AB half-transformed integrals.
	Starting BB first half-transformation.
	Sorting BB half-transformed integrals.
	First half integral transformation complete.
	Starting AA second half-transformation.
	Starting AB second half-transformation.
	Starting BB second half-transformation.
	Two-electron integral transformation complete.
	(VV|OV)...
	Starting AA second half-transformation.
	Starting AB second half-transformation.
	Starting BB second half-transformation.
	Two-electron integral transformation complete.
	(VV|VV)...
	Starting AA second half-transformation.
	Starting AB second half-transformation.
	Starting BB second half-transformation.
	Two-electron integral transformation complete.
	Frozen core energy     =    -34.32915624655648

	Size of irrep 0 of <AB|CD> integrals:      0.033 (MW) /      0.262 (MB)
	Size of irrep 1 of <AB|CD> integrals:      0.016 (MW) /      0.127 (MB)
	Size of irrep 2 of <AB|CD> integrals:      0.018 (MW) /      0.144 (MB)
	Size of irrep 3 of <AB|CD> integrals:      0.036 (MW) /      0.286 (MB)
	Total:                                     0.102 (MW) /      0.819 (MB)

	Size of irrep 0 of <ab|cd> integrals:      0.041 (MW) /      0.326 (MB)
	Size of irrep 1 of <ab|cd> integrals:      0.020 (MW) /      0.159 (MB)
	Size of irrep 2 of <ab|cd> integrals:      0.024 (MW) /      0.195 (MB)
	Size of irrep 3 of <ab|cd> integrals:      0.042 (MW) /      0.333 (MB)
	Total:                                     0.127 (MW) /      1.013 (MB)

	Size of irrep 0 of <Ab|Cd> integrals:      0.176 (MW) /      1.404 (MB)
	Size of irrep 1 of <Ab|Cd> integrals:      0.071 (MW) /      0.570 (MB)
	Size of irrep 2 of <Ab|Cd> integrals:      0.084 (MW) /      0.668 (MB)
	Size of irrep 3 of <Ab|Cd> integrals:      0.154 (MW) /      1.236 (MB)
	Total:                                     0.485 (MW) /      3.879 (MB)

	Size of irrep 0 of <IA|BC> integrals:      0.019 (MW) /      0.150 (MB)
	Size of irrep 1 of <IA|BC> integrals:      0.006 (MW) /      0.050 (MB)
	Size of irrep 2 of <IA|BC> integrals:      0.008 (MW) /      0.066 (MB)
	Size of irrep 3 of <IA|BC> integrals:      0.015 (MW) /      0.124 (MB)
	Total:                                     0.049 (MW) /      0.390 (MB)

	Size of irrep 0 of <ia|bc> integrals:      0.012 (MW) /      0.095 (MB)
	Size of irrep 1 of <ia|bc> integrals:      0.003 (MW) /      0.025 (MB)
	Size of irrep 2 of <ia|bc> integrals:      0.003 (MW) /      0.027 (MB)
	Size of irrep 3 of <ia|bc> integrals:      0.011 (MW) /      0.088 (MB)
	Total:                                     0.029 (MW) /      0.236 (MB)

	Size of irrep 0 of <Ia|Bc> integrals:      0.021 (MW) /      0.168 (MB)
	Size of irrep 1 of <Ia|Bc> integrals:      0.007 (MW) /      0.056 (MB)
	Size of irrep 2 of <Ia|Bc> integrals:      0.010 (MW) /      0.079 (MB)
	Size of irrep 3 of <Ia|Bc> integrals:      0.017 (MW) /      0.132 (MB)
	Total:                                     0.054 (MW) /      0.434 (MB)

	Size of irrep 0 of <iA|bC> integrals:      0.011 (MW) /      0.087 (MB)
	Size of irrep 1 of <iA|bC> integrals:      0.003 (MW) /      0.021 (MB)
	Size of irrep 2 of <iA|bC> integrals:      0.003 (MW) /      0.023 (MB)
	Size of irrep 3 of <iA|bC> integrals:      0.010 (MW) /      0.082 (MB)
	Total:                                     0.027 (MW) /      0.213 (MB)

	Size of irrep 0 of tIjAb amplitudes:       0.001 (MW) /      0.010 (MB)
	Size of irrep 1 of tIjAb amplitudes:       0.000 (MW) /      0.002 (MB)
	Size of irrep 2 of tIjAb amplitudes:       0.000 (MW) /      0.002 (MB)
	Size of irrep 3 of tIjAb amplitudes:       0.001 (MW) /      0.009 (MB)
	Total:                                     0.003 (MW) /      0.024 (MB)

	Nuclear Rep. energy          =      6.18048719702492
	SCF energy                   =    -38.92820805369341
	One-electron energy          =    -17.75888503513481
	Two-electron (AA) energy     =      2.58112327438059
	Two-electron (BB) energy     =      0.36151952576919
	Two-electron (AB) energy     =      4.03670323082323
	Two-electron energy          =      6.97934603097300
	Reference energy             =    -38.92820805369337

*** tstop() called on cqc05 at Thu Aug 20 19:53:42 2020
Module time:
	user time   =       0.10 seconds =       0.00 minutes
	system time =       0.06 seconds =       0.00 minutes
	total time  =          0 seconds =       0.00 minutes
Total time:
	user time   =       0.51 seconds =       0.01 minutes
	system time =       0.07 seconds =       0.00 minutes
	total time  =          0 seconds =       0.00 minutes

*** tstart() called on cqc05
*** at Thu Aug 20 19:53:42 2020

            **************************
            *                        *
            *        CCENERGY        *
            *                        *
            **************************

    Nuclear Rep. energy (wfn)     =    6.180487197024922
    SCF energy          (wfn)     =  -38.928208053693410
    Reference energy    (file100) =  -38.928208053693368

    Input parameters:
    -----------------
    Wave function   =     CCSD
    Reference wfn   =     UHF
    Brueckner       =     No
    Memory (Mbytes) =     250000.0
    Maxiter         =     50
    R_Convergence   =     1.0e-07
    E_Convergence   =     1.0e-06
    Restart         =     Yes
    DIIS            =     Yes
    AO Basis        =     NONE
    ABCD            =     NEW
    Cache Level     =     2
    Cache Type      =     LRU
    Print Level     =     1
    Num. of threads =     4
    # Amps to Print =     10
    Print MP2 Amps? =     No
    Analyze T2 Amps =     No
    Print Pair Ener =     No
    Local CC        =     No
    SCS-MP2         =     False
    SCSN-MP2        =     False
    SCS-CCSD        =     False

MP2 correlation energy -0.0967865401150885
                Solving CC Amplitude Equations
                ------------------------------
  Iter             Energy              RMS        T1Diag      D1Diag    New D1Diag    D2Diag
  ----     ---------------------    ---------   ----------  ----------  ----------   --------
     0        -0.096786540115088    0.000e+00    0.000000    0.000000    0.000000    0.000000
     1        -0.112009500016845    3.977e-02    0.007524    0.000000    0.000000    0.000000
     2        -0.116914383665446    1.572e-02    0.012949    0.000000    0.000000    0.000000
     3        -0.117321972868349    5.436e-03    0.015619    0.000000    0.000000    0.000000
     4        -0.117337617759961    1.498e-03    0.016054    0.000000    0.000000    0.000000
     5        -0.117348140796214    5.118e-04    0.016122    0.000000    0.000000    0.000000
     6        -0.117352677270101    1.922e-04    0.016101    0.000000    0.000000    0.000000
     7        -0.117353976651270    6.454e-05    0.016090    0.000000    0.000000    0.000000
     8        -0.117354062225350    1.996e-05    0.016087    0.000000    0.000000    0.000000
     9        -0.117354006511452    5.995e-06    0.016086    0.000000    0.000000    0.000000
    10        -0.117354021107908    2.219e-06    0.016086    0.000000    0.000000    0.000000
    11        -0.117354010468581    6.269e-07    0.016086    0.000000    0.000000    0.000000
    12        -0.117354011442913    2.037e-07    0.016086    0.000000    0.000000    0.000000
    13        -0.117354009836013    5.783e-08    0.016086    0.000000    0.000000    0.000000
    13        -0.117354009836013    5.783e-08    0.016086    0.000000    0.000000    0.000000

    Iterations converged.


    CCSD corr. energy   =   -0.117354009836013
    PPL corr. energy    =    0.027199999020831
    OS PPL corr. energy =    0.022953529199280
    SS PPL corr. energy =    0.004246469821550
    Largest TIA Amplitudes:
              2  19        -0.0147747664
              1   1         0.0113414701
              0   3        -0.0096663695
              2  20        -0.0093421065
              1   4        -0.0075752927
              0   7        -0.0047138522
              3  27        -0.0041158138
              1   5        -0.0038278569
              3  33         0.0036571622
              0   8         0.0033076833

    Largest Tia Amplitudes:
              0   4         0.0115096371
              0   3        -0.0108682524
              0   1         0.0101929022
              0   8         0.0093809906
              0   2         0.0084646614
              0   9        -0.0075714576
              1  33         0.0061755766
              0   6        -0.0057587424
              0  14        -0.0049406900
              1  36         0.0047776507

    Largest TIJAB Amplitudes:
      2   1  22   8        -0.0214692120
      2   1  20   4        -0.0202374717
      3   2  31  22        -0.0174266812
      3   2  15   3         0.0172834222
      2   1  23  10         0.0156750878
      3   1  31   8        -0.0156377755
      3   2  27  22        -0.0145820150
      3   1  27   8        -0.0145048547
      2   1  22   1         0.0144101655
      2   1  19   8        -0.0131251016

    Largest Tijab Amplitudes:
      1   0  21  18        -0.0071831168
      1   0  21  16        -0.0068113382
      1   0  29   3         0.0064704802
      1   0  30   4        -0.0059587810
      1   0  30   8        -0.0056220525
      1   0  33   3         0.0051064548
      1   0  29   1        -0.0048413852
      1   0  20  16        -0.0047414765
      1   0  21  17         0.0047276802
      1   0  20  18        -0.0044212245

    Largest TIjAb Amplitudes:
      3   1  31  33        -0.0356947971
      2   0   3  21        -0.0325996744
      3   1   3   4        -0.0315831066
      3   1  27  29        -0.0293504130
      3   1  27  33        -0.0275727826
      3   1   3   8        -0.0244895840
      3   1  31  29        -0.0242033348
      2   1  22  33        -0.0220299730
      2   0   4  21        -0.0214409345
      1   0  20  21         0.0213076050

    SCF energy       (wfn)                    =  -38.928208053693410
    Reference energy (file100)                =  -38.928208053693368

    Opposite-spin MP2 correlation energy      =   -0.074412399852324
    Same-spin MP2 correlation energy          =   -0.022374140262764
    MP2 correlation energy                    =   -0.096786540115088
      * MP2 total energy                      =  -39.024994593808458

    Opposite-spin CCSD correlation energy     =   -0.093025415975930
    Same-spin CCSD correlation energy         =   -0.024328593866948
    CCSD correlation energy                   =   -0.117354009836013
      * CCSD total energy                     =  -39.045562063529381


*** tstop() called on cqc05 at Thu Aug 20 19:53:43 2020
Module time:
	user time   =       0.25 seconds =       0.00 minutes
	system time =       0.13 seconds =       0.00 minutes
	total time  =          1 seconds =       0.02 minutes
Total time:
	user time   =       0.76 seconds =       0.01 minutes
	system time =       0.20 seconds =       0.00 minutes
	total time  =          1 seconds =       0.02 minutes

*** Psi4 exiting successfully. Buy a developer a beer!
