
    -----------------------------------------------------------------------
          Psi4: An Open-Source Ab Initio Electronic Structure Package
                               Psi4 1.2a1.dev939 

                         Git: Rev {HEAD} fa1ec19 


    R. M. Parrish, L. A. Burns, D. G. A. Smith, A. C. Simmonett,
    A. E. DePrince III, E. G. Hohenstein, U. Bozkaya, A. Yu. Sokolov,
    R. Di Remigio, R. M. Richard, J. F. Gonthier, A. M. James,
    H. R. McAlexander, A. Kumar, M. Saitow, X. Wang, B. P. Pritchard,
    P. Verma, H. F. Schaefer III, K. Patkowski, R. A. King, E. F. Valeev,
    F. A. Evangelista, J. M. Turney, T. D. Crawford, and C. D. Sherrill,
    J. Chem. Theory Comput. 13(7) pp 3185--3197 (2017).
    (doi: 10.1021/acs.jctc.7b00174)

    -----------------------------------------------------------------------


    Psi4 started on: Saturday, 27 April 2019 04:54AM

    Process ID:   9733
    PSIDATADIR: /home/grueneis/src/psi4/objdir/stage/usr/local/psi4/share/psi4
    Memory:     500.0 MiB
    Threads:    1
    
  ==> Input File <==

--------------------------------------------------------------------------
# Any line starting with the # character is a comment line

memory 32000 mb

molecule molecule {
0 1
C          0.4159467511        0.0922139500        0.0000000000
O         -0.2086001535        1.1229963918        0.0000000000
O         -0.1249796048       -1.1409420749        0.0000000000
H         -1.0881867206       -1.0190307559        0.0000000000
H          1.5056910277        0.0154612889        0.0000000000
}

set {
  reference rhf
  basis aug-cc-pv(T+d)z
  scf_type OUT_OF_CORE
  freeze_core true
}

energy('ccsd')
--------------------------------------------------------------------------

  Memory set to  29.802 GiB by Python driver.

*** tstart() called on cqc01
*** at Sat Apr 27 04:54:20 2019

   => Loading Basis Set <=

    Name: AUG-CC-PV(T+D)Z
    Role: ORBITAL
    Keyword: BASIS
    atoms 1   entry C          line   255 file /home/grueneis/src/psi4/objdir/stage/usr/local/psi4/share/psi4/basis/aug-cc-pv_tpd_z.gbs 
    atoms 2-3 entry O          line   347 file /home/grueneis/src/psi4/objdir/stage/usr/local/psi4/share/psi4/basis/aug-cc-pv_tpd_z.gbs 
    atoms 4-5 entry H          line    56 file /home/grueneis/src/psi4/objdir/stage/usr/local/psi4/share/psi4/basis/aug-cc-pv_tpd_z.gbs 


         ---------------------------------------------------------
                                   SCF
            by Justin Turney, Rob Parrish, Andy Simmonett
                             and Daniel Smith
                              RHF Reference
                        1 Threads,  30517 MiB Core
         ---------------------------------------------------------

  ==> Geometry <==

    Molecular point group: cs
    Full point group: Cs

    Geometry (in Angstrom), charge = 0, multiplicity = 1:

       Center              X                  Y                   Z               Mass       
    ------------   -----------------  -----------------  -----------------  -----------------
           C          0.414282763392     0.096385077051     0.000000000000    12.000000000000
           O         -0.210264141208     1.127167518851     0.000000000000    15.994914619560
           O         -0.126643592508    -1.136770947849     0.000000000000    15.994914619560
           H         -1.089850708308    -1.014859628849     0.000000000000     1.007825032070
           H          1.504027039992     0.019632415951     0.000000000000     1.007825032070

  Running in cs symmetry.

  Rotational constants: A =      2.59364  B =      0.40003  C =      0.34657 [cm^-1]
  Rotational constants: A =  77755.37668  B =  11992.45083  C =  10389.97330 [MHz]
  Nuclear repulsion =   70.061742650410338

  Charge       = 0
  Multiplicity = 1
  Electrons    = 24
  Nalpha       = 12
  Nbeta        = 12

  ==> Algorithm <==

  SCF Algorithm Type is OUT_OF_CORE.
  DIIS enabled.
  MOM disabled.
  Fractional occupation disabled.
  Guess Type is SAD.
  Energy threshold   = 1.00e-08
  Density threshold  = 1.00e-08
  Integral threshold = 0.00e+00

  ==> Primary Basis <==

  Basis Set: AUG-CC-PV(T+D)Z
    Blend: AUG-CC-PV(T+D)Z
    Number of shells: 60
    Number of basis function: 184
    Number of Cartesian functions: 215
    Spherical Harmonics?: true
    Max angular momentum: 3

  ==> Pre-Iterations <==

   -------------------------------------------------------
    Irrep   Nso     Nmo     Nalpha   Nbeta   Ndocc  Nsocc
   -------------------------------------------------------
     A'       122     122       0       0       0       0
     A"        62      62       0       0       0       0
   -------------------------------------------------------
    Total     184     184      12      12      12       0
   -------------------------------------------------------

  ==> Integral Setup <==

  ==> DiskJK: Disk-Based J/K Matrices <==

    J tasked:                  Yes
    K tasked:                  Yes
    wK tasked:                  No
    Memory (MB):             22888
    Schwarz Cutoff:          1E-12

  Minimum eigenvalue in the overlap matrix is 6.8393701930E-05.
  Using Symmetric Orthogonalization.

  SCF Guess: Superposition of Atomic Densities via on-the-fly atomic UHF.

  ==> Iterations <==

                        Total Energy        Delta E     RMS |[F,P]|

   @RHF iter   0:  -189.49826813632805   -1.89498e+02   2.39028e-02 
   @RHF iter   1:  -188.71187321226034    7.86395e-01   4.07448e-03 
   @RHF iter   2:  -188.79546052688559   -8.35873e-02   2.59884e-03 DIIS
   @RHF iter   3:  -188.83999982956874   -4.45393e-02   5.15388e-04 DIIS
   @RHF iter   4:  -188.84289414357789   -2.89431e-03   2.07633e-04 DIIS
   @RHF iter   5:  -188.84344350061622   -5.49357e-04   7.09645e-05 DIIS
   @RHF iter   6:  -188.84352702714236   -8.35265e-05   1.98720e-05 DIIS
   @RHF iter   7:  -188.84353463112839   -7.60399e-06   4.25113e-06 DIIS
   @RHF iter   8:  -188.84353493620941   -3.05081e-07   1.16863e-06 DIIS
   @RHF iter   9:  -188.84353496110219   -2.48928e-08   2.88381e-07 DIIS
   @RHF iter  10:  -188.84353496316902   -2.06683e-09   7.20473e-08 DIIS
   @RHF iter  11:  -188.84353496327955   -1.10532e-10   1.83253e-08 DIIS
   @RHF iter  12:  -188.84353496328885   -9.29390e-12   6.23833e-09 DIIS

  ==> Post-Iterations <==

    Orbital Energies (a.u.)
    -----------------------

    Doubly Occupied:                                                      

       1Ap   -20.630353     2Ap   -20.569045     3Ap   -11.398870  
       4Ap    -1.477199     5Ap    -1.377483     6Ap    -0.897824  
       7Ap    -0.725346     8Ap    -0.714446     1App   -0.638132  
       9Ap    -0.606865     2App   -0.497845    10Ap    -0.475615  

    Virtual:                                                              

      11Ap     0.029396    12Ap     0.037374     3App    0.074138  
      13Ap     0.080451    14Ap     0.107224    15Ap     0.134073  
       4App    0.142984    16Ap     0.151097    17Ap     0.160774  
       5App    0.174656    18Ap     0.183229     6App    0.224533  
      19Ap     0.227652    20Ap     0.240012    21Ap     0.269522  
      22Ap     0.283839     7App    0.284757     8App    0.312476  
      23Ap     0.318594    24Ap     0.333313    25Ap     0.365579  
       9App    0.392272    26Ap     0.399584    27Ap     0.404323  
      28Ap     0.442650    10App    0.456395    29Ap     0.499270  
      30Ap     0.519333    11App    0.539905    31Ap     0.561059  
      32Ap     0.602814    33Ap     0.630811    34Ap     0.686896  
      35Ap     0.712779    12App    0.721555    36Ap     0.760096  
      37Ap     0.769905    13App    0.793388    38Ap     0.822298  
      14App    0.841710    15App    0.852210    16App    0.887121  
      39Ap     0.893870    40Ap     0.913431    41Ap     0.923337  
      17App    0.928046    42Ap     0.931211    43Ap     0.957193  
      18App    0.976193    44Ap     1.011123    45Ap     1.021796  
      19App    1.022190    46Ap     1.042598    47Ap     1.064072  
      20App    1.093666    48Ap     1.126576    49Ap     1.156344  
      21App    1.177978    50Ap     1.245113    22App    1.262693  
      51Ap     1.306232    52Ap     1.358802    23App    1.396840  
      53Ap     1.412414    54Ap     1.414995    24App    1.464612  
      55Ap     1.478865    25App    1.496642    56Ap     1.558190  
      57Ap     1.600766    26App    1.630603    27App    1.666896  
      58Ap     1.668117    59Ap     1.765411    60Ap     1.816599  
      61Ap     1.941030    28App    1.943800    62Ap     2.011984  
      63Ap     2.059660    64Ap     2.101699    29App    2.220148  
      30App    2.287722    65Ap     2.329574    31App    2.365795  
      66Ap     2.370944    32App    2.378015    67Ap     2.423537  
      68Ap     2.432380    69Ap     2.449541    70Ap     2.513956  
      71Ap     2.538667    33App    2.542550    34App    2.597837  
      35App    2.617843    72Ap     2.621241    73Ap     2.688625  
      74Ap     2.714740    36App    2.821300    75Ap     2.821926  
      37App    2.881201    76Ap     2.887957    38App    2.893418  
      77Ap     2.924327    78Ap     2.957411    79Ap     3.132133  
      39App    3.184331    80Ap     3.265935    40App    3.350762  
      81Ap     3.356198    82Ap     3.535191    41App    3.572520  
      83Ap     3.617580    84Ap     3.760201    42App    3.777516  
      85Ap     3.841916    43App    3.902177    86Ap     4.009925  
      44App    4.068025    87Ap     4.096826    88Ap     4.100461  
      45App    4.186040    89Ap     4.206862    90Ap     4.300394  
      91Ap     4.320140    46App    4.367575    47App    4.398859  
      92Ap     4.563586    48App    4.657245    93Ap     4.673893  
      49App    4.718652    94Ap     4.775497    95Ap     4.898404  
      96Ap     5.017618    97Ap     5.150742    50App    5.177105  
      51App    5.199298    98Ap     5.262609    99Ap     5.345009  
      52App    5.368296   100Ap     5.524865   101Ap     5.693897  
     102Ap     5.945799   103Ap     6.220361   104Ap     6.282617  
     105Ap     6.508418    53App    6.602384   106Ap     6.644338  
      54App    6.763850    55App    6.785743   107Ap     6.824320  
     108Ap     6.945002    56App    6.991187    57App    7.144225  
     109Ap     7.157416    58App    7.190267    59App    7.210207  
     110Ap     7.257844    60App    7.313930   111Ap     7.314707  
     112Ap     7.398081    61App    7.497292   113Ap     7.516103  
      62App    7.577906   114Ap     7.698181   115Ap     7.783252  
     116Ap     7.799934   117Ap     7.973513   118Ap     8.147285  
     119Ap     8.479522   120Ap    14.689498   121Ap    15.944520  
     122Ap    17.137297  

    Final Occupation by Irrep:
             Ap   App 
    DOCC [    10,    2 ]

  Energy converged.

  @RHF Final Energy:  -188.84353496328885

   => Energetics <=

    Nuclear Repulsion Energy =             70.0617426504103378
    One-Electron Energy =                -397.7925121532617254
    Two-Electron Energy =                 138.8872345395625416
    Total Energy =                       -188.8435349632888460



Properties will be evaluated at   0.000000,   0.000000,   0.000000 Bohr

Properties computed using the SCF density matrix

  Nuclear Dipole Moment: (a.u.)
     X:     0.3867      Y:    -0.9330      Z:     0.0000

  Electronic Dipole Moment: (a.u.)
     X:    -0.2268      Y:     0.2695      Z:     0.0000

  Dipole Moment: (a.u.)
     X:     0.1598      Y:    -0.6636      Z:     0.0000     Total:     0.6826

  Dipole Moment: (Debye)
     X:     0.4062      Y:    -1.6867      Z:     0.0000     Total:     1.7349


*** tstop() called on cqc01 at Sat Apr 27 04:55:21 2019
Module time:
	user time   =      28.63 seconds =       0.48 minutes
	system time =       6.46 seconds =       0.11 minutes
	total time  =         61 seconds =       1.02 minutes
Total time:
	user time   =      28.63 seconds =       0.48 minutes
	system time =       6.46 seconds =       0.11 minutes
	total time  =         61 seconds =       1.02 minutes

*** tstart() called on cqc01
*** at Sat Apr 27 04:55:21 2019


	Wfn Parameters:
	--------------------
	Wavefunction         = CCSD
	Number of irreps     = 2
	Number of MOs        = 184
	Number of active MOs = 181
	AO-Basis             = NONE
	Semicanonical        = false
	Reference            = RHF
	Print Level          = 1

	IRREP	# MOs	# FZDC	# DOCC	# SOCC	# VIRT	# FZVR
	-----	-----	------	------	------	------	------
	 Ap	   122	    3	    7	    0	    112	    0
	 App	   62	    0	    2	    0	    60	    0
	Transforming integrals...
	IWL integrals will be deleted.
	(OO|OO)...
	Presorting SO-basis two-electron integrals.
	Sorting File: SO Ints (nn|nn) nbuckets = 1
	Transforming the one-electron integrals and constructing Fock matrices
	Starting first half-transformation.
	Sorting half-transformed integrals.
	First half integral transformation complete.
	Starting second half-transformation.
	Two-electron integral transformation complete.
	(OO|OV)...
	Starting second half-transformation.
	Two-electron integral transformation complete.
	(OO|VV)...
	Starting second half-transformation.
	Two-electron integral transformation complete.
	(OV|OO)...
	Starting first half-transformation.
	Sorting half-transformed integrals.
	First half integral transformation complete.
	Starting second half-transformation.
	Two-electron integral transformation complete.
	(OV|OV)...
	Starting second half-transformation.
	Two-electron integral transformation complete.
	(OV|VV)...
	Starting second half-transformation.
	Two-electron integral transformation complete.
	(VV|OO)...
	Starting first half-transformation.
	Sorting half-transformed integrals.
	First half integral transformation complete.
	Starting second half-transformation.
	Two-electron integral transformation complete.
	(VV|OV)...
	Starting second half-transformation.
	Two-electron integral transformation complete.
	(VV|VV)...
	Starting second half-transformation.
	Two-electron integral transformation complete.
	Frozen core energy     =   -181.21020555945239

	Size of irrep 0 of <ab|cd> integrals:    260.629 (MW) /   2085.030 (MB)
	Size of irrep 1 of <ab|cd> integrals:    180.634 (MW) /   1445.069 (MB)
	Total:                                   441.262 (MW) /   3530.099 (MB)

	Size of irrep 0 of <ia|bc> integrals:     14.594 (MW) /    116.753 (MB)
	Size of irrep 1 of <ia|bc> integrals:      8.655 (MW) /     69.243 (MB)
	Total:                                    23.250 (MW) /    185.996 (MB)

	Size of irrep 0 of tijab amplitudes:       0.856 (MW) /      6.845 (MB)
	Size of irrep 1 of tijab amplitudes:       0.376 (MW) /      3.011 (MB)
	Total:                                     1.232 (MW) /      9.856 (MB)

	Nuclear Rep. energy          =     70.06174265041034
	SCF energy                   =   -188.84353496328885
	One-electron energy          =   -140.56863635689749
	Two-electron energy          =     62.87356430264902
	Reference energy             =   -188.84353496329052

*** tstop() called on cqc01 at Sat Apr 27 05:00:17 2019
Module time:
	user time   =      49.59 seconds =       0.83 minutes
	system time =      32.97 seconds =       0.55 minutes
	total time  =        296 seconds =       4.93 minutes
Total time:
	user time   =      78.22 seconds =       1.30 minutes
	system time =      39.43 seconds =       0.66 minutes
	total time  =        357 seconds =       5.95 minutes

*** tstart() called on cqc01
*** at Sat Apr 27 05:00:17 2019

            **************************
            *                        *
            *        CCENERGY        *
            *                        *
            **************************

    Nuclear Rep. energy (wfn)     =   70.061742650410338
    SCF energy          (wfn)     = -188.843534963288846
    Reference energy    (file100) = -188.843534963290523

    Input parameters:
    -----------------
    Wave function   =     CCSD
    Reference wfn   =     RHF
    Brueckner       =     No
    Memory (Mbytes) =     32000.0
    Maxiter         =     50
    R_Convergence   =     1.0e-07
    E_Convergence   =     1.0e-06
    Restart         =     Yes
    DIIS            =     Yes
    AO Basis        =     NONE
    ABCD            =     NEW
    Cache Level     =     2
    Cache Type      =     LOW
    Print Level     =     1
    Num. of threads =     1
    # Amps to Print =     10
    Print MP2 Amps? =     No
    Analyze T2 Amps =     No
    Print Pair Ener =     No
    Local CC        =     No
    SCS-MP2         =     False
    SCSN-MP2        =     False
    SCS-CCSD        =     False

MP2 correlation energy -0.6432263237776121
                Solving CC Amplitude Equations
                ------------------------------
  Iter             Energy              RMS        T1Diag      D1Diag    New D1Diag    D2Diag
  ----     ---------------------    ---------   ----------  ----------  ----------   --------
     0        -0.643226323777101    0.000e+00    0.000000    0.000000    0.000000    0.153908
     1        -0.655493548590059    3.520e-01    0.027459    0.083678    0.083678    0.164813
     2        -0.659554385269708    7.489e-02    0.015869    0.049433    0.049433    0.171243
     3        -0.647821371293071    2.176e-02    0.017340    0.055266    0.055266    0.164673
     4        -0.646232037930786    3.998e-03    0.016888    0.054146    0.054146    0.163829
     5        -0.646293261521260    1.046e-03    0.016783    0.053900    0.053900    0.163608
     6        -0.646255149666403    3.959e-04    0.016759    0.053895    0.053895    0.163483
     7        -0.646227886161487    1.369e-04    0.016752    0.053883    0.053883    0.163421
     8        -0.646234224267909    5.195e-05    0.016751    0.053884    0.053884    0.163410
     9        -0.646235323452225    2.306e-05    0.016752    0.053885    0.053885    0.163405
    10        -0.646234330972556    1.054e-05    0.016753    0.053885    0.053885    0.163403
    11        -0.646234643551999    3.737e-06    0.016753    0.053885    0.053885    0.163403
    12        -0.646234918575325    1.273e-06    0.016753    0.053885    0.053885    0.163403
    13        -0.646234887021418    5.110e-07    0.016753    0.053885    0.053885    0.163403
    14        -0.646234903359149    1.798e-07    0.016753    0.053885    0.053885    0.163403
    15        -0.646234902344500    6.695e-08    0.016753    0.053885    0.053885    0.163403
    15        -0.646234902344500    6.695e-08    0.016753    0.053885    0.053885    0.163403

    Iterations converged.


    CCSD corr. energy   =   -0.646234902344500
    PPL corr. energy    =    0.139885309184829
    OS PPL corr. energy =    0.115059118545807
    SS PPL corr. energy =    0.024826190639014
    Largest TIA Amplitudes:
              7 113         0.0398861119
              7 115         0.0195349913
              7 116         0.0175680475
              8 113         0.0138304930
              7 112         0.0126472576
              6  20        -0.0120952124
              3  20         0.0104089026
              6   0        -0.0095310327
              6  19        -0.0093164347
              6   3        -0.0086126687

    Largest TIjAb Amplitudes:
      8   8 113 113        -0.0596372262
      7   7 113 113        -0.0404088659
      8   8 113 115        -0.0380233149
      8   8 115 113        -0.0380233149
      8   8 115 115        -0.0274855377
      8   8 113 116        -0.0256278575
      8   8 116 113        -0.0256278575
      7   8 113 113        -0.0248238049
      8   7 113 113        -0.0248238049
      6   6  20  20        -0.0214540729

    SCF energy       (wfn)                    = -188.843534963288846
    Reference energy (file100)                = -188.843534963290523

    Opposite-spin MP2 correlation energy      =   -0.479072780037756
    Same-spin MP2 correlation energy          =   -0.164153543739345
    MP2 correlation energy                    =   -0.643226323777612
      * MP2 total energy                      = -189.486761287068134

    Opposite-spin CCSD correlation energy     =   -0.501853753652474
    Same-spin CCSD correlation energy         =   -0.144381154380094
    CCSD correlation energy                   =   -0.646234902344500
      * CCSD total energy                     = -189.489769865635026


*** tstop() called on cqc01 at Sat Apr 27 05:06:02 2019
Module time:
	user time   =      58.80 seconds =       0.98 minutes
	system time =      54.62 seconds =       0.91 minutes
	total time  =        345 seconds =       5.75 minutes
Total time:
	user time   =     137.02 seconds =       2.28 minutes
	system time =      94.05 seconds =       1.57 minutes
	total time  =        702 seconds =      11.70 minutes

*** Psi4 exiting successfully. Buy a developer a beer!
