
    -----------------------------------------------------------------------
          Psi4: An Open-Source Ab Initio Electronic Structure Package
                               Psi4 1.4a3.dev88 

                         Git: Rev {master} 262e345 


    D. G. A. Smith, L. A. Burns, A. C. Simmonett, R. M. Parrish,
    M. C. Schieber, R. Galvelis, P. Kraus, H. Kruse, R. Di Remigio,
    A. Alenaizan, A. M. James, S. Lehtola, J. P. Misiewicz, M. Scheurer,
    R. A. Shaw, J. B. Schriber, Y. Xie, Z. L. Glick, D. A. Sirianni,
    J. S. O'Brien, J. M. Waldrop, A. Kumar, E. G. Hohenstein,
    B. P. Pritchard, B. R. Brooks, H. F. Schaefer III, A. Yu. Sokolov,
    K. Patkowski, A. E. DePrince III, U. Bozkaya, R. A. King,
    F. A. Evangelista, J. M. Turney, T. D. Crawford, C. D. Sherrill,
    J. Chem. Phys. 152(18) 184108 (2020). https://doi.org/10.1063/5.0006002

                            Additional Code Authors
    E. T. Seidl, C. L. Janssen, E. F. Valeev, M. L. Leininger,
    J. F. Gonthier, R. M. Richard, H. R. McAlexander, M. Saitow, X. Wang,
    P. Verma, and M. H. Lechner

             Previous Authors, Complete List of Code Contributors,
                       and Citations for Specific Modules
    https://github.com/psi4/psi4/blob/master/codemeta.json
    https://github.com/psi4/psi4/graphs/contributors
    http://psicode.org/psi4manual/master/introduction.html#citing-psifour

    -----------------------------------------------------------------------


    Psi4 started on: Tuesday, 26 January 2021 06:38PM

    Process ID: 412178
    Host:       n412-039.vsc4.prov
    PSIDATADIR: /home/fs71337/gallo4/psi4/eri-6/psi4/build/stage/share/psi4
    Memory:     500.0 MiB
    Threads:    48
    
  ==> Input File <==

--------------------------------------------------------------------------
# Any line starting with the # character is a comment line
memory 250000 mb
molecule molecule{
0 1
C          0.0000000000        0.0000000000       -0.6203930707
O          0.0000000000        0.0000000000        0.5925090134
H          0.9360096420        0.0000000000       -1.1985794735
H         -0.9360096420        0.0000000000       -1.1985794735
}

set {
  reference rhf
  basis aug-cc-pV(d+d)Z
  scf_type OUT_OF_CORE
  freeze_core true
}

energy('ccsd(t)')
--------------------------------------------------------------------------

  Memory set to 232.831 GiB by Python driver.

Scratch directory: /binfl/lv71337/airmler/temp/

*** tstart() called on n412-039.vsc4.prov
*** at Tue Jan 26 18:38:52 2021

   => Loading Basis Set <=

    Name: AUG-CC-PV(D+D)Z
    Role: ORBITAL
    Keyword: BASIS
    atoms 1   entry C          line   210 file /home/fs71337/gallo4/psi4/eri-6/psi4/build/stage/share/psi4/basis/aug-cc-pv_dpd_z.gbs 
    atoms 2   entry O          line   282 file /home/fs71337/gallo4/psi4/eri-6/psi4/build/stage/share/psi4/basis/aug-cc-pv_dpd_z.gbs 
    atoms 3-4 entry H          line    68 file /home/fs71337/gallo4/psi4/eri-6/psi4/build/stage/share/psi4/basis/aug-cc-pv_dpd_z.gbs 


         ---------------------------------------------------------
                                   SCF
               by Justin Turney, Rob Parrish, Andy Simmonett
                          and Daniel G. A. Smith
                              RHF Reference
                       48 Threads, 238418 MiB Core
         ---------------------------------------------------------

  ==> Geometry <==

    Molecular point group: c2v
    Full point group: C2v

    Geometry (in Angstrom), charge = 0, multiplicity = 1:

       Center              X                  Y                   Z               Mass       
    ------------   -----------------  -----------------  -----------------  -----------------
         C            0.000000000000     0.000000000000    -0.607614152182    12.000000000000
         O            0.000000000000     0.000000000000     0.605287931918    15.994914619570
         H            0.936009642000     0.000000000000    -1.185800554982     1.007825032230
         H           -0.936009642000    -0.000000000000    -1.185800554982     1.007825032230

  Running in c2v symmetry.

  Rotational constants: A =      9.54598  B =      1.28442  C =      1.13210 [cm^-1]
  Rotational constants: A = 286181.40899  B =  38505.93615  C =  33939.36729 [MHz]
  Nuclear repulsion =   31.186056983427605

  Charge       = 0
  Multiplicity = 1
  Electrons    = 16
  Nalpha       = 8
  Nbeta        = 8

  ==> Algorithm <==

  SCF Algorithm Type is OUT_OF_CORE.
  DIIS enabled.
  MOM disabled.
  Fractional occupation disabled.
  Guess Type is SAD.
  Energy threshold   = 1.00e-08
  Density threshold  = 1.00e-08
  Integral threshold = 1.00e-12

  ==> Primary Basis <==

  Basis Set: AUG-CC-PV(D+D)Z
    Blend: AUG-CC-PV(D+D)Z
    Number of shells: 28
    Number of basis function: 64
    Number of Cartesian functions: 68
    Spherical Harmonics?: true
    Max angular momentum: 2

  ==> Integral Setup <==

  ==> DiskJK: Disk-Based J/K Matrices <==

    J tasked:                  Yes
    K tasked:                  Yes
    wK tasked:                  No
    Memory [MiB]:           178813
    Schwarz Cutoff:          1E-12

  Minimum eigenvalue in the overlap matrix is 8.6124817703E-04.
  Reciprocal condition number of the overlap matrix is 1.4448781845E-04.
    Using symmetric orthogonalization.

  ==> Pre-Iterations <==

  SCF Guess: Superposition of Atomic Densities via on-the-fly atomic UHF (no occupation information).


 WARNING: Atomic UHF is not converging! Try casting from a smaller basis or call Rob at CCMST.

 WARNING: Atomic UHF is not converging! Try casting from a smaller basis or call Rob at CCMST.
   -------------------------
    Irrep   Nso     Nmo    
   -------------------------
     A1        29      29 
     A2         6       6 
     B1        17      17 
     B2        12      12 
   -------------------------
    Total      64      64
   -------------------------

  ==> Iterations <==

                        Total Energy        Delta E     RMS |[F,P]|

   @RHF iter SAD:  -105.75483791973784   -1.05755e+02   0.00000e+00 
   @RHF iter   1:  -111.67038149693609   -5.91554e+00   6.44700e-02 DIIS
   @RHF iter   2:  -105.74536287714000    5.92502e+00   6.65960e-02 DIIS
   @RHF iter   3:  -113.18006869001317   -7.43471e+00   3.50669e-02 DIIS
   @RHF iter   4:  -113.79825893922526   -6.18190e-01   1.10733e-02 DIIS
   @RHF iter   5:  -113.88086608013758   -8.26071e-02   1.66077e-03 DIIS
   @RHF iter   6:  -113.88423647937034   -3.37040e-03   3.82708e-04 DIIS
   @RHF iter   7:  -113.88454654480546   -3.10065e-04   2.13105e-04 DIIS
   @RHF iter   8:  -113.88463778412589   -9.12393e-05   5.30378e-05 DIIS
   @RHF iter   9:  -113.88464593522767   -8.15110e-06   7.91428e-06 DIIS
   @RHF iter  10:  -113.88464605542649   -1.20199e-07   1.55322e-06 DIIS
   @RHF iter  11:  -113.88464605937455   -3.94806e-09   1.59466e-07 DIIS
   @RHF iter  12:  -113.88464605940970   -3.51577e-11   3.43693e-08 DIIS
   @RHF iter  13:  -113.88464605941098   -1.27898e-12   4.59696e-09 DIIS
  Energy and wave function converged.


  ==> Post-Iterations <==

    Orbital Energies [Eh]
    ---------------------

    Doubly Occupied:                                                      

       1A1   -20.589186     2A1   -11.353152     3A1    -1.407289  
       4A1    -0.873786     1B1    -0.694377     5A1    -0.651959  
       1B2    -0.534649     2B1    -0.443610  

    Virtual:                                                              

       6A1     0.032766     3B1     0.050570     2B2     0.068517  
       7A1     0.089600     3B2     0.147092     4B1     0.155382  
       8A1     0.159948     9A1     0.219730    10A1     0.258464  
       5B1     0.266182     4B2     0.267154    11A1     0.323086  
       1A2     0.342187     6B1     0.355655    12A1     0.446347  
       5B2     0.451884     7B1     0.467824    13A1     0.511572  
       8B1     0.551596    14A1     0.555317     2A2     0.595077  
       6B2     0.617288    15A1     0.643437     9B1     0.684838  
      16A1     0.752847     7B2     0.842651    17A1     0.896422  
      10B1     0.992753    18A1     1.056883     3A2     1.211388  
      11B1     1.215535     8B2     1.227924    19A1     1.274689  
      20A1     1.419499     4A2     1.492269    12B1     1.495141  
      21A1     1.621428     9B2     1.629629    13B1     1.819293  
      10B2     1.820089    22A1     1.948650    14B1     1.959970  
      23A1     2.079014    11B2     2.143727    24A1     2.184504  
       5A2     2.222378    15B1     2.382764    25A1     2.548305  
      26A1     2.664046    16B1     2.942203    27A1     3.299987  
       6A2     3.688651    28A1     3.700310    12B2     3.737644  
      17B1     3.884884    29A1     4.042114  

    Final Occupation by Irrep:
             A1    A2    B1    B2 
    DOCC [     5,    0,    2,    1 ]

  @RHF Final Energy:  -113.88464605941098

   => Energetics <=

    Nuclear Repulsion Energy =             31.1860569834276049
    One-Electron Energy =                -217.0453919535226248
    Two-Electron Energy =                  71.9746889106840229
    Total Energy =                       -113.8846460594109828

Computation Completed


Properties will be evaluated at   0.000000,   0.000000,   0.000000 [a0]

Properties computed using the SCF density matrix

  Nuclear Dipole Moment: [e a0]
     X:     0.0000      Y:     0.0000      Z:    -2.2204

  Electronic Dipole Moment: [e a0]
     X:     0.0000      Y:     0.0000      Z:     1.0792

  Dipole Moment: [e a0]
     X:     0.0000      Y:     0.0000      Z:    -1.1412     Total:     1.1412

  Dipole Moment: [D]
     X:     0.0000      Y:     0.0000      Z:    -2.9006     Total:     2.9006


*** tstop() called on n412-039.vsc4.prov at Tue Jan 26 18:38:54 2021
Module time:
	user time   =      25.51 seconds =       0.43 minutes
	system time =       1.04 seconds =       0.02 minutes
	total time  =          2 seconds =       0.03 minutes
Total time:
	user time   =      25.51 seconds =       0.43 minutes
	system time =       1.04 seconds =       0.02 minutes
	total time  =          2 seconds =       0.03 minutes

*** tstart() called on n412-039.vsc4.prov
*** at Tue Jan 26 18:38:54 2021


	Wfn Parameters:
	--------------------
	Wavefunction         = CCSD_T
	Number of irreps     = 4
	Number of MOs        = 64
	Number of active MOs = 62
	AO-Basis             = NONE
	Semicanonical        = false
	Reference            = RHF
	Print Level          = 1

	IRREP	# MOs	# FZDC	# DOCC	# SOCC	# VIRT	# FZVR
	-----	-----	------	------	------	------	------
	 A1	   29	    2	    3	    0	    24	    0
	 A2	   6	    0	    0	    0	    6	    0
	 B1	   17	    0	    2	    0	    15	    0
	 B2	   12	    0	    1	    0	    11	    0
	Transforming integrals...
	IWL integrals will be deleted.
	(OO|OO)...
	Presorting SO-basis two-electron integrals.
	Sorting File: SO Ints (nn|nn) nbuckets = 1
	Constructing frozen core operators
	Starting first half-transformation.
	Sorting half-transformed integrals.
	First half integral transformation complete.
	Starting second half-transformation.
	Two-electron integral transformation complete.
	(OO|OV)...
	Starting second half-transformation.
	Two-electron integral transformation complete.
	(OO|VV)...
	Starting second half-transformation.
	Two-electron integral transformation complete.
	(OV|OO)...
	Starting first half-transformation.
	Sorting half-transformed integrals.
	First half integral transformation complete.
	Starting second half-transformation.
	Two-electron integral transformation complete.
	(OV|OV)...
	Starting second half-transformation.
	Two-electron integral transformation complete.
	(OV|VV)...
	Starting second half-transformation.
	Two-electron integral transformation complete.
	(VV|OO)...
	Starting first half-transformation.
	Sorting half-transformed integrals.
	First half integral transformation complete.
	Starting second half-transformation.
	Two-electron integral transformation complete.
	(VV|OV)...
	Starting second half-transformation.
	Two-electron integral transformation complete.
	(VV|VV)...
	Starting second half-transformation.
	Two-electron integral transformation complete.
	Frozen core energy     =   -104.90654656394000

	Size of irrep 0 of <ab|cd> integrals:      0.918 (MW) /      7.342 (MB)
	Size of irrep 1 of <ab|cd> integrals:      0.382 (MW) /      3.055 (MB)
	Size of irrep 2 of <ab|cd> integrals:      0.726 (MW) /      5.807 (MB)
	Size of irrep 3 of <ab|cd> integrals:      0.501 (MW) /      4.010 (MB)
	Total:                                     2.527 (MW) /     20.215 (MB)

	Size of irrep 0 of <ia|bc> integrals:      0.108 (MW) /      0.866 (MB)
	Size of irrep 1 of <ia|bc> integrals:      0.034 (MW) /      0.272 (MB)
	Size of irrep 2 of <ia|bc> integrals:      0.084 (MW) /      0.675 (MB)
	Size of irrep 3 of <ia|bc> integrals:      0.049 (MW) /      0.391 (MB)
	Total:                                     0.275 (MW) /      2.204 (MB)

	Size of irrep 0 of tijab amplitudes:       0.013 (MW) /      0.107 (MB)
	Size of irrep 1 of tijab amplitudes:       0.002 (MW) /      0.020 (MB)
	Size of irrep 2 of tijab amplitudes:       0.010 (MW) /      0.082 (MB)
	Size of irrep 3 of tijab amplitudes:       0.004 (MW) /      0.034 (MB)
	Total:                                     0.030 (MW) /      0.243 (MB)

	Nuclear Rep. energy          =     31.18605698342760
	SCF energy                   =   -113.88464605941098
	One-electron energy          =    -71.11697331325037
	Two-electron energy          =     30.95281683435178
	Reference energy             =   -113.88464605941098

*** tstop() called on n412-039.vsc4.prov at Tue Jan 26 18:38:56 2021
Module time:
	user time   =       0.28 seconds =       0.00 minutes
	system time =       0.26 seconds =       0.00 minutes
	total time  =          2 seconds =       0.03 minutes
Total time:
	user time   =      25.79 seconds =       0.43 minutes
	system time =       1.30 seconds =       0.02 minutes
	total time  =          4 seconds =       0.07 minutes
            **************************
            *                        *
            *        CCENERGY        *
            *                        *
            **************************

    Nuclear Rep. energy (wfn)     =   31.186056983427605
    SCF energy          (wfn)     = -113.884646059410983
    Reference energy    (file100) = -113.884646059410983

    Input parameters:
    -----------------
    Wave function   =     CCSD_T
    Reference wfn   =     RHF
    Brueckner       =     No
    Memory (Mbytes) =     250000.0
    Maxiter         =     50
    R_Convergence   =     1.0e-07
    E_Convergence   =     1.0e-06
    Restart         =     Yes
    DIIS            =     Yes
    AO Basis        =     NONE
    ABCD            =     NEW
    Cache Level     =     2
    Cache Type      =     LOW
    Print Level     =     1
    Num. of threads =     48
    # Amps to Print =     10
    Print MP2 Amps? =     No
    Analyze T2 Amps =     No
    Print Pair Ener =     No
    Local CC        =     No
    SCS-MP2         =     False
    SCSN-MP2        =     False
    SCS-CCSD        =     False

MP2 correlation energy -0.3338828335319046
                Solving CC Amplitude Equations
                ------------------------------
  Iter             Energy              RMS        T1Diag      D1Diag    New D1Diag    D2Diag
  ----     ---------------------    ---------   ----------  ----------  ----------   --------
     0        -0.333882833531905    0.000e+00    0.000000    0.000000    0.000000    0.160483
     1        -0.334582538251170    6.368e-02    0.013622    0.034058    0.034058    0.160353
     2        -0.344784120778310    2.479e-02    0.013133    0.034192    0.034192    0.172936
     3        -0.348132132946328    1.149e-02    0.016046    0.042695    0.042695    0.180597
     4        -0.347957060266577    2.984e-03    0.016505    0.044683    0.044683    0.182544
     5        -0.348020965234437    1.272e-03    0.016718    0.045648    0.045648    0.183553
     6        -0.348047719325955    3.969e-04    0.016778    0.045997    0.045997    0.183772
     7        -0.348038046045273    1.433e-04    0.016782    0.046089    0.046089    0.183776
     8        -0.348036585355692    4.352e-05    0.016783    0.046113    0.046113    0.183774
     9        -0.348037825257926    1.725e-05    0.016784    0.046125    0.046125    0.183777
    10        -0.348036873657704    6.041e-06    0.016784    0.046127    0.046127    0.183775
    11        -0.348036955065178    1.808e-06    0.016784    0.046127    0.046127    0.183775
    12        -0.348036860147476    7.431e-07    0.016784    0.046127    0.046127    0.183775
    13        -0.348036841329267    2.733e-07    0.016784    0.046127    0.046127    0.183775
    14        -0.348036845814095    9.194e-08    0.016784    0.046127    0.046127    0.183775

    Iterations converged.


    Largest TIA Amplitudes:
              5  46         0.0330104908
              5  45         0.0218644301
              4  32        -0.0195094758
              5  52         0.0149041361
              3  36         0.0108687883
              5  50         0.0101623788
              4  36        -0.0094963675
              3  32         0.0089776438
              5  49         0.0088751596
              5  53         0.0084039779

    Largest TIjAb Amplitudes:
      5   5  46  46        -0.0623872261
      5   5  45  46        -0.0501683267
      5   5  46  45        -0.0501683267
      5   5  45  45        -0.0442402381
      5   5  46  47        -0.0261735451
      5   5  47  46        -0.0261735451
      5   5  46  48        -0.0256562229
      5   5  48  46        -0.0256562229
      5   5  45  47        -0.0256461116
      5   5  47  45        -0.0256461116

    SCF energy       (wfn)                    = -113.884646059410983
    Reference energy (file100)                = -113.884646059410983

    Opposite-spin MP2 correlation energy      =   -0.250612120243209
    Same-spin MP2 correlation energy          =   -0.083270713288696
    Singles MP2 correlation energy            =   -0.000000000000000
    MP2 correlation energy                    =   -0.333882833531905
      * MP2 total energy                      = -114.218528892942885

    Opposite-spin CCSD correlation energy     =   -0.275698638925013
    Same-spin CCSD correlation energy         =   -0.072338206889082
    Singles CCSD correlation energy           =    0.000000000000000
    CCSD correlation energy                   =   -0.348036845814095
      * CCSD total energy                     = -114.232682905225076

            **************************
            *                        *
            *        CCTRIPLES       *
            *                        *
            **************************


    Wave function   =    CCSD_T
    Reference wfn   =      RHF

    Nuclear Rep. energy (wfn)                =   31.186056983427605
    SCF energy          (wfn)                = -113.884646059410983
    Reference energy    (file100)            = -113.884646059410983
    CCSD energy         (file100)            =   -0.348036845814095
    Total CCSD energy   (file100)            = -114.232682905225076

    Number of ijk index combinations:               56
    Memory available in words        :     31250000000
    ~Words needed per explicit thread:           55296
    Number of threads for explicit ijk threading:   48

    (T) energy                                =   -0.012091192040211
      * CCSD(T) total energy                  = -114.244774097265292


    Psi4 stopped on: Tuesday, 26 January 2021 06:39PM
    Psi4 wall time for execution: 0:00:08.20

*** Psi4 exiting successfully. Buy a developer a beer!
