
    -----------------------------------------------------------------------
          Psi4: An Open-Source Ab Initio Electronic Structure Package
                               Psi4 1.4a3.dev88 

                         Git: Rev {master} 262e345 


    D. G. A. Smith, L. A. Burns, A. C. Simmonett, R. M. Parrish,
    M. C. Schieber, R. Galvelis, P. Kraus, H. Kruse, R. Di Remigio,
    A. Alenaizan, A. M. James, S. Lehtola, J. P. Misiewicz, M. Scheurer,
    R. A. Shaw, J. B. Schriber, Y. Xie, Z. L. Glick, D. A. Sirianni,
    J. S. O'Brien, J. M. Waldrop, A. Kumar, E. G. Hohenstein,
    B. P. Pritchard, B. R. Brooks, H. F. Schaefer III, A. Yu. Sokolov,
    K. Patkowski, A. E. DePrince III, U. Bozkaya, R. A. King,
    F. A. Evangelista, J. M. Turney, T. D. Crawford, C. D. Sherrill,
    J. Chem. Phys. 152(18) 184108 (2020). https://doi.org/10.1063/5.0006002

                            Additional Code Authors
    E. T. Seidl, C. L. Janssen, E. F. Valeev, M. L. Leininger,
    J. F. Gonthier, R. M. Richard, H. R. McAlexander, M. Saitow, X. Wang,
    P. Verma, and M. H. Lechner

             Previous Authors, Complete List of Code Contributors,
                       and Citations for Specific Modules
    https://github.com/psi4/psi4/blob/master/codemeta.json
    https://github.com/psi4/psi4/graphs/contributors
    http://psicode.org/psi4manual/master/introduction.html#citing-psifour

    -----------------------------------------------------------------------


    Psi4 started on: Wednesday, 20 January 2021 09:48PM

    Process ID: 143253
    Host:       n412-041.vsc4.prov
    PSIDATADIR: /home/fs71337/gallo4/psi4/psi4/build/stage/share/psi4
    Memory:     500.0 MiB
    Threads:    48
    
  ==> Input File <==

--------------------------------------------------------------------------
# Any line starting with the # character is a comment line
memory 250000 mb
molecule molecule{
1 3
N          0.0000000000        0.0000000000        0.0000000000
}

set {
  reference uhf
  basis aug-cc-pv(5+d)z
  scf_type OUT_OF_CORE
  freeze_core true
}

energy('ccsd(t)')
--------------------------------------------------------------------------

  Memory set to 232.831 GiB by Python driver.

Scratch directory: /binfl/lv71337/airmler/temp/

*** tstart() called on n412-041.vsc4.prov
*** at Wed Jan 20 21:48:49 2021

   => Loading Basis Set <=

    Name: AUG-CC-PV(5+D)Z
    Role: ORBITAL
    Keyword: BASIS
    atoms 1 entry N          line   491 file /home/fs71337/gallo4/psi4/psi4/build/stage/share/psi4/basis/aug-cc-pv_5pd_z.gbs 


         ---------------------------------------------------------
                                   SCF
               by Justin Turney, Rob Parrish, Andy Simmonett
                          and Daniel G. A. Smith
                              UHF Reference
                       48 Threads, 238418 MiB Core
         ---------------------------------------------------------

  ==> Geometry <==

    Molecular point group: d2h
    Geometry (in Angstrom), charge = 1, multiplicity = 3:

       Center              X                  Y                   Z               Mass       
    ------------   -----------------  -----------------  -----------------  -----------------
         N            0.000000000000     0.000000000000     0.000000000000    14.003074004430

  Running in d2h symmetry.

  Rotational constants: A = ************  B = ************  C = ************ [cm^-1]
  Rotational constants: A = ************  B = ************  C = ************ [MHz]
  Nuclear repulsion =    0.000000000000000

  Charge       = 1
  Multiplicity = 3
  Electrons    = 6
  Nalpha       = 4
  Nbeta        = 2

  ==> Algorithm <==

  SCF Algorithm Type is OUT_OF_CORE.
  DIIS enabled.
  MOM disabled.
  Fractional occupation disabled.
  Guess Type is CORE.
  Energy threshold   = 1.00e-08
  Density threshold  = 1.00e-08
  Integral threshold = 1.00e-12

  ==> Primary Basis <==

  Basis Set: AUG-CC-PV(5+D)Z
    Blend: AUG-CC-PV(5+D)Z
    Number of shells: 27
    Number of basis function: 127
    Number of Cartesian functions: 182
    Spherical Harmonics?: true
    Max angular momentum: 5

  ==> Integral Setup <==

  ==> DiskJK: Disk-Based J/K Matrices <==

    J tasked:                  Yes
    K tasked:                  Yes
    wK tasked:                  No
    Memory [MiB]:           178813
    Schwarz Cutoff:          1E-12

  Minimum eigenvalue in the overlap matrix is 1.6155142444E-03.
  Reciprocal condition number of the overlap matrix is 4.1026188565E-04.
    Using symmetric orthogonalization.

  ==> Pre-Iterations <==

  SCF Guess: Core (One-Electron) Hamiltonian.

   -------------------------------------------------------
    Irrep   Nso     Nmo     Nalpha   Nbeta   Ndocc  Nsocc
   -------------------------------------------------------
     Ag        26      26       1       1       1       0
     B1g       11      11       0       0       0       0
     B2g       11      11       0       0       0       0
     B3g       11      11       0       0       0       0
     Au         8       8       0       0       0       0
     B1u       20      20       1       0       0       1
     B2u       20      20       1       0       0       1
     B3u       20      20       1       1       1       0
   -------------------------------------------------------
    Total     127     127       4       2       2       2
   -------------------------------------------------------

  ==> Iterations <==

                        Total Energy        Delta E     RMS |[F,P]|

    Occupation by irrep:
             Ag   B1g   B2g   B3g    Au   B1u   B2u   B3u 
    DOCC [     2,    0,    0,    0,    0,    0,    0,    0 ]
    SOCC [     0,    0,    0,    0,    0,    1,    1,    0 ]

   @UHF iter   1:   -48.75540056863979   -4.87554e+01   1.04838e-01 DIIS
   @UHF iter   2:   -53.09507085081776   -4.33967e+00   2.61969e-02 DIIS
   @UHF iter   3:   -53.88111648279617   -7.86046e-01   3.20008e-03 DIIS
   @UHF iter   4:   -53.89329240634440   -1.21759e-02   6.26386e-04 DIIS
   @UHF iter   5:   -53.89384305270593   -5.50646e-04   9.84611e-05 DIIS
   @UHF iter   6:   -53.89386018090025   -1.71282e-05   1.82524e-05 DIIS
   @UHF iter   7:   -53.89386081304878   -6.32149e-07   1.79567e-06 DIIS
   @UHF iter   8:   -53.89386081738415   -4.33538e-09   1.28778e-07 DIIS
   @UHF iter   9:   -53.89386081740737   -2.32205e-11   1.29355e-08 DIIS
   @UHF iter  10:   -53.89386081740766   -2.84217e-13   1.17877e-09 DIIS
  Energy and wave function converged.


  ==> Post-Iterations <==

   @Spin Contamination Metric:   6.977617190E-03
   @S^2 Expected:                2.000000000E+00
   @S^2 Observed:                2.006977617E+00
   @S   Expected:                1.000000000E+00
   @S   Observed:                1.000000000E+00

    Orbital Energies [Eh]
    ---------------------

    Alpha Occupied:                                                       

       1Ag   -16.320283     2Ag    -1.622867     1B2u   -1.116577  
       1B1u   -1.116577  

    Alpha Virtual:                                                        

       1B3u   -0.460433     3Ag    -0.132778     2B2u   -0.090843  
       2B1u   -0.090843     2B3u   -0.084544     4Ag     0.054869  
       1B2g    0.055484     1B1g    0.055484     5Ag     0.057898  
       1B3g    0.057898     3B1u    0.131781     3B2u    0.131781  
       3B3u    0.154198     6Ag     0.253086     4B3u    0.492881  
       4B2u    0.493974     4B1u    0.493974     5B3u    0.497286  
       1Au     0.497286     5B2u    0.502896     5B1u    0.502896  
       7Ag     0.581618     2B3g    0.581618     2B2g    0.588785  
       2B1g    0.588785     8Ag     0.592037     6B1u    0.924966  
       6B2u    0.924966     6B3u    0.964738     9Ag     1.755265  
      10Ag     1.779843     3B2g    1.781172     3B1g    1.781172  
       3B3g    1.785178    11Ag     1.785178     4B2g    1.791891  
       4B1g    1.791891     4B3g    1.801322    12Ag     1.801322  
       7B3u    1.885592     7B2u    1.887693     7B1u    1.887693  
       8B3u    1.894016     2Au     1.894016     8B2u    1.904577  
       8B1u    1.904577     5B3g    2.009370    13Ag     2.009370  
       5B2g    2.023419     5B1g    2.023419    14Ag     2.029706  
       9B1u    3.315779     9B2u    3.315779     9B3u    3.337132  
      10B3u    4.282758    10B2u    4.284221    10B1u    4.284221  
       3Au     4.288618    11B3u    4.288618    11B1u    4.295971  
      11B2u    4.295971     4Au     4.306315    12B3u    4.306315  
      12B1u    4.319700    12B2u    4.319700    15Ag     5.150002  
       6B2g    5.152624     6B1g    5.152624     6B3g    5.160499  
      16Ag     5.160499     7B2g    5.173645     7B1g    5.173645  
      17Ag     5.192072     7B3g    5.192072    13B3u    5.262235  
      13B2u    5.265785    13B1u    5.265785     5Au     5.276440  
      14B3u    5.276440    14B2u    5.294218    14B1u    5.294218  
      18Ag     5.946024     8B1g    5.947307     8B2g    5.947307  
       8B3g    5.951847    19Ag     5.951847    20Ag     7.389805  
      15B3u   11.570628    15B1u   11.577889    15B2u   11.577889  
      16B3u   11.806549    16B1u   11.809204    16B2u   11.809204  
       6Au    11.817179    17B3u   11.817179    17B2u   11.830505  
      17B1u   11.830505     7Au    11.849229    18B3u   11.849229  
      18B1u   11.873421    18B2u   11.873421    19B3u   13.876235  
      19B2u   13.881700    19B1u   13.881700     8Au    13.898138  
      20B3u   13.898138    20B2u   13.925688    20B1u   13.925688  
      21Ag    14.009667     9B2g   14.013707     9B1g   14.013707  
      22Ag    14.025842     9B3g   14.025842    10B2g   14.046113  
      10B1g   14.046113    23Ag    14.074588    10B3g   14.074588  
      24Ag    16.820737    11B1g   16.828799    11B2g   16.828799  
      11B3g   16.853303    25Ag    16.853303    26Ag    45.569774  

    Beta Occupied:                                                        

       1Ag   -16.246289     2Ag    -1.305848  

    Beta Virtual:                                                         

       1B3u   -0.404663     1B2u   -0.327727     1B1u   -0.327727  
       3Ag    -0.122960     2B3u   -0.080953     2B2u   -0.072491  
       2B1u   -0.072491     4Ag     0.058105     1B2g    0.060294  
       1B1g    0.060294     5Ag     0.067178     1B3g    0.067178  
       3B3u    0.164809     3B1u    0.187089     3B2u    0.187089  
       6Ag     0.282977     4B3u    0.495142     4B2u    0.496592  
       4B1u    0.496592     5B3u    0.500964     1Au     0.500964  
       5B2u    0.508394     5B1u    0.508394     7Ag     0.616006  
       2B2g    0.623519     2B1g    0.623519     8Ag     0.647955  
       2B3g    0.647955     6B3u    0.985857     6B2u    1.031360  
       6B1u    1.031360     9Ag     1.784767     3B2g    1.786470  
       3B1g    1.786470     3B3g    1.791602    10Ag     1.791602  
       4B2g    1.800238     4B1g    1.800238    11Ag     1.812514  
       4B3g    1.812514    12Ag     1.824915     7B3u    1.903082  
       7B2u    1.907721     7B1u    1.907721     8B3u    1.921732  
       2Au     1.921732     8B2u    1.945527     8B1u    1.945527  
      13Ag     2.085330     5B2g    2.100389     5B1g    2.100389  
       5B3g    2.149157    14Ag     2.149157     9B3u    3.366383  
       9B1u    3.437296     9B2u    3.437296    10B3u    4.290615  
      10B1u    4.292465    10B2u    4.292465     3Au     4.298024  
      11B3u    4.298024    11B2u    4.307330    11B1u    4.307330  
       4Au     4.320444    12B3u    4.320444    12B1u    4.337454  
      12B2u    4.337454    15Ag     5.170442     6B2g    5.174497  
       6B1g    5.174497     6B3g    5.186710    16Ag     5.186710  
       7B2g    5.207232     7B1g    5.207232    17Ag     5.236357  
       7B3g    5.236357    13B3u    5.302736    13B2u    5.311476  
      13B1u    5.311476     5Au     5.337896    14B3u    5.337896  
      14B2u    5.382736    14B1u    5.382736    18Ag     6.008180  
       8B1g    6.028906     8B2g    6.028906     8B3g    6.093776  
      19Ag     6.093776    20Ag     7.463727    15B3u   11.595636  
      15B1u   11.666214    15B2u   11.666214    16B3u   11.828696  
      16B1u   11.832315    16B2u   11.832315     6Au    11.843191  
      17B3u   11.843191    17B2u   11.861380    17B1u   11.861380  
       7Au    11.886978    18B3u   11.886978    18B1u   11.920122  
      18B2u   11.920122    19B3u   13.921345    19B2u   13.932108  
      19B1u   13.932108     8Au    13.964579    20B3u   13.964579  
      20B2u   14.019408    20B1u   14.019408    21Ag    14.044897  
       9B2g   14.051238     9B1g   14.051238     9B3g   14.070309  
      22Ag    14.070309    10B2g   14.102258    10B1g   14.102258  
      23Ag    14.147348    10B3g   14.147348    24Ag    16.863104  
      11B1g   16.883540    11B2g   16.883540    11B3g   16.946093  
      25Ag    16.946093    26Ag    45.599516  

    Final Occupation by Irrep:
             Ag   B1g   B2g   B3g    Au   B1u   B2u   B3u 
    DOCC [     2,    0,    0,    0,    0,    0,    0,    0 ]
    SOCC [     0,    0,    0,    0,    0,    1,    1,    0 ]

  @UHF Final Energy:   -53.89386081740766

   => Energetics <=

    Nuclear Repulsion Energy =              0.0000000000000000
    One-Electron Energy =                 -70.0592812593898628
    Two-Electron Energy =                  16.1654204419822030
    Total Energy =                        -53.8938608174076563

  UHF NO Occupations:
  HONO-2 :    2 Ag 1.9965091
  HONO-1 :    1B1u 1.0000000
  HONO-0 :    1B2u 1.0000000
  LUNO+0 :    3 Ag 0.0034909
  LUNO+1 :    4 Ag 0.0000040
  LUNO+2 :    5 Ag 0.0000000
  LUNO+3 :    6 Ag 0.0000000


Computation Completed


Properties will be evaluated at   0.000000,   0.000000,   0.000000 [a0]

Properties computed using the SCF density matrix

  Nuclear Dipole Moment: [e a0]
     X:     0.0000      Y:     0.0000      Z:     0.0000

  Electronic Dipole Moment: [e a0]
     X:     0.0000      Y:     0.0000      Z:     0.0000

  Dipole Moment: [e a0]
     X:     0.0000      Y:     0.0000      Z:     0.0000     Total:     0.0000

  Dipole Moment: [D]
     X:     0.0000      Y:     0.0000      Z:     0.0000     Total:     0.0000


*** tstop() called on n412-041.vsc4.prov at Wed Jan 20 21:49:06 2021
Module time:
	user time   =      27.02 seconds =       0.45 minutes
	system time =       1.24 seconds =       0.02 minutes
	total time  =         17 seconds =       0.28 minutes
Total time:
	user time   =      27.02 seconds =       0.45 minutes
	system time =       1.24 seconds =       0.02 minutes
	total time  =         17 seconds =       0.28 minutes

*** tstart() called on n412-041.vsc4.prov
*** at Wed Jan 20 21:49:06 2021


	Wfn Parameters:
	--------------------
	Wavefunction         = CCSD_T
	Number of irreps     = 8
	Number of MOs        = 127
	Number of active MOs = 126
	AO-Basis             = NONE
	Semicanonical        = false
	Reference            = UHF
	Print Level          = 1

	IRREP	# MOs	# FZDC	# DOCC	# SOCC	# VIRT	# FZVR
	-----	-----	------	------	------	------	------
	 Ag	   26	    1	    1	    0	    24	    0
	 B1g	   11	    0	    0	    0	    11	    0
	 B2g	   11	    0	    0	    0	    11	    0
	 B3g	   11	    0	    0	    0	    11	    0
	 Au	   8	    0	    0	    0	    8	    0
	 B1u	   20	    0	    0	    1	    19	    0
	 B2u	   20	    0	    0	    1	    19	    0
	 B3u	   20	    0	    0	    0	    20	    0
	Transforming integrals...
	IWL integrals will be deleted.
	(OO|OO)...
	Presorting SO-basis two-electron integrals.
	Sorting File: SO Ints (nn|nn) nbuckets = 1
	Constructing frozen core operators
	Starting AA/AB first half-transformation.
	Sorting AA/AB half-transformed integrals.
	Starting BB first half-transformation.
	Sorting BB half-transformed integrals.
	First half integral transformation complete.
	Starting AA second half-transformation.
	Starting AB second half-transformation.
	Starting BB second half-transformation.
	Two-electron integral transformation complete.
	(OO|OV)...
	Starting AA second half-transformation.
	Starting AB second half-transformation.
	Starting BB second half-transformation.
	Two-electron integral transformation complete.
	(OO|VV)...
	Starting AA second half-transformation.
	Starting AB second half-transformation.
	Starting BB second half-transformation.
	Two-electron integral transformation complete.
	(OV|OO)...
	Starting AA/AB first half-transformation.
	Sorting AA/AB half-transformed integrals.
	Starting BB first half-transformation.
	Sorting BB half-transformed integrals.
	First half integral transformation complete.
	Starting AA second half-transformation.
	Starting AB second half-transformation.
	Starting BB second half-transformation.
	Two-electron integral transformation complete.
	(OV|OV)...
	Starting AA second half-transformation.
	Starting AB second half-transformation.
	Starting BB second half-transformation.
	Two-electron integral transformation complete.
	(OV|VV)...
	Starting AA second half-transformation.
	Starting AB second half-transformation.
	Starting BB second half-transformation.
	Two-electron integral transformation complete.
	(VV|OO)...
	Starting AA/AB first half-transformation.
	Sorting AA/AB half-transformed integrals.
	Starting BB first half-transformation.
	Sorting BB half-transformed integrals.
	First half integral transformation complete.
	Starting AA second half-transformation.
	Starting AB second half-transformation.
	Starting BB second half-transformation.
	Two-electron integral transformation complete.
	(VV|OV)...
	Starting AA second half-transformation.
	Starting AB second half-transformation.
	Starting BB second half-transformation.
	Two-electron integral transformation complete.
	(VV|VV)...
	Starting AA second half-transformation.
	Starting AB second half-transformation.
	Starting BB second half-transformation.
	Two-electron integral transformation complete.
	Frozen core energy     =    -44.73400465566670

	Size of irrep 0 of <AB|CD> integrals:      1.002 (MW) /      8.016 (MB)
	Size of irrep 1 of <AB|CD> integrals:      0.841 (MW) /      6.727 (MB)
	Size of irrep 2 of <AB|CD> integrals:      0.841 (MW) /      6.727 (MB)
	Size of irrep 3 of <AB|CD> integrals:      0.821 (MW) /      6.567 (MB)
	Size of irrep 4 of <AB|CD> integrals:      0.689 (MW) /      5.511 (MB)
	Size of irrep 5 of <AB|CD> integrals:      0.947 (MW) /      7.574 (MB)
	Size of irrep 6 of <AB|CD> integrals:      0.947 (MW) /      7.574 (MB)
	Size of irrep 7 of <AB|CD> integrals:      0.972 (MW) /      7.778 (MB)
	Total:                                     7.059 (MW) /     56.473 (MB)

	Size of irrep 0 of <ab|cd> integrals:      1.080 (MW) /      8.636 (MB)
	Size of irrep 1 of <ab|cd> integrals:      0.893 (MW) /      7.144 (MB)
	Size of irrep 2 of <ab|cd> integrals:      0.893 (MW) /      7.144 (MB)
	Size of irrep 3 of <ab|cd> integrals:      0.893 (MW) /      7.144 (MB)
	Size of irrep 4 of <ab|cd> integrals:      0.726 (MW) /      5.807 (MB)
	Size of irrep 5 of <ab|cd> integrals:      1.016 (MW) /      8.129 (MB)
	Size of irrep 6 of <ab|cd> integrals:      1.016 (MW) /      8.129 (MB)
	Size of irrep 7 of <ab|cd> integrals:      1.016 (MW) /      8.129 (MB)
	Total:                                     7.533 (MW) /     60.262 (MB)

	Size of irrep 0 of <Ab|Cd> integrals:      4.679 (MW) /     37.429 (MB)
	Size of irrep 1 of <Ab|Cd> integrals:      3.467 (MW) /     27.736 (MB)
	Size of irrep 2 of <Ab|Cd> integrals:      3.467 (MW) /     27.736 (MB)
	Size of irrep 3 of <Ab|Cd> integrals:      3.422 (MW) /     27.380 (MB)
	Size of irrep 4 of <Ab|Cd> integrals:      2.829 (MW) /     22.633 (MB)
	Size of irrep 5 of <Ab|Cd> integrals:      3.924 (MW) /     31.395 (MB)
	Size of irrep 6 of <Ab|Cd> integrals:      3.924 (MW) /     31.395 (MB)
	Size of irrep 7 of <Ab|Cd> integrals:      3.976 (MW) /     31.808 (MB)
	Total:                                    29.689 (MW) /    237.512 (MB)

	Size of irrep 0 of <IA|BC> integrals:      0.132 (MW) /      1.054 (MB)
	Size of irrep 1 of <IA|BC> integrals:      0.072 (MW) /      0.572 (MB)
	Size of irrep 2 of <IA|BC> integrals:      0.072 (MW) /      0.572 (MB)
	Size of irrep 3 of <IA|BC> integrals:      0.089 (MW) /      0.710 (MB)
	Size of irrep 4 of <IA|BC> integrals:      0.050 (MW) /      0.398 (MB)
	Size of irrep 5 of <IA|BC> integrals:      0.105 (MW) /      0.841 (MB)
	Size of irrep 6 of <IA|BC> integrals:      0.105 (MW) /      0.841 (MB)
	Size of irrep 7 of <IA|BC> integrals:      0.083 (MW) /      0.663 (MB)
	Total:                                     0.706 (MW) /      5.651 (MB)

	Size of irrep 0 of <ia|bc> integrals:      0.053 (MW) /      0.423 (MB)
	Size of irrep 1 of <ia|bc> integrals:      0.021 (MW) /      0.166 (MB)
	Size of irrep 2 of <ia|bc> integrals:      0.021 (MW) /      0.166 (MB)
	Size of irrep 3 of <ia|bc> integrals:      0.021 (MW) /      0.166 (MB)
	Size of irrep 4 of <ia|bc> integrals:      0.014 (MW) /      0.109 (MB)
	Size of irrep 5 of <ia|bc> integrals:      0.040 (MW) /      0.323 (MB)
	Size of irrep 6 of <ia|bc> integrals:      0.040 (MW) /      0.323 (MB)
	Size of irrep 7 of <ia|bc> integrals:      0.040 (MW) /      0.323 (MB)
	Total:                                     0.250 (MW) /      1.999 (MB)

	Size of irrep 0 of <Ia|Bc> integrals:      0.138 (MW) /      1.107 (MB)
	Size of irrep 1 of <Ia|Bc> integrals:      0.073 (MW) /      0.581 (MB)
	Size of irrep 2 of <Ia|Bc> integrals:      0.073 (MW) /      0.581 (MB)
	Size of irrep 3 of <Ia|Bc> integrals:      0.094 (MW) /      0.755 (MB)
	Size of irrep 4 of <Ia|Bc> integrals:      0.050 (MW) /      0.404 (MB)
	Size of irrep 5 of <Ia|Bc> integrals:      0.109 (MW) /      0.872 (MB)
	Size of irrep 6 of <Ia|Bc> integrals:      0.109 (MW) /      0.872 (MB)
	Size of irrep 7 of <Ia|Bc> integrals:      0.084 (MW) /      0.670 (MB)
	Total:                                     0.730 (MW) /      5.841 (MB)

	Size of irrep 0 of <iA|bC> integrals:      0.052 (MW) /      0.415 (MB)
	Size of irrep 1 of <iA|bC> integrals:      0.020 (MW) /      0.164 (MB)
	Size of irrep 2 of <iA|bC> integrals:      0.020 (MW) /      0.164 (MB)
	Size of irrep 3 of <iA|bC> integrals:      0.020 (MW) /      0.163 (MB)
	Size of irrep 4 of <iA|bC> integrals:      0.013 (MW) /      0.108 (MB)
	Size of irrep 5 of <iA|bC> integrals:      0.038 (MW) /      0.301 (MB)
	Size of irrep 6 of <iA|bC> integrals:      0.038 (MW) /      0.301 (MB)
	Size of irrep 7 of <iA|bC> integrals:      0.040 (MW) /      0.319 (MB)
	Total:                                     0.242 (MW) /      1.935 (MB)

	Size of irrep 0 of tIjAb amplitudes:       0.002 (MW) /      0.017 (MB)
	Size of irrep 1 of tIjAb amplitudes:       0.000 (MW) /      0.000 (MB)
	Size of irrep 2 of tIjAb amplitudes:       0.000 (MW) /      0.000 (MB)
	Size of irrep 3 of tIjAb amplitudes:       0.000 (MW) /      0.000 (MB)
	Size of irrep 4 of tIjAb amplitudes:       0.000 (MW) /      0.000 (MB)
	Size of irrep 5 of tIjAb amplitudes:       0.002 (MW) /      0.016 (MB)
	Size of irrep 6 of tIjAb amplitudes:       0.002 (MW) /      0.016 (MB)
	Size of irrep 7 of tIjAb amplitudes:       0.000 (MW) /      0.000 (MB)
	Total:                                     0.006 (MW) /      0.049 (MB)

	Nuclear Rep. energy          =      0.00000000000000
	SCF energy                   =    -53.89386081740766
	One-electron energy          =    -13.15784353526018
	Two-electron (AA) energy     =      1.83896478576497
	Two-electron (BB) energy     =      0.00000000000000
	Two-electron (AB) energy     =      2.15902258775429
	Two-electron energy          =      3.99798737351925
	Reference energy             =    -53.89386081740763

*** tstop() called on n412-041.vsc4.prov at Wed Jan 20 21:49:24 2021
Module time:
	user time   =       3.07 seconds =       0.05 minutes
	system time =       3.51 seconds =       0.06 minutes
	total time  =         18 seconds =       0.30 minutes
Total time:
	user time   =      30.09 seconds =       0.50 minutes
	system time =       4.75 seconds =       0.08 minutes
	total time  =         35 seconds =       0.58 minutes
            **************************
            *                        *
            *        CCENERGY        *
            *                        *
            **************************

    Nuclear Rep. energy (wfn)     =    0.000000000000000
    SCF energy          (wfn)     =  -53.893860817407656
    Reference energy    (file100) =  -53.893860817407628

    Input parameters:
    -----------------
    Wave function   =     CCSD_T
    Reference wfn   =     UHF
    Brueckner       =     No
    Memory (Mbytes) =     250000.0
    Maxiter         =     50
    R_Convergence   =     1.0e-07
    E_Convergence   =     1.0e-06
    Restart         =     Yes
    DIIS            =     Yes
    AO Basis        =     NONE
    ABCD            =     NEW
    Cache Level     =     2
    Cache Type      =     LRU
    Print Level     =     1
    Num. of threads =     48
    # Amps to Print =     10
    Print MP2 Amps? =     No
    Analyze T2 Amps =     No
    Print Pair Ener =     No
    Local CC        =     No
    SCS-MP2         =     False
    SCSN-MP2        =     False
    SCS-CCSD        =     False

MP2 correlation energy -0.0803487034517778
                Solving CC Amplitude Equations
                ------------------------------
  Iter             Energy              RMS        T1Diag      D1Diag    New D1Diag    D2Diag
  ----     ---------------------    ---------   ----------  ----------  ----------   --------
     0        -0.080348703451778    0.000e+00    0.000000    0.000000    0.000000    0.000000
     1        -0.092266591678344    3.893e-02    0.005199    0.000000    0.000000    0.000000
     2        -0.098861387595028    1.768e-02    0.008953    0.000000    0.000000    0.000000
     3        -0.099123982820812    3.476e-03    0.009612    0.000000    0.000000    0.000000
     4        -0.099172799655830    5.923e-04    0.009593    0.000000    0.000000    0.000000
     5        -0.099162866678301    1.158e-04    0.009566    0.000000    0.000000    0.000000
     6        -0.099164606692157    2.272e-05    0.009561    0.000000    0.000000    0.000000
     7        -0.099164798566547    4.701e-06    0.009561    0.000000    0.000000    0.000000
     8        -0.099164674590920    1.282e-06    0.009561    0.000000    0.000000    0.000000
     9        -0.099164692503134    3.480e-07    0.009561    0.000000    0.000000    0.000000
    10        -0.099164690870543    8.188e-08    0.009561    0.000000    0.000000    0.000000

    Iterations converged.


    Largest TIA Amplitudes:
              0   5         0.0090383614
              0  11        -0.0067941073
              0   1        -0.0046593379
              0  15        -0.0019811071
              1  66        -0.0018249440
              2  85        -0.0018249440
              1  65        -0.0016527821
              2  84        -0.0016527821
              0   0         0.0013477701
              1  70         0.0009576157

    Largest Tia Amplitudes:
              0   3         0.0098185970
              0   0        -0.0078525638
              0   9        -0.0057124601
              0  10        -0.0011136675
              0  17         0.0008463917
              0   4         0.0008327823
              0  15         0.0004245879
              0  12        -0.0002112425
              0   6         0.0001461180
              0   1        -0.0001112264

    Largest TIJAB Amplitudes:
      2   1  88  69        -0.0142355170
      2   1  47   4        -0.0123132165
      2   1  50  10        -0.0119595999
      2   1  85  69        -0.0111200726
      2   1  88  66        -0.0111200726
      1   0 103  36        -0.0108148711
      2   0 103  25        -0.0108148711
      2   1  47  10         0.0104313377
      2   1  50   4         0.0104313377
      2   1  85  66        -0.0095574357

    Largest TIjAb Amplitudes:
      0   0 103 105        -0.1169636164
      0   0 103 107        -0.0293060776
      1   0  36 105         0.0278718724
      2   0  25 105         0.0278718724
      1   0   4  65         0.0265679193
      1   0  47  85         0.0265679193
      2   0   4  85        -0.0265679193
      2   0  47  65         0.0265679193
      0   0 105 105        -0.0252751231
      1   0  39 105        -0.0238853003

    SCF energy       (wfn)                    =  -53.893860817407656
    Reference energy (file100)                =  -53.893860817407628

    Opposite-spin MP2 correlation energy      =   -0.066031641435780
    Same-spin MP2 correlation energy          =   -0.014317062015998
    Singles MP2 correlation energy            =   -0.000000000000000
    MP2 correlation energy                    =   -0.080348703451778
      * MP2 total energy                      =  -53.974209520859404

    Opposite-spin CCSD correlation energy     =   -0.083588006414804
    Same-spin CCSD correlation energy         =   -0.015576684455739
    Singles CCSD correlation energy           =   -0.000000000000000
    CCSD correlation energy                   =   -0.099164690870543
      * CCSD total energy                     =  -53.993025508278173

            **************************
            *                        *
            *        CCTRIPLES       *
            *                        *
            **************************


    Wave function   =    CCSD_T
    Reference wfn   =      UHF

    Nuclear Rep. energy (wfn)                =    0.000000000000000
    SCF energy          (wfn)                =  -53.893860817407656
    Reference energy    (file100)            =  -53.893860817407628
    CCSD energy         (file100)            =   -0.099164690870543
    Total CCSD energy   (file100)            =  -53.993025508278173

    Number of ijk index combinations:
    Spin Case AAA:                                   1
    Spin Case BBB:                                   0
    Spin Case AAB:                                   3
    Spin Case ABB:                                   0
    AAA (T) energy                             =   -0.000041797315407
    BBB (T) energy                             =    0.000000000000000
    AAB (T) energy                             =   -0.001875533846986
    ABB (T) energy                             =    0.000000000000000
    (T) energy                                   =   -0.001917331162393
      * CCSD(T) total energy                     =  -53.994942839440561


    Psi4 stopped on: Wednesday, 20 January 2021 09:49PM
    Psi4 wall time for execution: 0:00:46.01

*** Psi4 exiting successfully. Buy a developer a beer!
