
    -----------------------------------------------------------------------
          Psi4: An Open-Source Ab Initio Electronic Structure Package
                               Psi4 1.2a1.dev939 

                         Git: Rev {HEAD} fa1ec19 


    R. M. Parrish, L. A. Burns, D. G. A. Smith, A. C. Simmonett,
    A. E. DePrince III, E. G. Hohenstein, U. Bozkaya, A. Yu. Sokolov,
    R. Di Remigio, R. M. Richard, J. F. Gonthier, A. M. James,
    H. R. McAlexander, A. Kumar, M. Saitow, X. Wang, B. P. Pritchard,
    P. Verma, H. F. Schaefer III, K. Patkowski, R. A. King, E. F. Valeev,
    F. A. Evangelista, J. M. Turney, T. D. Crawford, and C. D. Sherrill,
    J. Chem. Theory Comput. 13(7) pp 3185--3197 (2017).
    (doi: 10.1021/acs.jctc.7b00174)

    -----------------------------------------------------------------------


    Psi4 started on: Sunday, 28 April 2019 04:00PM

    Process ID:  31604
    PSIDATADIR: /home/grueneis/src/psi4/objdir/stage/usr/local/psi4/share/psi4
    Memory:     500.0 MiB
    Threads:    1
    
  ==> Input File <==

--------------------------------------------------------------------------
# Any line starting with the # character is a comment line

memory 32000 mb

molecule molecule {
-1 1
O          0.0000000000        0.0000000000        0.0573315255
H          0.0000000000        0.0000000000       -0.9100442572
}

set {
  reference rhf
  basis aug-cc-pv(Q+d)z
  scf_type OUT_OF_CORE
  freeze_core true
}

energy('ccsd')
--------------------------------------------------------------------------

  Memory set to  29.802 GiB by Python driver.

*** tstart() called on cqc01
*** at Sun Apr 28 16:00:38 2019

   => Loading Basis Set <=

    Name: AUG-CC-PV(Q+D)Z
    Role: ORBITAL
    Keyword: BASIS
    atoms 1 entry O          line   439 file /home/grueneis/src/psi4/objdir/stage/usr/local/psi4/share/psi4/basis/aug-cc-pv_qpd_z.gbs 
    atoms 2 entry H          line    56 file /home/grueneis/src/psi4/objdir/stage/usr/local/psi4/share/psi4/basis/aug-cc-pv_qpd_z.gbs 


         ---------------------------------------------------------
                                   SCF
            by Justin Turney, Rob Parrish, Andy Simmonett
                             and Daniel Smith
                              RHF Reference
                        1 Threads,  30517 MiB Core
         ---------------------------------------------------------

  ==> Geometry <==

    Molecular point group: c2v
    Full point group: C_inf_v

    Geometry (in Angstrom), charge = -1, multiplicity = 1:

       Center              X                  Y                   Z               Mass       
    ------------   -----------------  -----------------  -----------------  -----------------
           O          0.000000000000     0.000000000000     0.057340496249    15.994914619560
           H          0.000000000000     0.000000000000    -0.910035286451     1.007825032070

  Running in c2v symmetry.

  Rotational constants: A = ************  B =     19.00019  C =     19.00019 [cm^-1]
  Rotational constants: A = ************  B = 569611.32008  C = 569611.32008 [MHz]
  Nuclear repulsion =    4.376187355966565

  Charge       = -1
  Multiplicity = 1
  Electrons    = 10
  Nalpha       = 5
  Nbeta        = 5

  ==> Algorithm <==

  SCF Algorithm Type is OUT_OF_CORE.
  DIIS enabled.
  MOM disabled.
  Fractional occupation disabled.
  Guess Type is SAD.
  Energy threshold   = 1.00e-08
  Density threshold  = 1.00e-08
  Integral threshold = 0.00e+00

  ==> Primary Basis <==

  Basis Set: AUG-CC-PV(Q+D)Z
    Blend: AUG-CC-PV(Q+D)Z
    Number of shells: 34
    Number of basis function: 126
    Number of Cartesian functions: 160
    Spherical Harmonics?: true
    Max angular momentum: 4

  ==> Pre-Iterations <==

   -------------------------------------------------------
    Irrep   Nso     Nmo     Nalpha   Nbeta   Ndocc  Nsocc
   -------------------------------------------------------
     A1        50      50       0       0       0       0
     A2        16      16       0       0       0       0
     B1        30      30       0       0       0       0
     B2        30      30       0       0       0       0
   -------------------------------------------------------
    Total     126     126       5       5       5       0
   -------------------------------------------------------

  ==> Integral Setup <==

  ==> DiskJK: Disk-Based J/K Matrices <==

    J tasked:                  Yes
    K tasked:                  Yes
    wK tasked:                  No
    Memory (MB):             22888
    Schwarz Cutoff:          1E-12

  Minimum eigenvalue in the overlap matrix is 1.3548973796E-04.
  Using Symmetric Orthogonalization.

  SCF Guess: Superposition of Atomic Densities via on-the-fly atomic UHF.

  ==> Iterations <==

                        Total Energy        Delta E     RMS |[F,P]|

   @RHF iter   0:   -79.88390890452024   -7.98839e+01   1.90692e-02 
    Occupation by irrep:
             A1    A2    B1    B2 
    DOCC [     3,    0,    1,    1 ]

   @RHF iter   1:   -74.02652717063962    5.85738e+00   2.07926e-02 
   @RHF iter   2:   -74.24527027502499   -2.18743e-01   2.86433e-02 DIIS
   @RHF iter   3:   -75.24952672474927   -1.00426e+00   9.25947e-03 DIIS
   @RHF iter   4:   -75.40592950382531   -1.56403e-01   1.95690e-03 DIIS
   @RHF iter   5:   -75.41641755643417   -1.04881e-02   2.40323e-04 DIIS
   @RHF iter   6:   -75.41676183517762   -3.44279e-04   6.40295e-05 DIIS
   @RHF iter   7:   -75.41680141901142   -3.95838e-05   2.93684e-05 DIIS
   @RHF iter   8:   -75.41680772017789   -6.30117e-06   9.43902e-06 DIIS
   @RHF iter   9:   -75.41680810433836   -3.84160e-07   3.03689e-06 DIIS
   @RHF iter  10:   -75.41680813832255   -3.39842e-08   1.49015e-06 DIIS
   @RHF iter  11:   -75.41680814637743   -8.05488e-09   2.84898e-07 DIIS
   @RHF iter  12:   -75.41680814673744   -3.60004e-10   1.72805e-08 DIIS
   @RHF iter  13:   -75.41680814673899   -1.54898e-12   2.10989e-09 DIIS

  ==> Post-Iterations <==

    Orbital Energies (a.u.)
    -----------------------

    Doubly Occupied:                                                      

       1A1   -20.185371     2A1    -0.901540     3A1    -0.251134  
       1B2    -0.109242     1B1    -0.109242  

    Virtual:                                                              

       4A1     0.170555     5A1     0.289809     2B2     0.328100  
       2B1     0.328100     6A1     0.356545     3B1     0.412413  
       3B2     0.412413     7A1     0.428807     8A1     0.591510  
       9A1     0.746788     1A2     0.746788    10A1     0.765693  
       4B2     0.801991     4B1     0.801991    11A1     0.894845  
       5B2     0.894901     5B1     0.894901    12A1     0.929983  
       2A2     0.929983    13A1     0.978768     6B2     1.058258  
       6B1     1.058258    14A1     1.074893     7B2     1.467566  
       7B1     1.467566    15A1     1.554083     8B1     1.652721  
       8B2     1.652721    16A1     1.800987     3A2     1.840535  
      17A1     1.840535     9B2     1.862714     9B1     1.862714  
       4A2     1.905120    18A1     1.905120    19A1     1.929928  
      20A1     1.949737    10B2     1.991738    10B1     1.991738  
      11B2     2.025927    11B1     2.025927     5A2     2.161512  
      21A1     2.161512    22A1     2.207107    12B2     2.442466  
      12B1     2.442466    23A1     2.763902    13B1     3.010616  
      13B2     3.010616    14B1     3.316729    14B2     3.316729  
       6A2     3.322866    24A1     3.322866    25A1     3.381759  
      26A1     3.963843    27A1     4.047073     7A2     4.047073  
      15B1     4.162228    15B2     4.162228    16B1     4.303062  
      16B2     4.303062    28A1     4.382999    17B1     4.494072  
      17B2     4.494072     8A2     4.527122    29A1     4.527122  
      18B1     4.553967    18B2     4.553967    30A1     4.619321  
       9A2     4.703053    31A1     4.703053    32A1     4.762092  
      19B1     5.157533    19B2     5.157533    10A2     5.207910  
      33A1     5.207910    34A1     5.538164    20B1     5.971502  
      20B2     5.971502    35A1     6.246263    21B1     7.065082  
      21B2     7.065082    22B1     8.111451    22B2     8.111451  
      36A1     8.139264    11A2     8.139264    37A1     8.219976  
      38A1     8.921587    12A2     8.921587    39A1     8.932032  
      23B1     9.075592    23B2     9.075592    40A1    10.158646  
      24B1    10.227961    24B2    10.227961    41A1    11.036375  
      13A2    11.057209    42A1    11.057209    25B2    11.189021  
      25B1    11.189021    26B1    11.321750    26B2    11.321750  
      43A1    11.607596    14A2    11.607596    27B1    11.952431  
      27B2    11.952431    44A1    12.013963    28B2    12.311715  
      28B1    12.311715    45A1    12.451703    15A2    12.451703  
      46A1    12.646696    29B1    13.169198    29B2    13.169198  
      16A2    13.270504    47A1    13.270504    48A1    14.779420  
      30B1    14.961067    30B2    14.961067    49A1    17.253928  
      50A1    43.430826  

    Final Occupation by Irrep:
             A1    A2    B1    B2 
    DOCC [     3,    0,    1,    1 ]

  Energy converged.

  @RHF Final Energy:   -75.41680814673899

   => Energetics <=

    Nuclear Repulsion Energy =              4.3761873559665654
    One-Electron Energy =                -116.4729333297287468
    Two-Electron Energy =                  36.6799378270231955
    PCM Polarization Energy =               0.0000000000000000
    Total Energy =                        -75.4168081467389868

    Alert: EFP and PCM quantities not currently incorporated into SCF psivars.

Properties will be evaluated at   0.000000,   0.000000,   0.000000 Bohr

Properties computed using the SCF density matrix

  Nuclear Dipole Moment: (a.u.)
     X:     0.0000      Y:     0.0000      Z:    -0.8529

  Electronic Dipole Moment: (a.u.)
     X:     0.0000      Y:     0.0000      Z:     0.3615

  Dipole Moment: (a.u.)
     X:     0.0000      Y:     0.0000      Z:    -0.4913     Total:     0.4913

  Dipole Moment: (Debye)
     X:     0.0000      Y:     0.0000      Z:    -1.2488     Total:     1.2488


*** tstop() called on cqc01 at Sun Apr 28 16:00:45 2019
Module time:
	user time   =       4.22 seconds =       0.07 minutes
	system time =       2.85 seconds =       0.05 minutes
	total time  =          7 seconds =       0.12 minutes
Total time:
	user time   =       4.22 seconds =       0.07 minutes
	system time =       2.85 seconds =       0.05 minutes
	total time  =          7 seconds =       0.12 minutes

*** tstart() called on cqc01
*** at Sun Apr 28 16:00:45 2019


	Wfn Parameters:
	--------------------
	Wavefunction         = CCSD
	Number of irreps     = 4
	Number of MOs        = 126
	Number of active MOs = 125
	AO-Basis             = NONE
	Semicanonical        = false
	Reference            = RHF
	Print Level          = 1

	IRREP	# MOs	# FZDC	# DOCC	# SOCC	# VIRT	# FZVR
	-----	-----	------	------	------	------	------
	 A1	   50	    1	    2	    0	    47	    0
	 A2	   16	    0	    0	    0	    16	    0
	 B1	   30	    0	    1	    0	    29	    0
	 B2	   30	    0	    1	    0	    29	    0
	Transforming integrals...
	IWL integrals will be deleted.
	(OO|OO)...
	Presorting SO-basis two-electron integrals.
	Sorting File: SO Ints (nn|nn) nbuckets = 1
	Transforming the one-electron integrals and constructing Fock matrices
	Starting first half-transformation.
	Sorting half-transformed integrals.
	First half integral transformation complete.
	Starting second half-transformation.
	Two-electron integral transformation complete.
	(OO|OV)...
	Starting second half-transformation.
	Two-electron integral transformation complete.
	(OO|VV)...
	Starting second half-transformation.
	Two-electron integral transformation complete.
	(OV|OO)...
	Starting first half-transformation.
	Sorting half-transformed integrals.
	First half integral transformation complete.
	Starting second half-transformation.
	Two-electron integral transformation complete.
	(OV|OV)...
	Starting second half-transformation.
	Two-electron integral transformation complete.
	(OV|VV)...
	Starting second half-transformation.
	Two-electron integral transformation complete.
	(VV|OO)...
	Starting first half-transformation.
	Sorting half-transformed integrals.
	First half integral transformation complete.
	Starting second half-transformation.
	Two-electron integral transformation complete.
	(VV|OV)...
	Starting second half-transformation.
	Two-electron integral transformation complete.
	(VV|VV)...
	Starting second half-transformation.
	Two-electron integral transformation complete.
	Frozen core energy     =    -60.20090121095444

	Size of irrep 0 of <ab|cd> integrals:     17.198 (MW) /    137.581 (MB)
	Size of irrep 1 of <ab|cd> integrals:     10.151 (MW) /     81.205 (MB)
	Size of irrep 2 of <ab|cd> integrals:     13.352 (MW) /    106.814 (MB)
	Size of irrep 3 of <ab|cd> integrals:     13.352 (MW) /    106.814 (MB)
	Total:                                    54.052 (MW) /    432.413 (MB)

	Size of irrep 0 of <ia|bc> integrals:      0.630 (MW) /      5.043 (MB)
	Size of irrep 1 of <ia|bc> integrals:      0.287 (MW) /      2.294 (MB)
	Size of irrep 2 of <ia|bc> integrals:      0.442 (MW) /      3.537 (MB)
	Size of irrep 3 of <ia|bc> integrals:      0.442 (MW) /      3.537 (MB)
	Total:                                     1.801 (MW) /     14.411 (MB)

	Size of irrep 0 of tijab amplitudes:       0.025 (MW) /      0.199 (MB)
	Size of irrep 1 of tijab amplitudes:       0.006 (MW) /      0.051 (MB)
	Size of irrep 2 of tijab amplitudes:       0.015 (MW) /      0.117 (MB)
	Size of irrep 3 of tijab amplitudes:       0.015 (MW) /      0.117 (MB)
	Total:                                     0.060 (MW) /      0.484 (MB)

	Nuclear Rep. energy          =      4.37618735596657
	SCF energy                   =    -75.41680814673899
	One-electron energy          =    -36.44187241392759
	Two-electron energy          =     16.84977812217641
	Reference energy             =    -75.41680814673906

*** tstop() called on cqc01 at Sun Apr 28 16:01:10 2019
Module time:
	user time   =       2.96 seconds =       0.05 minutes
	system time =       1.79 seconds =       0.03 minutes
	total time  =         25 seconds =       0.42 minutes
Total time:
	user time   =       7.18 seconds =       0.12 minutes
	system time =       4.64 seconds =       0.08 minutes
	total time  =         32 seconds =       0.53 minutes

*** tstart() called on cqc01
*** at Sun Apr 28 16:01:10 2019

            **************************
            *                        *
            *        CCENERGY        *
            *                        *
            **************************

    Nuclear Rep. energy (wfn)     =    4.376187355966565
    SCF energy          (wfn)     =  -75.416808146738987
    Reference energy    (file100) =  -75.416808146739058

    Input parameters:
    -----------------
    Wave function   =     CCSD
    Reference wfn   =     RHF
    Brueckner       =     No
    Memory (Mbytes) =     32000.0
    Maxiter         =     50
    R_Convergence   =     1.0e-07
    E_Convergence   =     1.0e-06
    Restart         =     Yes
    DIIS            =     Yes
    AO Basis        =     NONE
    ABCD            =     NEW
    Cache Level     =     2
    Cache Type      =     LOW
    Print Level     =     1
    Num. of threads =     1
    # Amps to Print =     10
    Print MP2 Amps? =     No
    Analyze T2 Amps =     No
    Print Pair Ener =     No
    Local CC        =     No
    SCS-MP2         =     False
    SCSN-MP2        =     False
    SCS-CCSD        =     False

MP2 correlation energy -0.3081549845042113
                Solving CC Amplitude Equations
                ------------------------------
  Iter             Energy              RMS        T1Diag      D1Diag    New D1Diag    D2Diag
  ----     ---------------------    ---------   ----------  ----------  ----------   --------
     0        -0.308154984504198    0.000e+00    0.000000    0.000000    0.000000    0.137525
     1        -0.299447597182579    2.855e-01    0.039751    0.074540    0.074540    0.141301
     2        -0.306526547711527    9.391e-02    0.020504    0.038121    0.038121    0.145631
     3        -0.301507706905176    2.921e-02    0.023151    0.044036    0.044036    0.140161
     4        -0.300074873808036    5.053e-03    0.022278    0.042404    0.042404    0.138776
     5        -0.300112478519294    1.948e-03    0.021864    0.041658    0.041658    0.138552
     6        -0.300167467431022    8.217e-04    0.021717    0.041397    0.041397    0.138483
     7        -0.300140443413369    2.781e-04    0.021641    0.041254    0.041254    0.138420
     8        -0.300133856931401    1.002e-04    0.021607    0.041187    0.041187    0.138399
     9        -0.300139573733495    3.546e-05    0.021603    0.041179    0.041179    0.138402
    10        -0.300139714016245    1.221e-05    0.021601    0.041173    0.041173    0.138402
    11        -0.300139228359197    5.410e-06    0.021600    0.041171    0.041171    0.138401
    12        -0.300139189647988    2.300e-06    0.021599    0.041169    0.041169    0.138401
    13        -0.300139273281493    5.069e-07    0.021599    0.041169    0.041169    0.138401
    14        -0.300139267446384    2.250e-07    0.021599    0.041169    0.041169    0.138401
    15        -0.300139272875885    6.249e-08    0.021599    0.041169    0.041169    0.138401
    15        -0.300139272875885    6.249e-08    0.021599    0.041169    0.041169    0.138401

    Iterations converged.


    CCSD corr. energy   =   -0.300139272875885
    PPL corr. energy    =    0.068485815361126
    OS PPL corr. energy =    0.056733153351304
    SS PPL corr. energy =    0.011752662009822
    Largest TIA Amplitudes:
              3  92        -0.0323198819
              2  63        -0.0323197486
              3  93        -0.0229500829
              2  64        -0.0229499747
              1   3        -0.0066730712
              2  74         0.0066589748
              3 103         0.0066589697
              1   1        -0.0066209100
              3  94        -0.0057725103
              2  65        -0.0057724842

    Largest TIjAb Amplitudes:
      1   1  10  10        -0.0379011161
      3   3  96  96        -0.0357732002
      2   2  67  67        -0.0357731984
      1   1   4   4        -0.0331903239
      1   1   4  10        -0.0307241404
      1   1  10   4        -0.0307241404
      3   3  92  92        -0.0306668363
      2   2  63  63        -0.0306668140
      3   3  92  96        -0.0261766198
      3   3  96  92        -0.0261766198

    SCF energy       (wfn)                    =  -75.416808146738987
    Reference energy (file100)                =  -75.416808146739058

    Opposite-spin MP2 correlation energy      =   -0.231509273518931
    Same-spin MP2 correlation energy          =   -0.076645710985267
    MP2 correlation energy                    =   -0.308154984504211
      * MP2 total energy                      =  -75.724963131243271

    Opposite-spin CCSD correlation energy     =   -0.235857522042185
    Same-spin CCSD correlation energy         =   -0.064281747164923
    CCSD correlation energy                   =   -0.300139272875885
      * CCSD total energy                     =  -75.716947419614939


*** tstop() called on cqc01 at Sun Apr 28 16:01:23 2019
Module time:
	user time   =       3.68 seconds =       0.06 minutes
	system time =       7.69 seconds =       0.13 minutes
	total time  =         13 seconds =       0.22 minutes
Total time:
	user time   =      10.86 seconds =       0.18 minutes
	system time =      12.33 seconds =       0.21 minutes
	total time  =         45 seconds =       0.75 minutes

*** Psi4 exiting successfully. Buy a developer a beer!
