
    -----------------------------------------------------------------------
          Psi4: An Open-Source Ab Initio Electronic Structure Package
                               Psi4 1.2a1.dev939 

                         Git: Rev {HEAD} fa1ec19 


    R. M. Parrish, L. A. Burns, D. G. A. Smith, A. C. Simmonett,
    A. E. DePrince III, E. G. Hohenstein, U. Bozkaya, A. Yu. Sokolov,
    R. Di Remigio, R. M. Richard, J. F. Gonthier, A. M. James,
    H. R. McAlexander, A. Kumar, M. Saitow, X. Wang, B. P. Pritchard,
    P. Verma, H. F. Schaefer III, K. Patkowski, R. A. King, E. F. Valeev,
    F. A. Evangelista, J. M. Turney, T. D. Crawford, and C. D. Sherrill,
    J. Chem. Theory Comput. 13(7) pp 3185--3197 (2017).
    (doi: 10.1021/acs.jctc.7b00174)

    -----------------------------------------------------------------------


    Psi4 started on: Friday, 03 May 2019 02:54AM

    Process ID:   2502
    PSIDATADIR: /home/grueneis/src/psi4/objdir/stage/usr/local/psi4/share/psi4
    Memory:     500.0 MiB
    Threads:    1
    
  ==> Input File <==

--------------------------------------------------------------------------
# Any line starting with the # character is a comment line

memory 32000 mb

molecule molecule {
-1 1
O          0.0000000000        0.0000000000        0.0573315255
H          0.0000000000        0.0000000000       -0.9100442572
}

set {
  reference rhf


  basis aug-cc-pv(5+d)z
  scf_type OUT_OF_CORE
  freeze_core true
}

energy('ccsd')
--------------------------------------------------------------------------

  Memory set to  29.802 GiB by Python driver.

*** tstart() called on cqc03
*** at Fri May  3 02:54:22 2019

   => Loading Basis Set <=

    Name: AUG-CC-PV(5+D)Z
    Role: ORBITAL
    Keyword: BASIS
    atoms 1 entry O          line   377 file /home/grueneis/src/psi4/objdir/stage/usr/local/psi4/share/psi4/basis/aug-cc-pv_5pd_z.gbs 
    atoms 2 entry H          line    56 file /home/grueneis/src/psi4/objdir/stage/usr/local/psi4/share/psi4/basis/aug-cc-pv_5pd_z.gbs 


         ---------------------------------------------------------
                                   SCF
            by Justin Turney, Rob Parrish, Andy Simmonett
                             and Daniel Smith
                              RHF Reference
                        1 Threads,  30517 MiB Core
         ---------------------------------------------------------

  ==> Geometry <==

    Molecular point group: c2v
    Full point group: C_inf_v

    Geometry (in Angstrom), charge = -1, multiplicity = 1:

       Center              X                  Y                   Z               Mass       
    ------------   -----------------  -----------------  -----------------  -----------------
           O          0.000000000000     0.000000000000     0.057340496249    15.994914619560
           H          0.000000000000     0.000000000000    -0.910035286451     1.007825032070

  Running in c2v symmetry.

  Rotational constants: A = ************  B =     19.00019  C =     19.00019 [cm^-1]
  Rotational constants: A = ************  B = 569611.32008  C = 569611.32008 [MHz]
  Nuclear repulsion =    4.376187355966565

  Charge       = -1
  Multiplicity = 1
  Electrons    = 10
  Nalpha       = 5
  Nbeta        = 5

  ==> Algorithm <==

  SCF Algorithm Type is OUT_OF_CORE.
  DIIS enabled.
  MOM disabled.
  Fractional occupation disabled.
  Guess Type is SAD.
  Energy threshold   = 1.00e-08
  Density threshold  = 1.00e-08
  Integral threshold = 0.00e+00

  ==> Primary Basis <==

  Basis Set: AUG-CC-PV(5+D)Z
    Blend: AUG-CC-PV(5+D)Z
    Number of shells: 47
    Number of basis function: 207
    Number of Cartesian functions: 287
    Spherical Harmonics?: true
    Max angular momentum: 5

  ==> Pre-Iterations <==

   -------------------------------------------------------
    Irrep   Nso     Nmo     Nalpha   Nbeta   Ndocc  Nsocc
   -------------------------------------------------------
     A1        77      77       0       0       0       0
     A2        30      30       0       0       0       0
     B1        50      50       0       0       0       0
     B2        50      50       0       0       0       0
   -------------------------------------------------------
    Total     207     207       5       5       5       0
   -------------------------------------------------------

  ==> Integral Setup <==

  ==> DiskJK: Disk-Based J/K Matrices <==

    J tasked:                  Yes
    K tasked:                  Yes
    wK tasked:                  No
    Memory (MB):             22888
    Schwarz Cutoff:          1E-12

  Minimum eigenvalue in the overlap matrix is 1.8557529430E-05.
  Using Symmetric Orthogonalization.

  SCF Guess: Superposition of Atomic Densities via on-the-fly atomic UHF.

  ==> Iterations <==

                        Total Energy        Delta E     RMS |[F,P]|

   @RHF iter   0:   -79.91537931333056   -7.99154e+01   1.18040e-02 
    Occupation by irrep:
             A1    A2    B1    B2 
    DOCC [     3,    0,    1,    1 ]

   @RHF iter   1:   -74.03890023784670    5.87648e+00   1.27599e-02 
   @RHF iter   2:   -74.26172399542173   -2.22824e-01   1.76639e-02 DIIS
   @RHF iter   3:   -75.25049550315399   -9.88772e-01   5.73481e-03 DIIS
   @RHF iter   4:   -75.40633672442927   -1.55841e-01   1.23589e-03 DIIS
   @RHF iter   5:   -75.41744778299716   -1.11111e-02   1.60514e-04 DIIS
   @RHF iter   6:   -75.41792101984962   -4.73237e-04   4.79517e-05 DIIS
   @RHF iter   7:   -75.41799240518598   -7.13853e-05   1.81894e-05 DIIS
   @RHF iter   8:   -75.41799977645306   -7.37127e-06   6.58795e-06 DIIS
   @RHF iter   9:   -75.41800023089657   -4.54444e-07   2.63551e-06 DIIS
   @RHF iter  10:   -75.41800030236215   -7.14656e-08   1.23445e-06 DIIS
   @RHF iter  11:   -75.41800031817452   -1.58124e-08   1.27285e-07 DIIS
   @RHF iter  12:   -75.41800031839870   -2.24176e-10   1.24840e-08 DIIS
   @RHF iter  13:   -75.41800031840155   -2.85638e-12   1.57517e-09 DIIS

  ==> Post-Iterations <==

    Orbital Energies (a.u.)
    -----------------------

    Doubly Occupied:                                                      

       1A1   -20.185001     2A1    -0.901603     3A1    -0.251401  
       1B2    -0.109441     1B1    -0.109441  

    Virtual:                                                              

       4A1     0.158933     5A1     0.243876     2B1     0.281446  
       2B2     0.281446     6A1     0.322845     3B1     0.357491  
       3B2     0.357491     7A1     0.369163     8A1     0.503433  
       1A2     0.652092     9A1     0.652092    10A1     0.673060  
       4B1     0.704744     4B2     0.704744    11A1     0.712984  
       5B2     0.724418     5B1     0.724418    12A1     0.747758  
      13A1     0.750933     2A2     0.750933     6B2     0.806621  
       6B1     0.806621    14A1     0.934013     7B1     1.270211  
       7B2     1.270211     8B2     1.271122     8B1     1.271122  
      15A1     1.297656    16A1     1.360497     9B2     1.409438  
       9B1     1.409438    17A1     1.415303     3A2     1.451367  
      18A1     1.451367    10B2     1.505378    10B1     1.505378  
       4A2     1.512467    19A1     1.512467    20A1     1.518588  
      11B1     1.552127    11B2     1.552127     5A2     1.639175  
      21A1     1.639175    22A1     1.693694    12B2     1.826656  
      12B1     1.826656    23A1     2.023842    13B1     2.241590  
      13B2     2.241590    24A1     2.528788    25A1     2.615971  
       6A2     2.615971    14B1     2.637516    14B2     2.637516  
       7A2     2.924664    26A1     2.924664    27A1     2.946740  
      15B1     2.982823    15B2     2.982823    28A1     3.068870  
      16B1     3.215026    16B2     3.215026    29A1     3.268153  
       8A2     3.268153    17B1     3.272324    17B2     3.272324  
      18B1     3.275491    18B2     3.275491    30A1     3.283363  
      31A1     3.377907     9A2     3.377907    32A1     3.450172  
      33A1     3.453055    10A2     3.453055    34A1     3.598716  
      11A2     3.598716    19B1     3.642762    19B2     3.642762  
      20B1     3.649334    20B2     3.649334    35A1     3.795099  
      21B1     3.887362    21B2     3.887362    36A1     3.986125  
      37A1     4.177233    12A2     4.177233    38A1     4.636110  
      22B1     4.934774    22B2     4.934774    23B2     5.017812  
      23B1     5.017812    24B1     5.170515    24B2     5.170515  
      39A1     5.413088    40A1     5.781610    13A2     5.781610  
      41A1     5.989821    25B1     6.187886    25B2     6.187886  
      42A1     6.263095    14A2     6.263095    26B1     6.526215  
      26B2     6.526215    27B2     6.600952    27B1     6.600952  
      43A1     6.613936    44A1     6.861158    15A2     6.861158  
      28B1     7.085092    28B2     7.085092    45A1     7.279153  
      46A1     7.488724    47A1     7.522812    16A2     7.522812  
      29B1     7.560321    29B2     7.560321    48A1     7.580935  
      17A2     7.580935    30B1     7.582088    30B2     7.582088  
      31B1     7.657663    31B2     7.657663    32B1     8.020252  
      32B2     8.020252    49A1     8.137367    18A2     8.137367  
      50A1     8.197471    51A1     8.346380    19A2     8.346380  
      33B1     8.897085    33B2     8.897085    52A1     9.033084  
      53A1     9.226026    34B1     9.519949    34B2     9.519949  
      54A1     9.803891    20A2     9.803891    55A1    10.671903  
      35B1    10.883633    35B2    10.883633    56A1    13.194208  
      36B1    13.360028    36B2    13.360028    21A2    13.521567  
      57A1    13.521567    58A1    13.896638    22A2    13.896638  
      37B1    14.263944    37B2    14.263944    59A1    14.478106  
      60A1    14.499971    23A2    14.499971    38B1    14.589331  
      38B2    14.589331    39B1    14.847768    39B2    14.847768  
      61A1    15.044474    62A1    15.942722    63A1    16.033999  
      24A2    16.033999    40B1    16.381480    40B2    16.381480  
      41B1    16.675981    41B2    16.675981    64A1    16.796552  
      25A2    16.796552    42B1    17.224850    42B2    17.224850  
      43B2    17.293608    43B1    17.293608    65A1    17.300496  
      44B1    18.186513    44B2    18.186513    66A1    18.286631  
      26A2    18.286631    67A1    18.448779    45B1    18.584653  
      45B2    18.584653    68A1    19.001163    69A1    19.542805  
      27A2    19.542805    46B2    19.637036    46B1    19.637036  
      47B1    19.687896    47B2    19.687896    70A1    19.927248  
      71A1    20.017081    28A2    20.017081    72A1    20.411613  
      29A2    20.411613    48B1    20.919534    48B2    20.919534  
      73A1    21.474941    74A1    22.862786    30A2    22.862786  
      49B1    23.663320    49B2    23.663320    50B1    24.363471  
      50B2    24.363471    75A1    26.345451    76A1    26.653884  
      77A1    65.445651  

    Final Occupation by Irrep:
             A1    A2    B1    B2 
    DOCC [     3,    0,    1,    1 ]

  Energy converged.

  @RHF Final Energy:   -75.41800031840155

   => Energetics <=

    Nuclear Repulsion Energy =              4.3761873559665654
    One-Electron Energy =                -116.4746007291358723
    Two-Electron Energy =                  36.6804130547677474
    PCM Polarization Energy =               0.0000000000000000
    Total Energy =                        -75.4180003184015675

    Alert: EFP and PCM quantities not currently incorporated into SCF psivars.

Properties will be evaluated at   0.000000,   0.000000,   0.000000 Bohr

Properties computed using the SCF density matrix

  Nuclear Dipole Moment: (a.u.)
     X:     0.0000      Y:     0.0000      Z:    -0.8529

  Electronic Dipole Moment: (a.u.)
     X:     0.0000      Y:     0.0000      Z:     0.3631

  Dipole Moment: (a.u.)
     X:     0.0000      Y:     0.0000      Z:    -0.4897     Total:     0.4897

  Dipole Moment: (Debye)
     X:     0.0000      Y:     0.0000      Z:    -1.2448     Total:     1.2448


*** tstop() called on cqc03 at Fri May  3 02:54:49 2019
Module time:
	user time   =      24.71 seconds =       0.41 minutes
	system time =       1.96 seconds =       0.03 minutes
	total time  =         27 seconds =       0.45 minutes
Total time:
	user time   =      24.71 seconds =       0.41 minutes
	system time =       1.96 seconds =       0.03 minutes
	total time  =         27 seconds =       0.45 minutes

*** tstart() called on cqc03
*** at Fri May  3 02:54:49 2019


	Wfn Parameters:
	--------------------
	Wavefunction         = CCSD
	Number of irreps     = 4
	Number of MOs        = 207
	Number of active MOs = 206
	AO-Basis             = NONE
	Semicanonical        = false
	Reference            = RHF
	Print Level          = 1

	IRREP	# MOs	# FZDC	# DOCC	# SOCC	# VIRT	# FZVR
	-----	-----	------	------	------	------	------
	 A1	   77	    1	    2	    0	    74	    0
	 A2	   30	    0	    0	    0	    30	    0
	 B1	   50	    0	    1	    0	    49	    0
	 B2	   50	    0	    1	    0	    49	    0
	Transforming integrals...
	IWL integrals will be deleted.
	(OO|OO)...
	Presorting SO-basis two-electron integrals.
	Sorting File: SO Ints (nn|nn) nbuckets = 1
	Transforming the one-electron integrals and constructing Fock matrices
	Starting first half-transformation.
	Sorting half-transformed integrals.
	First half integral transformation complete.
	Starting second half-transformation.
	Two-electron integral transformation complete.
	(OO|OV)...
	Starting second half-transformation.
	Two-electron integral transformation complete.
	(OO|VV)...
	Starting second half-transformation.
	Two-electron integral transformation complete.
	(OV|OO)...
	Starting first half-transformation.
	Sorting half-transformed integrals.
	First half integral transformation complete.
	Starting second half-transformation.
	Two-electron integral transformation complete.
	(OV|OV)...
	Starting second half-transformation.
	Two-electron integral transformation complete.
	(OV|VV)...
	Starting second half-transformation.
	Two-electron integral transformation complete.
	(VV|OO)...
	Starting first half-transformation.
	Sorting half-transformed integrals.
	First half integral transformation complete.
	Starting second half-transformation.
	Two-electron integral transformation complete.
	(VV|OV)...
	Starting second half-transformation.
	Two-electron integral transformation complete.
	(VV|VV)...
	Starting second half-transformation.
	Two-electron integral transformation complete.
	Frozen core energy     =    -60.20103644289995

	Size of irrep 0 of <ab|cd> integrals:    124.948 (MW) /    999.581 (MB)
	Size of irrep 1 of <ab|cd> integrals:     85.415 (MW) /    683.317 (MB)
	Size of irrep 2 of <ab|cd> integrals:    103.877 (MW) /    831.015 (MB)
	Size of irrep 3 of <ab|cd> integrals:    103.877 (MW) /    831.015 (MB)
	Total:                                   418.116 (MW) /   3344.928 (MB)

	Size of irrep 0 of <ia|bc> integrals:      2.750 (MW) /     21.998 (MB)
	Size of irrep 1 of <ia|bc> integrals:      1.460 (MW) /     11.682 (MB)
	Size of irrep 2 of <ia|bc> integrals:      2.059 (MW) /     16.470 (MB)
	Size of irrep 3 of <ia|bc> integrals:      2.059 (MW) /     16.470 (MB)
	Total:                                     8.328 (MW) /     66.621 (MB)

	Size of irrep 0 of tijab amplitudes:       0.067 (MW) /      0.537 (MB)
	Size of irrep 1 of tijab amplitudes:       0.018 (MW) /      0.148 (MB)
	Size of irrep 2 of tijab amplitudes:       0.041 (MW) /      0.326 (MB)
	Size of irrep 3 of tijab amplitudes:       0.041 (MW) /      0.326 (MB)
	Total:                                     0.167 (MW) /      1.337 (MB)

	Nuclear Rep. energy          =      4.37618735596657
	SCF energy                   =    -75.41800031840155
	One-electron energy          =    -36.44253111719770
	Two-electron energy          =     16.84937988572954
	Reference energy             =    -75.41800031840154

*** tstop() called on cqc03 at Fri May  3 02:55:20 2019
Module time:
	user time   =      17.12 seconds =       0.29 minutes
	system time =      10.81 seconds =       0.18 minutes
	total time  =         31 seconds =       0.52 minutes
Total time:
	user time   =      41.83 seconds =       0.70 minutes
	system time =      12.77 seconds =       0.21 minutes
	total time  =         58 seconds =       0.97 minutes

*** tstart() called on cqc03
*** at Fri May  3 02:55:20 2019

            **************************
            *                        *
            *        CCENERGY        *
            *                        *
            **************************

    Nuclear Rep. energy (wfn)     =    4.376187355966565
    SCF energy          (wfn)     =  -75.418000318401553
    Reference energy    (file100) =  -75.418000318401539

    Input parameters:
    -----------------
    Wave function   =     CCSD
    Reference wfn   =     RHF
    Brueckner       =     No
    Memory (Mbytes) =     32000.0
    Maxiter         =     50
    R_Convergence   =     1.0e-07
    E_Convergence   =     1.0e-06
    Restart         =     Yes
    DIIS            =     Yes
    AO Basis        =     NONE
    ABCD            =     NEW
    Cache Level     =     2
    Cache Type      =     LOW
    Print Level     =     1
    Num. of threads =     1
    # Amps to Print =     10
    Print MP2 Amps? =     No
    Analyze T2 Amps =     No
    Print Pair Ener =     No
    Local CC        =     No
    SCS-MP2         =     False
    SCSN-MP2        =     False
    SCS-CCSD        =     False

MP2 correlation energy -0.3155045989372792
                Solving CC Amplitude Equations
                ------------------------------
  Iter             Energy              RMS        T1Diag      D1Diag    New D1Diag    D2Diag
  ----     ---------------------    ---------   ----------  ----------  ----------   --------
     0        -0.315504598937260    0.000e+00    0.000000    0.000000    0.000000    0.138088
     1        -0.302330263273879    2.899e-01    0.040268    0.075776    0.075776    0.140460
     2        -0.311461138031054    1.006e-01    0.020473    0.038053    0.038053    0.145646
     3        -0.307099893143110    3.480e-02    0.023594    0.045006    0.045006    0.140162
     4        -0.305354719368264    5.368e-03    0.022902    0.043721    0.043721    0.138581
     5        -0.305322155757145    2.174e-03    0.022512    0.043029    0.043029    0.138395
     6        -0.305391652429024    9.096e-04    0.022387    0.042818    0.042818    0.138337
     7        -0.305377354353549    2.924e-04    0.022340    0.042735    0.042735    0.138287
     8        -0.305363445213701    1.253e-04    0.022305    0.042669    0.042669    0.138257
     9        -0.305368147721666    4.380e-05    0.022296    0.042652    0.042652    0.138258
    10        -0.305369404163915    1.699e-05    0.022294    0.042647    0.042647    0.138259
    11        -0.305368545813322    8.075e-06    0.022292    0.042643    0.042643    0.138258
    12        -0.305368371107614    3.139e-06    0.022291    0.042641    0.042641    0.138258
    13        -0.305368565853186    1.125e-06    0.022291    0.042640    0.042640    0.138258
    14        -0.305368538672138    4.097e-07    0.022291    0.042640    0.042640    0.138258
    15        -0.305368548769169    2.024e-07    0.022291    0.042640    0.042640    0.138258
    16        -0.305368550898458    7.435e-08    0.022291    0.042640    0.042640    0.138258
    16        -0.305368550898458    7.435e-08    0.022291    0.042640    0.042640    0.138258

    Iterations converged.


    CCSD corr. energy   =   -0.305368550898458
    PPL corr. energy    =    0.071084600727764
    OS PPL corr. energy =    0.059155861856815
    SS PPL corr. energy =    0.011928738870950
    Largest TIA Amplitudes:
              3 153        -0.0344129937
              2 104        -0.0344127554
              3 154        -0.0197334503
              2 105        -0.0197333052
              3 155        -0.0111924310
              2 106        -0.0111923566
              1  18        -0.0067833835
              2 115         0.0064124958
              3 164         0.0064124838
              1   1         0.0060456950

    Largest TIjAb Amplitudes:
      1   1  10  10        -0.0365946904
      3   3 157 157        -0.0264594405
      2   2 108 108        -0.0264594334
      1   1   4  10         0.0256839304
      1   1  10   4         0.0256839304
      3   3 153 153        -0.0252502188
      2   2 104 104        -0.0252501752
      1   1   6   6        -0.0250538748
      1   1   6  10        -0.0236486878
      1   1  10   6        -0.0236486878

    SCF energy       (wfn)                    =  -75.418000318401553
    Reference energy (file100)                =  -75.418000318401539

    Opposite-spin MP2 correlation energy      =   -0.238167172071135
    Same-spin MP2 correlation energy          =   -0.077337426866125
    MP2 correlation energy                    =   -0.315504598937279
      * MP2 total energy                      =  -75.733504917338820

    Opposite-spin CCSD correlation energy     =   -0.240522712927817
    Same-spin CCSD correlation energy         =   -0.064845834334936
    CCSD correlation energy                   =   -0.305368550898458
      * CCSD total energy                     =  -75.723368869300003


*** tstop() called on cqc03 at Fri May  3 02:55:38 2019
Module time:
	user time   =       5.83 seconds =       0.10 minutes
	system time =      10.03 seconds =       0.17 minutes
	total time  =         18 seconds =       0.30 minutes
Total time:
	user time   =      47.66 seconds =       0.79 minutes
	system time =      22.80 seconds =       0.38 minutes
	total time  =         76 seconds =       1.27 minutes

*** Psi4 exiting successfully. Buy a developer a beer!
