
    -----------------------------------------------------------------------
          Psi4: An Open-Source Ab Initio Electronic Structure Package
                               Psi4 1.2a1.dev939 

                         Git: Rev {HEAD} fa1ec19 dirty


    R. M. Parrish, L. A. Burns, D. G. A. Smith, A. C. Simmonett,
    A. E. DePrince III, E. G. Hohenstein, U. Bozkaya, A. Yu. Sokolov,
    R. Di Remigio, R. M. Richard, J. F. Gonthier, A. M. James,
    H. R. McAlexander, A. Kumar, M. Saitow, X. Wang, B. P. Pritchard,
    P. Verma, H. F. Schaefer III, K. Patkowski, R. A. King, E. F. Valeev,
    F. A. Evangelista, J. M. Turney, T. D. Crawford, and C. D. Sherrill,
    J. Chem. Theory Comput. 13(7) pp 3185--3197 (2017).
    (doi: 10.1021/acs.jctc.7b00174)

    -----------------------------------------------------------------------


    Psi4 started on: Monday, 02 November 2020 10:57AM

    Process ID: 350635
    PSIDATADIR: /home/fs71337/airmler/src/psi4_uhf/build/stage/usr/local/psi4/share/psi4
    Memory:     500.0 MiB
    Threads:    48
    
  ==> Input File <==

--------------------------------------------------------------------------
# Any line starting with the # character is a comment line
memory 250000 mb
molecule molecule{
-1 1
O          0.0000000000        0.0000000000        0.0573315255
H          0.0000000000        0.0000000000       -0.9100442572
}

set {
  reference rhf
  basis aug-cc-pv(6+d)z
  scf_type OUT_OF_CORE
  freeze_core true
}

energy('ccsd')
--------------------------------------------------------------------------

  Memory set to 232.831 GiB by Python driver.

*** tstart() called on n412-071.vsc4.prov
*** at Mon Nov  2 10:57:59 2020

   => Loading Basis Set <=

    Name: AUG-CC-PV(6+D)Z
    Role: ORBITAL
    Keyword: BASIS
    atoms 1 entry O          line   459 file /home/fs71337/airmler/src/psi4_uhf/build/stage/usr/local/psi4/share/psi4/basis/aug-cc-pv_6pd_z.gbs 
    atoms 2 entry H          line    51 file /home/fs71337/airmler/src/psi4_uhf/build/stage/usr/local/psi4/share/psi4/basis/aug-cc-pv_6pd_z.gbs 


         ---------------------------------------------------------
                                   SCF
            by Justin Turney, Rob Parrish, Andy Simmonett
                             and Daniel Smith
                              RHF Reference
                       48 Threads, 238418 MiB Core
         ---------------------------------------------------------

  ==> Geometry <==

    Molecular point group: c2v
    Full point group: C_inf_v

    Geometry (in Angstrom), charge = -1, multiplicity = 1:

       Center              X                  Y                   Z               Mass       
    ------------   -----------------  -----------------  -----------------  -----------------
           O          0.000000000000     0.000000000000     0.057340496249    15.994914619560
           H          0.000000000000     0.000000000000    -0.910035286451     1.007825032070

  Running in c2v symmetry.

  Rotational constants: A = ************  B =     19.00019  C =     19.00019 [cm^-1]
  Rotational constants: A = ************  B = 569611.32008  C = 569611.32008 [MHz]
  Nuclear repulsion =    4.376187355966565

  Charge       = -1
  Multiplicity = 1
  Electrons    = 10
  Nalpha       = 5
  Nbeta        = 5

  ==> Algorithm <==

  SCF Algorithm Type is OUT_OF_CORE.
  DIIS enabled.
  MOM disabled.
  Fractional occupation disabled.
  Guess Type is SAD.
  Energy threshold   = 1.00e-08
  Density threshold  = 1.00e-08
  Integral threshold = 0.00e+00

  ==> Primary Basis <==

  Basis Set: AUG-CC-PV(6+D)Z
    Blend: AUG-CC-PV(6+D)Z
    Number of shells: 62
    Number of basis function: 316
    Number of Cartesian functions: 476
    Spherical Harmonics?: true
    Max angular momentum: 6

  ==> Pre-Iterations <==

   -------------------------------------------------------
    Irrep   Nso     Nmo     Nalpha   Nbeta   Ndocc  Nsocc
   -------------------------------------------------------
     A1       112     112       0       0       0       0
     A2        50      50       0       0       0       0
     B1        77      77       0       0       0       0
     B2        77      77       0       0       0       0
   -------------------------------------------------------
    Total     316     316       5       5       5       0
   -------------------------------------------------------

  ==> Integral Setup <==

  ==> DiskJK: Disk-Based J/K Matrices <==

    J tasked:                  Yes
    K tasked:                  Yes
    wK tasked:                  No
    Memory (MB):            178813
    Schwarz Cutoff:          1E-12

  Minimum eigenvalue in the overlap matrix is 3.4857931601E-06.
  Using Symmetric Orthogonalization.

  SCF Guess: Superposition of Atomic Densities via on-the-fly atomic UHF.

  ==> Iterations <==

                        Total Energy        Delta E     RMS |[F,P]|

   @RHF iter   0:   -79.92899830417326   -7.99290e+01   3.16713e-02 
    Occupation by irrep:
             A1    A2    B1    B2 
    DOCC [     3,    0,    1,    1 ]

   @RHF iter   1:   -74.02739774578157    5.90160e+00   2.83905e-02 
   @RHF iter   2:   -74.25942901227479   -2.32031e-01   3.62676e-02 DIIS
   @RHF iter   3:   -75.24932178989889   -9.89893e-01   9.94509e-03 DIIS
   @RHF iter   4:   -75.40617380687115   -1.56852e-01   2.81407e-03 DIIS
   @RHF iter   5:   -75.41752382429976   -1.13500e-02   5.84644e-04 DIIS
   @RHF iter   6:   -75.41804374429638   -5.19920e-04   1.12261e-04 DIIS
   @RHF iter   7:   -75.41812625214737   -8.25079e-05   3.83824e-05 DIIS
   @RHF iter   8:   -75.41813383345435   -7.58131e-06   1.72335e-05 DIIS
   @RHF iter   9:   -75.41813432748179   -4.94027e-07   6.88124e-06 DIIS
   @RHF iter  10:   -75.41813441984819   -9.23664e-08   3.10464e-06 DIIS
   @RHF iter  11:   -75.41813443801306   -1.81649e-08   3.74286e-07 DIIS
   @RHF iter  12:   -75.41813443840137   -3.88312e-10   1.97635e-08 DIIS
   @RHF iter  13:   -75.41813443840348   -2.11742e-12   4.65922e-09 DIIS

  ==> Post-Iterations <==

    Orbital Energies (a.u.)
    -----------------------

    Doubly Occupied:                                                      

       1A1   -20.185213     2A1    -0.901807     3A1    -0.251627  
       1B1    -0.109591     1B2    -0.109591  

    Virtual:                                                              

       4A1     0.148813     5A1     0.201014     2B2     0.229199  
       2B1     0.229199     6A1     0.294575     7A1     0.326540  
       3B2     0.327518     3B1     0.327518     8A1     0.418529  
       9A1     0.563892     1A2     0.579956    10A1     0.579956  
       4B1     0.613880     4B2     0.613880     5B2     0.618437  
       5B1     0.618437    11A1     0.619388    12A1     0.624263  
       2A2     0.624855    13A1     0.624855     6B2     0.648343  
       6B1     0.648343    14A1     0.808037    15A1     0.976606  
       7B2     1.064929     7B1     1.064929     8B2     1.095497  
       8B1     1.095497    16A1     1.122955    17A1     1.149534  
       9B1     1.176556     9B2     1.176556     3A2     1.201582  
      18A1     1.201582    19A1     1.260086    10B2     1.288727  
      10B1     1.288727    20A1     1.303799     4A2     1.303799  
      11B2     1.334559    11B1     1.334559     5A2     1.393089  
      21A1     1.393089    12B1     1.466994    12B2     1.466994  
      22A1     1.491868    23A1     1.641287    13B2     1.748153  
      13B1     1.748153    24A1     1.956713    25A1     2.144901  
      26A1     2.166316     6A2     2.166316    14B2     2.233117  
      14B1     2.233117    27A1     2.249992    28A1     2.308777  
       7A2     2.308777    15B2     2.458396    15B1     2.458396  
      16B2     2.534657    16B1     2.534657    17B1     2.581263  
      17B2     2.581263    29A1     2.581365    30A1     2.598517  
       8A2     2.598517    31A1     2.615716     9A2     2.615716  
      18B2     2.649745    18B1     2.649745    10A2     2.657144  
      32A1     2.657144    19B2     2.718221    19B1     2.718221  
      33A1     2.741658    20B2     2.857056    20B1     2.857056  
      34A1     2.966534    11A2     2.966534    35A1     3.010019  
      21B2     3.142995    21B1     3.142995    36A1     3.243172  
      37A1     3.256147    12A2     3.256147    22B2     3.302222  
      22B1     3.302222    38A1     3.425315    39A1     3.786265  
      23B2     4.066336    23B1     4.066336    24B2     4.211597  
      24B1     4.211597    40A1     4.408958    41A1     4.427677  
      13A2     4.427677    25B1     4.533146    25B2     4.533146  
      42A1     4.822676    43A1     4.856939    14A2     4.856939  
      26B2     4.903568    26B1     4.903568    27B2     5.056415  
      27B1     5.056415    44A1     5.101909    15A2     5.101909  
      28B2     5.109102    28B1     5.109102    45A1     5.157691  
      46A1     5.200184    16A2     5.200184    29B1     5.255293  
      29B2     5.255293    47A1     5.357609    30B2     5.406772  
      30B1     5.406772    31B2     5.534299    31B1     5.534299  
      17A2     5.539394    48A1     5.539394    32B2     5.656145  
      32B1     5.656145    49A1     5.658174    18A2     5.658174  
      50A1     5.665246    33B2     5.689666    33B1     5.689666  
      19A2     5.939019    51A1     5.939019    34B2     6.000331  
      34B1     6.000331    52A1     6.140907    35B1     6.155601  
      35B2     6.155601    53A1     6.197849    20A2     6.197849  
      21A2     6.390113    54A1     6.390113    55A1     6.683594  
      36B2     6.811891    36B1     6.811891    56A1     6.954700  
      57A1     7.452157    37B2     7.572999    37B1     7.572999  
      22A2     7.943470    58A1     7.943470    59A1     7.949870  
      23A2     7.949870    38B2     8.328946    38B1     8.328946  
      60A1     8.358324    39B2     8.778538    39B1     8.778538  
      40B1     9.248447    40B2     9.248447    61A1     9.441359  
      24A2     9.441359    62A1     9.629826    63A1     9.797515  
      25A2     9.797515    64A1     9.827091    41B2     9.907614  
      41B1     9.907614    65A1     9.990660    26A2     9.990660  
      42B2    10.001478    42B1    10.001478    66A1    10.207162  
      43B2    10.422750    43B1    10.422750    67A1    10.816085  
      27A2    10.816085    44B2    11.112981    44B1    11.112981  
      68A1    11.130299    28A2    11.130299    69A1    11.205127  
      45B1    11.274346    45B2    11.274346    46B2    11.285828  
      46B1    11.285828    47B1    11.332071    47B2    11.332071  
      29A2    11.516597    70A1    11.516597    71A1    11.523163  
      72A1    11.582549    30A2    11.582549    48B2    11.595901  
      48B1    11.595901    73A1    11.842633    49B2    12.250087  
      49B1    12.250087    31A2    12.701205    74A1    12.701205  
      50B1    13.090958    50B2    13.090958    51B2    13.169490  
      51B1    13.169490    32A2    13.492221    75A1    13.492221  
      52B1    13.764674    52B2    13.764674    76A1    13.907714  
      33A2    14.069820    77A1    14.069820    53B2    14.273101  
      53B1    14.273101    78A1    14.578251    79A1    14.738007  
      54B2    14.933995    54B1    14.933995    34A2    15.164238  
      80A1    15.164238    81A1    15.809085    35A2    15.809085  
      55B2    16.399811    55B1    16.399811    82A1    16.617726  
      56B1    17.870735    56B2    17.870735    57B2    18.177273  
      57B1    18.177273    36A2    18.511921    83A1    18.511921  
      84A1    19.329166    58B1    19.980350    58B2    19.980350  
      85A1    20.454417    86A1    20.705971    37A2    20.705971  
      38A2    20.819949    87A1    20.819949    59B2    21.556574  
      59B1    21.556574    60B1    21.586380    60B2    21.586380  
      61B2    21.885816    61B1    21.885816    88A1    21.924525  
      39A2    21.924525    89A1    22.035217    90A1    22.800775  
      91A1    23.184472    40A2    23.184472    62B1    23.275337  
      62B2    23.275337    92A1    23.394669    41A2    23.394669  
      63B2    23.627869    63B1    23.627869    93A1    23.657792  
      42A2    23.657792    64B2    24.401331    64B1    24.401331  
      94A1    24.424758    65B2    24.595805    65B1    24.595805  
      66B2    24.746550    66B1    24.746550    95A1    24.991611  
      43A2    25.747542    96A1    25.747542    67B2    26.618038  
      67B1    26.618038    97A1    26.679004    44A2    26.679004  
      68B1    27.279918    68B2    27.279918    98A1    27.303822  
      45A2    27.417528    99A1    27.417528    69B2    27.511871  
      69B1    27.511871    70B1    27.645611    70B2    27.645611  
     100A1    27.889041    46A2    28.286240   101A1    28.286240  
     102A1    28.476710    71B2    28.719867    71B1    28.719867  
      72B1    29.040785    72B2    29.040785   103A1    29.332449  
     104A1    30.256206    47A2    30.256206    48A2    31.962141  
     105A1    31.962141    73B1    32.175654    73B2    32.175654  
      49A2    33.514060   106A1    33.514060    74B2    33.599668  
      74B1    33.599668   107A1    33.677928    75B2    34.223434  
      75B1    34.223434   108A1    35.080497    50A2    35.532402  
     109A1    35.532402    76B2    36.314225    76B1    36.314225  
      77B2    39.568282    77B1    39.568282   110A1    39.709989  
     111A1    41.789311   112A1   106.218707  

    Final Occupation by Irrep:
             A1    A2    B1    B2 
    DOCC [     3,    0,    1,    1 ]

  Energy converged.

  @RHF Final Energy:   -75.41813443840348

   => Energetics <=

    Nuclear Repulsion Energy =              4.3761873559665654
    One-Electron Energy =                -116.4729855891439030
    Two-Electron Energy =                  36.6786637947738541
    Total Energy =                        -75.4181344384034844



Properties will be evaluated at   0.000000,   0.000000,   0.000000 Bohr

Properties computed using the SCF density matrix

  Nuclear Dipole Moment: (a.u.)
     X:     0.0000      Y:     0.0000      Z:    -0.8529

  Electronic Dipole Moment: (a.u.)
     X:     0.0000      Y:     0.0000      Z:     0.3661

  Dipole Moment: (a.u.)
     X:     0.0000      Y:     0.0000      Z:    -0.4868     Total:     0.4868

  Dipole Moment: (Debye)
     X:     0.0000      Y:     0.0000      Z:    -1.2372     Total:     1.2372


*** tstop() called on n412-071.vsc4.prov at Mon Nov  2 11:05:28 2020
Module time:
	user time   =     562.93 seconds =       9.38 minutes
	system time =      35.37 seconds =       0.59 minutes
	total time  =        449 seconds =       7.48 minutes
Total time:
	user time   =     562.93 seconds =       9.38 minutes
	system time =      35.37 seconds =       0.59 minutes
	total time  =        449 seconds =       7.48 minutes

*** tstart() called on n412-071.vsc4.prov
*** at Mon Nov  2 11:05:28 2020


	Wfn Parameters:
	--------------------
	Wavefunction         = CCSD
	Number of irreps     = 4
	Number of MOs        = 316
	Number of active MOs = 315
	AO-Basis             = NONE
	Semicanonical        = false
	Reference            = RHF
	Print Level          = 1

	IRREP	# MOs	# FZDC	# DOCC	# SOCC	# VIRT	# FZVR
	-----	-----	------	------	------	------	------
	 A1	   112	    1	    2	    0	    109	    0
	 A2	   50	    0	    0	    0	    50	    0
	 B1	   77	    0	    1	    0	    76	    0
	 B2	   77	    0	    1	    0	    76	    0
	Transforming integrals...
	IWL integrals will be deleted.
	(OO|OO)...
	Presorting SO-basis two-electron integrals.
	Sorting File: SO Ints (nn|nn) nbuckets = 1
	Transforming the one-electron integrals and constructing Fock matrices
	Starting first half-transformation.
	Sorting half-transformed integrals.
	First half integral transformation complete.
	Starting second half-transformation.
	Two-electron integral transformation complete.
	(OO|OV)...
	Starting second half-transformation.
	Two-electron integral transformation complete.
	(OO|VV)...
	Starting second half-transformation.
	Two-electron integral transformation complete.
	(OV|OO)...
	Starting first half-transformation.
	Sorting half-transformed integrals.
	First half integral transformation complete.
	Starting second half-transformation.
	Two-electron integral transformation complete.
	(OV|OV)...
	Starting second half-transformation.
	Two-electron integral transformation complete.
	(OV|VV)...
	Starting second half-transformation.
	Two-electron integral transformation complete.
	(VV|OO)...
	Starting first half-transformation.
	Sorting half-transformed integrals.
	First half integral transformation complete.
	Starting second half-transformation.
	Two-electron integral transformation complete.
	(VV|OV)...
	Starting second half-transformation.
	Two-electron integral transformation complete.
	(VV|VV)...
	Starting second half-transformation.
	Two-electron integral transformation complete.
	Frozen core energy     =    -60.20106887014566

	Size of irrep 0 of <ab|cd> integrals:    672.520 (MW) /   5380.164 (MB)
	Size of irrep 1 of <ab|cd> integrals:    504.092 (MW) /   4032.738 (MB)
	Size of irrep 2 of <ab|cd> integrals:    584.092 (MW) /   4672.738 (MB)
	Size of irrep 3 of <ab|cd> integrals:    584.092 (MW) /   4672.738 (MB)
	Total:                                  2344.797 (MW) /  18758.378 (MB)

	Size of irrep 0 of <ia|bc> integrals:      9.595 (MW) /     76.762 (MB)
	Size of irrep 1 of <ia|bc> integrals:      5.658 (MW) /     45.263 (MB)
	Size of irrep 2 of <ia|bc> integrals:      7.516 (MW) /     60.130 (MB)
	Size of irrep 3 of <ia|bc> integrals:      7.516 (MW) /     60.130 (MB)
	Total:                                    30.286 (MW) /    242.285 (MB)

	Size of irrep 0 of tijab amplitudes:       0.156 (MW) /      1.245 (MB)
	Size of irrep 1 of tijab amplitudes:       0.045 (MW) /      0.359 (MB)
	Size of irrep 2 of tijab amplitudes:       0.097 (MW) /      0.773 (MB)
	Size of irrep 3 of tijab amplitudes:       0.097 (MW) /      0.773 (MB)
	Total:                                     0.394 (MW) /      3.151 (MB)

	Nuclear Rep. energy          =      4.37618735596657
	SCF energy                   =    -75.41813443840348
	One-electron energy          =    -36.44127422052434
	Two-electron energy          =     16.84802129629990
	Reference energy             =    -75.41813443840354

*** tstop() called on n412-071.vsc4.prov at Mon Nov  2 11:11:34 2020
Module time:
	user time   =    1380.47 seconds =      23.01 minutes
	system time =      79.99 seconds =       1.33 minutes
	total time  =        366 seconds =       6.10 minutes
Total time:
	user time   =    1943.41 seconds =      32.39 minutes
	system time =     115.36 seconds =       1.92 minutes
	total time  =        815 seconds =      13.58 minutes

*** tstart() called on n412-071.vsc4.prov
*** at Mon Nov  2 11:11:34 2020

            **************************
            *                        *
            *        CCENERGY        *
            *                        *
            **************************

    Nuclear Rep. energy (wfn)     =    4.376187355966565
    SCF energy          (wfn)     =  -75.418134438403484
    Reference energy    (file100) =  -75.418134438403541

    Input parameters:
    -----------------
    Wave function   =     CCSD
    Reference wfn   =     RHF
    Brueckner       =     No
    Memory (Mbytes) =     250000.0
    Maxiter         =     50
    R_Convergence   =     1.0e-07
    E_Convergence   =     1.0e-06
    Restart         =     Yes
    DIIS            =     Yes
    AO Basis        =     NONE
    ABCD            =     NEW
    Cache Level     =     2
    Cache Type      =     LOW
    Print Level     =     1
    Num. of threads =     48
    # Amps to Print =     10
    Print MP2 Amps? =     No
    Analyze T2 Amps =     No
    Print Pair Ener =     No
    Local CC        =     No
    SCS-MP2         =     False
    SCSN-MP2        =     False
    SCS-CCSD        =     False

MP2 correlation energy -0.3188263025418652
                Solving CC Amplitude Equations
                ------------------------------
  Iter             Energy              RMS        T1Diag      D1Diag    New D1Diag    D2Diag
  ----     ---------------------    ---------   ----------  ----------  ----------   --------
     0        -0.318826302541841    0.000e+00    0.000000    0.000000    0.000000    0.138374
     1        -0.302967884284832    2.931e-01    0.041125    0.077643    0.077643    0.140003
     2        -0.313383234398270    1.075e-01    0.020647    0.038393    0.038393    0.145800
     3        -0.309551114899993    4.085e-02    0.024142    0.046169    0.046169    0.140264
     4        -0.307615072973294    6.235e-03    0.023678    0.045335    0.045335    0.138645
     5        -0.307427984188214    2.594e-03    0.023313    0.044698    0.044698    0.138387
     6        -0.307510302753842    9.762e-04    0.023224    0.044568    0.044568    0.138339
     7        -0.307518065827241    3.651e-04    0.023214    0.044562    0.044562    0.138305
     8        -0.307502216821696    1.445e-04    0.023207    0.044556    0.044556    0.138277
     9        -0.307502672732155    4.723e-05    0.023208    0.044561    0.044561    0.138276
    10        -0.307504993753556    2.134e-05    0.023211    0.044567    0.044567    0.138278
    11        -0.307504343469751    8.517e-06    0.023213    0.044571    0.044571    0.138279
    12        -0.307504092310672    3.406e-06    0.023213    0.044572    0.044572    0.138279
    13        -0.307504325344859    1.762e-06    0.023214    0.044573    0.044573    0.138280
    14        -0.307504324188455    7.668e-07    0.023214    0.044573    0.044573    0.138280
    15        -0.307504336445085    3.906e-07    0.023214    0.044573    0.044573    0.138280
    16        -0.307504350325893    2.080e-07    0.023214    0.044573    0.044573    0.138280
    17        -0.307504350411955    9.362e-08    0.023214    0.044573    0.044573    0.138280
    17        -0.307504350411955    9.362e-08    0.023214    0.044573    0.044573    0.138280

    Iterations converged.


    CCSD corr. energy   =   -0.307504350411955
    PPL corr. energy    =    0.072321938846474
    OS PPL corr. energy =    0.060332291637797
    SS PPL corr. energy =    0.011989647208677
    Largest TIA Amplitudes:
              2 159        -0.0337830121
              3 235        -0.0337827444
              2 160        -0.0217917612
              3 236        -0.0217915646
              2 163        -0.0120113601
              3 239        -0.0120112684
              2 161        -0.0086809218
              3 237        -0.0086808586
              2 162        -0.0075472144
              3 238        -0.0075471611

    Largest TIjAb Amplitudes:
      2   2 161 161        -0.0274204231
      3   3 237 237        -0.0274204136
      3   3 245 245        -0.0270996929
      2   2 169 169        -0.0270996894
      1   1  10  10        -0.0258787232
      1   1  11  11        -0.0251426871
      2   2 161 169        -0.0223775233
      2   2 169 161        -0.0223775233
      3   3 237 245        -0.0223775225
      3   3 245 237        -0.0223775225

    SCF energy       (wfn)                    =  -75.418134438403484
    Reference energy (file100)                =  -75.418134438403541

    Opposite-spin MP2 correlation energy      =   -0.241257448363270
    Same-spin MP2 correlation energy          =   -0.077568854178571
    MP2 correlation energy                    =   -0.318826302541865
      * MP2 total energy                      =  -75.736960740945406

    Opposite-spin CCSD correlation energy     =   -0.242477886091319
    Same-spin CCSD correlation energy         =   -0.065026461358340
    CCSD correlation energy                   =   -0.307504350411955
      * CCSD total energy                     =  -75.725638788815502


*** tstop() called on n412-071.vsc4.prov at Mon Nov  2 11:15:49 2020
Module time:
	user time   =    3158.07 seconds =      52.63 minutes
	system time =     133.19 seconds =       2.22 minutes
	total time  =        255 seconds =       4.25 minutes
Total time:
	user time   =    5101.48 seconds =      85.02 minutes
	system time =     248.55 seconds =       4.14 minutes
	total time  =       1070 seconds =      17.83 minutes

*** Psi4 exiting successfully. Buy a developer a beer!
