
    -----------------------------------------------------------------------
          Psi4: An Open-Source Ab Initio Electronic Structure Package
                               Psi4 1.4a3.dev88 

                         Git: Rev {master} 262e345 


    D. G. A. Smith, L. A. Burns, A. C. Simmonett, R. M. Parrish,
    M. C. Schieber, R. Galvelis, P. Kraus, H. Kruse, R. Di Remigio,
    A. Alenaizan, A. M. James, S. Lehtola, J. P. Misiewicz, M. Scheurer,
    R. A. Shaw, J. B. Schriber, Y. Xie, Z. L. Glick, D. A. Sirianni,
    J. S. O'Brien, J. M. Waldrop, A. Kumar, E. G. Hohenstein,
    B. P. Pritchard, B. R. Brooks, H. F. Schaefer III, A. Yu. Sokolov,
    K. Patkowski, A. E. DePrince III, U. Bozkaya, R. A. King,
    F. A. Evangelista, J. M. Turney, T. D. Crawford, C. D. Sherrill,
    J. Chem. Phys. 152(18) 184108 (2020). https://doi.org/10.1063/5.0006002

                            Additional Code Authors
    E. T. Seidl, C. L. Janssen, E. F. Valeev, M. L. Leininger,
    J. F. Gonthier, R. M. Richard, H. R. McAlexander, M. Saitow, X. Wang,
    P. Verma, and M. H. Lechner

             Previous Authors, Complete List of Code Contributors,
                       and Citations for Specific Modules
    https://github.com/psi4/psi4/blob/master/codemeta.json
    https://github.com/psi4/psi4/graphs/contributors
    http://psicode.org/psi4manual/master/introduction.html#citing-psifour

    -----------------------------------------------------------------------


    Psi4 started on: Friday, 22 January 2021 04:02AM

    Process ID: 45852
    Host:       n412-045.vsc4.prov
    PSIDATADIR: /home/fs71337/gallo4/psi4/psi4/build/stage/share/psi4
    Memory:     500.0 MiB
    Threads:    48
    
  ==> Input File <==

--------------------------------------------------------------------------
# Any line starting with the # character is a comment line
memory 250000 mb
molecule molecule{
1 3
O          0.0000000000        0.0000000000        0.0606658924
H          0.0000000000        0.0000000000       -0.9629718824
}

set {
  reference uhf
  basis aug-cc-pV(5+d)Z
  scf_type OUT_OF_CORE
  freeze_core true
}

energy('ccsd(t)')
--------------------------------------------------------------------------

  Memory set to 232.831 GiB by Python driver.

Scratch directory: /binfl/lv71337/airmler/temp/

*** tstart() called on n412-045.vsc4.prov
*** at Fri Jan 22 04:02:15 2021

   => Loading Basis Set <=

    Name: AUG-CC-PV(5+D)Z
    Role: ORBITAL
    Keyword: BASIS
    atoms 1 entry O          line   568 file /home/fs71337/gallo4/psi4/psi4/build/stage/share/psi4/basis/aug-cc-pv_5pd_z.gbs 
    atoms 2 entry H          line    69 file /home/fs71337/gallo4/psi4/psi4/build/stage/share/psi4/basis/aug-cc-pv_5pd_z.gbs 


         ---------------------------------------------------------
                                   SCF
               by Justin Turney, Rob Parrish, Andy Simmonett
                          and Daniel G. A. Smith
                              UHF Reference
                       48 Threads, 238418 MiB Core
         ---------------------------------------------------------

  ==> Geometry <==

    Molecular point group: c2v
    Full point group: C_inf_v

    Geometry (in Angstrom), charge = 1, multiplicity = 3:

       Center              X                  Y                   Z               Mass       
    ------------   -----------------  -----------------  -----------------  -----------------
         O            0.000000000000     0.000000000000     0.060675384938    15.994914619570
         H            0.000000000000     0.000000000000    -0.962962389862     1.007825032230

  Running in c2v symmetry.

  Rotational constants: A = ************  B =     16.96898  C =     16.96898 [cm^-1]
  Rotational constants: A = ************  B = 508717.20845  C = 508717.20845 [MHz]
  Nuclear repulsion =    4.135659888271642

  Charge       = 1
  Multiplicity = 3
  Electrons    = 8
  Nalpha       = 5
  Nbeta        = 3

  ==> Algorithm <==

  SCF Algorithm Type is OUT_OF_CORE.
  DIIS enabled.
  MOM disabled.
  Fractional occupation disabled.
  Guess Type is SAD.
  Energy threshold   = 1.00e-08
  Density threshold  = 1.00e-08
  Integral threshold = 1.00e-12

  ==> Primary Basis <==

  Basis Set: AUG-CC-PV(5+D)Z
    Blend: AUG-CC-PV(5+D)Z
    Number of shells: 47
    Number of basis function: 207
    Number of Cartesian functions: 287
    Spherical Harmonics?: true
    Max angular momentum: 5

  ==> Integral Setup <==

  ==> DiskJK: Disk-Based J/K Matrices <==

    J tasked:                  Yes
    K tasked:                  Yes
    wK tasked:                  No
    Memory [MiB]:           178813
    Schwarz Cutoff:          1E-12

  Minimum eigenvalue in the overlap matrix is 2.2156940051E-05.
  Reciprocal condition number of the overlap matrix is 3.4813168117E-06.
    Using symmetric orthogonalization.

  ==> Pre-Iterations <==

  SCF Guess: Superposition of Atomic Densities via on-the-fly atomic UHF (no occupation information).


 WARNING: Atomic UHF is not converging! Try casting from a smaller basis or call Rob at CCMST.

 WARNING: Atomic UHF is not converging! Try casting from a smaller basis or call Rob at CCMST.
   -------------------------
    Irrep   Nso     Nmo    
   -------------------------
     A1        77      77 
     A2        30      30 
     B1        50      50 
     B2        50      50 
   -------------------------
    Total     207     207
   -------------------------

  ==> Iterations <==

                        Total Energy        Delta E     RMS |[F,P]|

   @UHF iter SAD:     9.21419302037201    9.21419e+00   0.00000e+00 
   @UHF iter   1:   -74.17872365139232   -8.33929e+01   1.48965e-02 DIIS
   @UHF iter   2:   -74.94573610677844   -7.67012e-01   4.50676e-03 DIIS
   @UHF iter   3:   -75.01016044564666   -6.44243e-02   3.14229e-04 DIIS
   @UHF iter   4:   -75.01073118711103   -5.70741e-04   9.24784e-05 DIIS
   @UHF iter   5:   -75.01082796174907   -9.67746e-05   3.74953e-05 DIIS
   @UHF iter   6:   -75.01085156537533   -2.36036e-05   1.47684e-05 DIIS
   @UHF iter   7:   -75.01085612061533   -4.55524e-06   3.70819e-06 DIIS
   @UHF iter   8:   -75.01085639804276   -2.77427e-07   5.56411e-07 DIIS
   @UHF iter   9:   -75.01085640174971   -3.70694e-09   4.86952e-08 DIIS
   @UHF iter  10:   -75.01085640176851   -1.88010e-11   6.97604e-09 DIIS
  Energy and wave function converged.


  ==> Post-Iterations <==

   @Spin Contamination Metric:   1.397666571E-02
   @S^2 Expected:                2.000000000E+00
   @S^2 Observed:                2.013976666E+00
   @S   Expected:                1.000000000E+00
   @S   Observed:                1.000000000E+00

    Orbital Energies [Eh]
    ---------------------

    Alpha Occupied:                                                       

       1A1   -21.252980     2A1    -1.967974     1B1    -1.215711  
       1B2    -1.215711     3A1    -1.204042  

    Alpha Virtual:                                                        

       4A1    -0.194811     5A1    -0.094148     2B1    -0.089879  
       2B2    -0.089879     6A1    -0.061184     7A1    -0.014296  
       3B1    -0.008368     3B2    -0.008368     8A1     0.057612  
       1A2     0.126798     9A1     0.126798    10A1     0.148079  
       4B1     0.185321     4B2     0.185321     5B2     0.222663  
       5B1     0.222663    11A1     0.246159    12A1     0.278699  
       2A2     0.301214    13A1     0.301214     6B1     0.314741  
       6B2     0.314741    14A1     0.376364     7B2     0.660716  
       7B1     0.660716     8B1     0.664288     8B2     0.664288  
      15A1     0.671316    16A1     0.773982    17A1     0.819308  
       3A2     0.819308     9B1     0.835458     9B2     0.835458  
      18A1     0.854609     4A2     0.867382    19A1     0.867382  
      10B1     0.965587    10B2     0.965587    20A1     0.975332  
      11B2     0.994135    11B1     0.994135    21A1     1.044092  
      22A1     1.063835     5A2     1.063835    12B1     1.149357  
      12B2     1.149357    23A1     1.353866    13B1     1.453252  
      13B2     1.453252    24A1     1.855792     6A2     1.855792  
      25A1     1.891119    14B1     1.933487    14B2     1.933487  
       7A2     2.175931    26A1     2.175931    27A1     2.241591  
      15B1     2.245810    15B2     2.245810    28A1     2.304007  
      16B1     2.383725    16B2     2.383725    29A1     2.487343  
      17B1     2.513727    17B2     2.513727    30A1     2.549684  
       8A2     2.549684    18B1     2.561097    18B2     2.561097  
      31A1     2.651571     9A2     2.651571    32A1     2.731661  
      10A2     2.752362    33A1     2.752362    34A1     2.772947  
      11A2     2.772947    35A1     2.974333    19B1     2.985425  
      19B2     2.985425    20B1     3.060029    20B2     3.060029  
      21B1     3.138510    21B2     3.138510    36A1     3.232181  
      37A1     3.371692    12A2     3.371692    38A1     3.997304  
      22B1     4.058130    22B2     4.058130    23B1     4.125805  
      23B2     4.125805    24B1     4.253397    24B2     4.253397  
      39A1     4.434032    40A1     4.874259    13A2     4.874259  
      41A1     5.258231    25B1     5.328712    25B2     5.328712  
      42A1     5.497977    14A2     5.497977    43A1     5.541287  
      26B1     5.680187    26B2     5.680187    27B2     5.710430  
      27B1     5.710430    15A2     5.946548    44A1     5.946548  
      28B1     6.214315    28B2     6.214315    45A1     6.259379  
      16A2     6.568637    46A1     6.568637    29B1     6.586407  
      29B2     6.586407    47A1     6.672765    48A1     6.719982  
      17A2     6.719982    30B1     6.740686    30B2     6.740686  
      31B1     6.762385    31B2     6.762385    32B1     7.015460  
      32B2     7.015460    49A1     7.117144    18A2     7.117144  
      50A1     7.361792    51A1     7.397562    19A2     7.397562  
      33B1     7.821193    33B2     7.821193    52A1     8.030353  
      34B1     8.415997    34B2     8.415997    53A1     8.622550  
      20A2     8.622550    54A1     8.637848    55A1     9.449184  
      35B1     9.887474    35B2     9.887474    56A1    11.943816  
      36B1    12.483100    36B2    12.483100    21A2    12.668433  
      57A1    12.668433    22A2    12.934011    58A1    12.934011  
      37B1    13.241565    37B2    13.241565    59A1    13.527464  
      38B1    13.531286    38B2    13.531286    23A2    13.666479  
      60A1    13.666479    39B1    13.959843    39B2    13.959843  
      61A1    14.056712    24A2    14.816824    62A1    14.816824  
      63A1    14.849292    40B1    15.254613    40B2    15.254613  
      41B2    15.635168    41B1    15.635168    25A2    15.764213  
      64A1    15.764213    42B1    16.179203    42B2    16.179203  
      43B1    16.361823    43B2    16.361823    65A1    16.588572  
      44B2    16.905391    44B1    16.905391    26A2    17.073128  
      66A1    17.073128    67A1    17.475262    45B2    17.607369  
      45B1    17.607369    68A1    17.625638    27A2    18.460963  
      69A1    18.460963    46B2    18.573738    46B1    18.573738  
      47B2    18.609940    47B1    18.609940    70A1    18.655795  
      28A2    18.920935    71A1    18.920935    72A1    19.139169  
      29A2    19.139169    48B2    19.575785    48B1    19.575785  
      73A1    20.066766    74A1    21.702273    30A2    21.702273  
      49B2    22.267663    49B1    22.267663    50B2    22.908186  
      50B1    22.908186    75A1    24.303907    76A1    25.143780  
      77A1    64.115508  

    Beta Occupied:                                                        

       1A1   -21.165294     2A1    -1.633414     3A1    -1.111878  

    Beta Virtual:                                                         

       1B2    -0.340442     1B1    -0.340442     4A1    -0.179205  
       5A1    -0.089891     2B1    -0.066861     2B2    -0.066861  
       6A1    -0.055616     7A1    -0.011059     3B1    -0.006370  
       3B2    -0.006370     8A1     0.065291     1A2     0.137907  
       9A1     0.137907    10A1     0.152468     4B1     0.226800  
       4B2     0.226800     5B1     0.245204     5B2     0.245204  
      11A1     0.254640    12A1     0.286204    13A1     0.301748  
       2A2     0.301748     6B1     0.320977     6B2     0.320977  
      14A1     0.386990     7B2     0.666859     7B1     0.666859  
      15A1     0.681346     8B1     0.688010     8B2     0.688010  
      16A1     0.787021     9B1     0.840865     9B2     0.840865  
      17A1     0.864869     3A2     0.869810    18A1     0.869810  
       4A2     0.887840    19A1     0.887840    10B1     0.982122  
      10B2     0.982122    20A1     0.987945    11B2     0.995147  
      11B1     0.995147    21A1     1.057381     5A2     1.071175  
      22A1     1.071175    12B1     1.207174    12B2     1.207174  
      23A1     1.367726    13B1     1.527374    13B2     1.527374  
       6A2     1.870406    24A1     1.870406    25A1     1.903774  
      14B1     1.936053    14B2     1.936053    26A1     2.186832  
       7A2     2.186832    27A1     2.263183    15B1     2.263722  
      15B2     2.263722    28A1     2.317316    16B2     2.420768  
      16B1     2.420768    29A1     2.526510    17B2     2.529223  
      17B1     2.529223     8A2     2.566985    30A1     2.566985  
      18B1     2.586013    18B2     2.586013    31A1     2.741811  
       9A2     2.755298    32A1     2.755298    10A2     2.770894  
      33A1     2.770894    11A2     2.787183    34A1     2.787183  
      35A1     3.007865    19B1     3.026510    19B2     3.026510  
      20B2     3.061860    20B1     3.061860    21B1     3.144877  
      21B2     3.144877    36A1     3.243787    12A2     3.403589  
      37A1     3.403589    38A1     4.013744    22B1     4.094665  
      22B2     4.094665    23B2     4.131273    23B1     4.131273  
      24B2     4.352873    24B1     4.352873    39A1     4.466820  
      13A2     4.884930    40A1     4.884930    41A1     5.274087  
      25B1     5.354819    25B2     5.354819    14A2     5.507572  
      42A1     5.507572    43A1     5.565260    26B1     5.687673  
      26B2     5.687673    27B2     5.731693    27B1     5.731693  
      15A2     5.964723    44A1     5.964723    28B2     6.261604  
      28B1     6.261604    45A1     6.295413    16A2     6.617171  
      46A1     6.617171    29B2     6.630350    29B1     6.630350  
      47A1     6.687297    17A2     6.743497    48A1     6.743497  
      30B2     6.774082    30B1     6.774082    31B1     6.776534  
      31B2     6.776534    32B2     7.088722    32B1     7.088722  
      18A2     7.183822    49A1     7.183822    50A1     7.380815  
      19A2     7.481201    51A1     7.481201    33B1     7.849096  
      33B2     7.849096    52A1     8.077740    34B2     8.456031  
      34B1     8.456031    53A1     8.660860    20A2     8.706182  
      54A1     8.706182    55A1     9.472876    35B2     9.948160  
      35B1     9.948160    56A1    12.002767    36B2    12.482374  
      36B1    12.482374    21A2    12.667838    57A1    12.667838  
      22A2    12.937883    58A1    12.937883    37B2    13.243361  
      37B1    13.243361    38B1    13.536860    38B2    13.536860  
      59A1    13.539474    23A2    13.663896    60A1    13.663896  
      39B1    13.960680    39B2    13.960680    61A1    14.060293  
      24A2    14.825792    62A1    14.825792    63A1    14.856393  
      40B2    15.314338    40B1    15.314338    41B2    15.687403  
      41B1    15.687403    25A2    15.807303    64A1    15.807303  
      42B2    16.213773    42B1    16.213773    43B2    16.410789  
      43B1    16.410789    65A1    16.601398    44B2    16.913672  
      44B1    16.913672    26A2    17.101255    66A1    17.101255  
      67A1    17.492742    45B2    17.628971    45B1    17.628971  
      68A1    17.673561    27A2    18.542937    69A1    18.542937  
      46B2    18.660111    46B1    18.660111    70A1    18.676424  
      47B2    18.693473    47B1    18.693473    28A2    18.973723  
      71A1    18.973723    29A2    19.208650    72A1    19.208650  
      48B2    19.620570    48B1    19.620570    73A1    20.107125  
      30A2    21.804297    74A1    21.804297    49B2    22.302364  
      49B1    22.302364    50B2    22.965900    50B1    22.965900  
      75A1    24.324337    76A1    25.167497    77A1    64.149381  

    Final Occupation by Irrep:
             A1    A2    B1    B2 
    DOCC [     3,    0,    0,    0 ]
    SOCC [     0,    0,    1,    1 ]

  @UHF Final Energy:   -75.01085640176851

   => Energetics <=

    Nuclear Repulsion Energy =              4.1356598882716415
    One-Electron Energy =                -107.5260312095385018
    Two-Electron Energy =                  28.3795149194983551
    Total Energy =                        -75.0108564017685069

  UHF NO Occupations:
  HONO-2 :    3 A1 1.9946224
  HONO-1 :    1 B2 1.0000000
  HONO-0 :    1 B1 1.0000000
  LUNO+0 :    4 A1 0.0053776
  LUNO+1 :    5 A1 0.0016235
  LUNO+2 :    6 A1 0.0000030
  LUNO+3 :    7 A1 0.0000000


Computation Completed


Properties will be evaluated at   0.000000,   0.000000,   0.000000 [a0]

Properties computed using the SCF density matrix

  Nuclear Dipole Moment: [e a0]
     X:     0.0000      Y:     0.0000      Z:    -0.9025

  Electronic Dipole Moment: [e a0]
     X:     0.0000      Y:     0.0000      Z:    -0.0257

  Dipole Moment: [e a0]
     X:     0.0000      Y:     0.0000      Z:    -0.9282     Total:     0.9282

  Dipole Moment: [D]
     X:     0.0000      Y:     0.0000      Z:    -2.3592     Total:     2.3592


*** tstop() called on n412-045.vsc4.prov at Fri Jan 22 04:03:22 2021
Module time:
	user time   =     121.95 seconds =       2.03 minutes
	system time =       6.25 seconds =       0.10 minutes
	total time  =         67 seconds =       1.12 minutes
Total time:
	user time   =     121.95 seconds =       2.03 minutes
	system time =       6.25 seconds =       0.10 minutes
	total time  =         67 seconds =       1.12 minutes

*** tstart() called on n412-045.vsc4.prov
*** at Fri Jan 22 04:03:22 2021


	Wfn Parameters:
	--------------------
	Wavefunction         = CCSD_T
	Number of irreps     = 4
	Number of MOs        = 207
	Number of active MOs = 206
	AO-Basis             = NONE
	Semicanonical        = false
	Reference            = UHF
	Print Level          = 1

	IRREP	# MOs	# FZDC	# DOCC	# SOCC	# VIRT	# FZVR
	-----	-----	------	------	------	------	------
	 A1	   77	    1	    2	    0	    74	    0
	 A2	   30	    0	    0	    0	    30	    0
	 B1	   50	    0	    0	    1	    49	    0
	 B2	   50	    0	    0	    1	    49	    0
	Transforming integrals...
	IWL integrals will be deleted.
	(OO|OO)...
	Presorting SO-basis two-electron integrals.
	Sorting File: SO Ints (nn|nn) nbuckets = 1
	Constructing frozen core operators
	Starting AA/AB first half-transformation.
	Sorting AA/AB half-transformed integrals.
	Starting BB first half-transformation.
	Sorting BB half-transformed integrals.
	First half integral transformation complete.
	Starting AA second half-transformation.
	Starting AB second half-transformation.
	Starting BB second half-transformation.
	Two-electron integral transformation complete.
	(OO|OV)...
	Starting AA second half-transformation.
	Starting AB second half-transformation.
	Starting BB second half-transformation.
	Two-electron integral transformation complete.
	(OO|VV)...
	Starting AA second half-transformation.
	Starting AB second half-transformation.
	Starting BB second half-transformation.
	Two-electron integral transformation complete.
	(OV|OO)...
	Starting AA/AB first half-transformation.
	Sorting AA/AB half-transformed integrals.
	Starting BB first half-transformation.
	Sorting BB half-transformed integrals.
	First half integral transformation complete.
	Starting AA second half-transformation.
	Starting AB second half-transformation.
	Starting BB second half-transformation.
	Two-electron integral transformation complete.
	(OV|OV)...
	Starting AA second half-transformation.
	Starting AB second half-transformation.
	Starting BB second half-transformation.
	Two-electron integral transformation complete.
	(OV|VV)...
	Starting AA second half-transformation.
	Starting AB second half-transformation.
	Starting BB second half-transformation.
	Two-electron integral transformation complete.
	(VV|OO)...
	Starting AA/AB first half-transformation.
	Sorting AA/AB half-transformed integrals.
	Starting BB first half-transformation.
	Sorting BB half-transformed integrals.
	First half integral transformation complete.
	Starting AA second half-transformation.
	Starting AB second half-transformation.
	Starting BB second half-transformation.
	Two-electron integral transformation complete.
	(VV|OV)...
	Starting AA second half-transformation.
	Starting AB second half-transformation.
	Starting BB second half-transformation.
	Two-electron integral transformation complete.
	(VV|VV)...
	Starting AA second half-transformation.
	Starting AB second half-transformation.
	Starting BB second half-transformation.
	Two-electron integral transformation complete.
	Frozen core energy     =    -60.14089179002399

	Size of irrep 0 of <AB|CD> integrals:     30.118 (MW) /    240.945 (MB)
	Size of irrep 1 of <AB|CD> integrals:     21.354 (MW) /    170.829 (MB)
	Size of irrep 2 of <AB|CD> integrals:     25.969 (MW) /    207.754 (MB)
	Size of irrep 3 of <AB|CD> integrals:     25.969 (MW) /    207.754 (MB)
	Total:                                   103.410 (MW) /    827.282 (MB)

	Size of irrep 0 of <ab|cd> integrals:     31.203 (MW) /    249.627 (MB)
	Size of irrep 1 of <ab|cd> integrals:     22.278 (MW) /    178.227 (MB)
	Size of irrep 2 of <ab|cd> integrals:     27.040 (MW) /    216.320 (MB)
	Size of irrep 3 of <ab|cd> integrals:     27.040 (MW) /    216.320 (MB)
	Total:                                   107.562 (MW) /    860.494 (MB)

	Size of irrep 0 of <Ab|Cd> integrals:    127.148 (MW) /   1017.185 (MB)
	Size of irrep 1 of <Ab|Cd> integrals:     87.236 (MW) /    697.885 (MB)
	Size of irrep 2 of <Ab|Cd> integrals:    106.008 (MW) /    848.061 (MB)
	Size of irrep 3 of <Ab|Cd> integrals:    106.008 (MW) /    848.061 (MB)
	Total:                                   426.399 (MW) /   3411.192 (MB)

	Size of irrep 0 of <IA|BC> integrals:      2.750 (MW) /     21.998 (MB)
	Size of irrep 1 of <IA|BC> integrals:      1.460 (MW) /     11.682 (MB)
	Size of irrep 2 of <IA|BC> integrals:      2.059 (MW) /     16.470 (MB)
	Size of irrep 3 of <IA|BC> integrals:      2.059 (MW) /     16.470 (MB)
	Total:                                     8.328 (MW) /     66.621 (MB)

	Size of irrep 0 of <ia|bc> integrals:      1.684 (MW) /     13.469 (MB)
	Size of irrep 1 of <ia|bc> integrals:      0.566 (MW) /      4.531 (MB)
	Size of irrep 2 of <ia|bc> integrals:      1.040 (MW) /      8.320 (MB)
	Size of irrep 3 of <ia|bc> integrals:      1.040 (MW) /      8.320 (MB)
	Total:                                     4.330 (MW) /     34.640 (MB)

	Size of irrep 0 of <Ia|Bc> integrals:      2.796 (MW) /     22.372 (MB)
	Size of irrep 1 of <Ia|Bc> integrals:      1.494 (MW) /     11.955 (MB)
	Size of irrep 2 of <Ia|Bc> integrals:      2.100 (MW) /     16.803 (MB)
	Size of irrep 3 of <Ia|Bc> integrals:      2.100 (MW) /     16.803 (MB)
	Total:                                     8.492 (MW) /     67.933 (MB)

	Size of irrep 0 of <iA|bC> integrals:      1.669 (MW) /     13.351 (MB)
	Size of irrep 1 of <iA|bC> integrals:      0.560 (MW) /      4.483 (MB)
	Size of irrep 2 of <iA|bC> integrals:      1.009 (MW) /      8.072 (MB)
	Size of irrep 3 of <iA|bC> integrals:      1.009 (MW) /      8.072 (MB)
	Total:                                     4.247 (MW) /     33.978 (MB)

	Size of irrep 0 of tIjAb amplitudes:       0.045 (MW) /      0.361 (MB)
	Size of irrep 1 of tIjAb amplitudes:       0.000 (MW) /      0.000 (MB)
	Size of irrep 2 of tIjAb amplitudes:       0.021 (MW) /      0.165 (MB)
	Size of irrep 3 of tIjAb amplitudes:       0.021 (MW) /      0.165 (MB)
	Total:                                     0.086 (MW) /      0.690 (MB)

	Nuclear Rep. energy          =      4.13565988827164
	SCF energy                   =    -75.01085640176851
	One-electron energy          =    -29.66252098869928
	Two-electron (AA) energy     =      4.04996391122152
	Two-electron (BB) energy     =      0.56088318088370
	Two-electron (AB) energy     =      6.04604939657726
	Two-electron energy          =     10.65689648868248
	Reference energy             =    -75.01085640176915

*** tstop() called on n412-045.vsc4.prov at Fri Jan 22 04:05:42 2021
Module time:
	user time   =      44.96 seconds =       0.75 minutes
	system time =      31.04 seconds =       0.52 minutes
	total time  =        140 seconds =       2.33 minutes
Total time:
	user time   =     166.91 seconds =       2.78 minutes
	system time =      37.29 seconds =       0.62 minutes
	total time  =        207 seconds =       3.45 minutes
            **************************
            *                        *
            *        CCENERGY        *
            *                        *
            **************************

    Nuclear Rep. energy (wfn)     =    4.135659888271642
    SCF energy          (wfn)     =  -75.010856401768507
    Reference energy    (file100) =  -75.010856401769146

    Input parameters:
    -----------------
    Wave function   =     CCSD_T
    Reference wfn   =     UHF
    Brueckner       =     No
    Memory (Mbytes) =     250000.0
    Maxiter         =     50
    R_Convergence   =     1.0e-07
    E_Convergence   =     1.0e-06
    Restart         =     Yes
    DIIS            =     Yes
    AO Basis        =     NONE
    ABCD            =     NEW
    Cache Level     =     2
    Cache Type      =     LRU
    Print Level     =     1
    Num. of threads =     48
    # Amps to Print =     10
    Print MP2 Amps? =     No
    Analyze T2 Amps =     No
    Print Pair Ener =     No
    Local CC        =     No
    SCS-MP2         =     False
    SCSN-MP2        =     False
    SCS-CCSD        =     False

MP2 correlation energy -0.1624639836432386
                Solving CC Amplitude Equations
                ------------------------------
  Iter             Energy              RMS        T1Diag      D1Diag    New D1Diag    D2Diag
  ----     ---------------------    ---------   ----------  ----------  ----------   --------
     0        -0.162463983643239    0.000e+00    0.000000    0.000000    0.000000    0.000000
     1        -0.173203201561452    3.001e-02    0.007075    0.000000    0.000000    0.000000
     2        -0.177568647396179    1.180e-02    0.010495    0.000000    0.000000    0.000000
     3        -0.177824924346387    3.948e-03    0.011723    0.000000    0.000000    0.000000
     4        -0.177822461077677    1.758e-03    0.011980    0.000000    0.000000    0.000000
     5        -0.177861259604300    7.770e-04    0.012007    0.000000    0.000000    0.000000
     6        -0.177868632769892    2.516e-04    0.011982    0.000000    0.000000    0.000000
     7        -0.177869927754672    7.929e-05    0.011977    0.000000    0.000000    0.000000
     8        -0.177869658252620    2.455e-05    0.011979    0.000000    0.000000    0.000000
     9        -0.177869157286496    8.104e-06    0.011980    0.000000    0.000000    0.000000
    10        -0.177869264610386    2.442e-06    0.011981    0.000000    0.000000    0.000000
    11        -0.177869278710918    7.196e-07    0.011981    0.000000    0.000000    0.000000
    12        -0.177869298029649    2.161e-07    0.011981    0.000000    0.000000    0.000000
    13        -0.177869298990592    7.358e-08    0.011981    0.000000    0.000000    0.000000

    Iterations converged.


    Largest TIA Amplitudes:
              1   0         0.0074553191
              2 106        -0.0055461457
              3 155        -0.0055461455
              0   0        -0.0052250872
              3 153        -0.0052160838
              2 104        -0.0052160837
              1   1         0.0047627466
              1   4         0.0045684262
              0   6        -0.0041501653
              0   2        -0.0037764477

    Largest Tia Amplitudes:
              0   0         0.0089506039
              0   6         0.0065509205
              0   4         0.0065010336
              0   2         0.0061316433
              0  10        -0.0053683676
              0  23         0.0042839728
              0   1         0.0042043211
              1  17        -0.0041991385
              0  16        -0.0041750049
              0  11        -0.0040993018

    Largest TIJAB Amplitudes:
      3   2  76  13        -0.0098643776
      3   2  82  27        -0.0083827685
      3   2 155 106        -0.0076873553
      3   2  76  27         0.0076283376
      3   2  82  13         0.0076283376
      3   1 155   0         0.0065374684
      2   1 106   0         0.0065374677
      3   1 155  10        -0.0064961051
      2   1 106  10        -0.0064961045
      3   1 155   4         0.0063957905

    Largest Tijab Amplitudes:
      1   0 161 154        -0.0072957185
      1   0 111 104        -0.0072957185
      1   0 157 154        -0.0063576348
      1   0 107 104        -0.0063576348
      1   0 165 154         0.0051733810
      1   0 115 104         0.0051733810
      1   0 172 154         0.0039918337
      1   0 122 104         0.0039918337
      1   0 166 154        -0.0038807161
      1   0 116 104        -0.0038807161

    Largest TIjAb Amplitudes:
      3   0  13 154        -0.0196168855
      3   0  76 104         0.0196168853
      2   0  76 154         0.0196168849
      2   0  13 104         0.0196168847
      1   1   0   0        -0.0171288260
      2   0  82 154        -0.0157130682
      3   0  27 154         0.0157130681
      2   0  27 104        -0.0157130680
      3   0  82 104        -0.0157130679
      1   1   0   4        -0.0153208202

    SCF energy       (wfn)                    =  -75.010856401768507
    Reference energy (file100)                =  -75.010856401769146

    Opposite-spin MP2 correlation energy      =   -0.125545162004234
    Same-spin MP2 correlation energy          =   -0.036918821639004
    Singles MP2 correlation energy            =   -0.000000000000000
    MP2 correlation energy                    =   -0.162463983643239
      * MP2 total energy                      =  -75.173320385412381

    Opposite-spin CCSD correlation energy     =   -0.140623348870878
    Same-spin CCSD correlation energy         =   -0.037245950119719
    Singles CCSD correlation energy           =    0.000000000000004
    CCSD correlation energy                   =   -0.177869298990592
      * CCSD total energy                     =  -75.188725700759733

            **************************
            *                        *
            *        CCTRIPLES       *
            *                        *
            **************************


    Wave function   =    CCSD_T
    Reference wfn   =      UHF

    Nuclear Rep. energy (wfn)                =    4.135659888271642
    SCF energy          (wfn)                =  -75.010856401768507
    Reference energy    (file100)            =  -75.010856401769146
    CCSD energy         (file100)            =   -0.177869298990592
    Total CCSD energy   (file100)            =  -75.188725700759733

    Number of ijk index combinations:
    Spin Case AAA:                                   4
    Spin Case BBB:                                   0
    Spin Case AAB:                                  12
    Spin Case ABB:                                   4
    AAA (T) energy                             =   -0.000195292299600
    BBB (T) energy                             =    0.000000000000000
    AAB (T) energy                             =   -0.002809303307708
    ABB (T) energy                             =   -0.000773511254514
    (T) energy                                   =   -0.003778106861822
      * CCSD(T) total energy                     =  -75.192503807621563


    Psi4 stopped on: Friday, 22 January 2021 04:07AM
    Psi4 wall time for execution: 0:05:36.54

*** Psi4 exiting successfully. Buy a developer a beer!
