
    -----------------------------------------------------------------------
          Psi4: An Open-Source Ab Initio Electronic Structure Package
                               Psi4 1.4a3.dev88 

                         Git: Rev {master} 262e345 


    D. G. A. Smith, L. A. Burns, A. C. Simmonett, R. M. Parrish,
    M. C. Schieber, R. Galvelis, P. Kraus, H. Kruse, R. Di Remigio,
    A. Alenaizan, A. M. James, S. Lehtola, J. P. Misiewicz, M. Scheurer,
    R. A. Shaw, J. B. Schriber, Y. Xie, Z. L. Glick, D. A. Sirianni,
    J. S. O'Brien, J. M. Waldrop, A. Kumar, E. G. Hohenstein,
    B. P. Pritchard, B. R. Brooks, H. F. Schaefer III, A. Yu. Sokolov,
    K. Patkowski, A. E. DePrince III, U. Bozkaya, R. A. King,
    F. A. Evangelista, J. M. Turney, T. D. Crawford, C. D. Sherrill,
    J. Chem. Phys. 152(18) 184108 (2020). https://doi.org/10.1063/5.0006002

                            Additional Code Authors
    E. T. Seidl, C. L. Janssen, E. F. Valeev, M. L. Leininger,
    J. F. Gonthier, R. M. Richard, H. R. McAlexander, M. Saitow, X. Wang,
    P. Verma, and M. H. Lechner

             Previous Authors, Complete List of Code Contributors,
                       and Citations for Specific Modules
    https://github.com/psi4/psi4/blob/master/codemeta.json
    https://github.com/psi4/psi4/graphs/contributors
    http://psicode.org/psi4manual/master/introduction.html#citing-psifour

    -----------------------------------------------------------------------


    Psi4 started on: Wednesday, 20 January 2021 09:16PM

    Process ID: 457149
    Host:       l43
    PSIDATADIR: /home/fs71337/gallo4/psi4/psi4/build/stage/share/psi4
    Memory:     500.0 MiB
    Threads:    48
    
  ==> Input File <==

--------------------------------------------------------------------------
# Any line starting with the # character is a comment line
memory 250000 mb
molecule molecule{
1 3
O          0.0000000000        0.0000000000        0.0606658924
H          0.0000000000        0.0000000000       -0.9629718824
}

set {
  reference uhf
  basis aug-cc-pV(Q+d)Z
  scf_type OUT_OF_CORE
  freeze_core true
}

energy('ccsd(t)')
--------------------------------------------------------------------------

  Memory set to 232.831 GiB by Python driver.

Scratch directory: /tmp/

*** tstart() called on l43
*** at Wed Jan 20 21:16:15 2021

   => Loading Basis Set <=

    Name: AUG-CC-PV(Q+D)Z
    Role: ORBITAL
    Keyword: BASIS
    atoms 1 entry O          line   451 file /home/fs71337/gallo4/psi4/psi4/build/stage/share/psi4/basis/aug-cc-pv_qpd_z.gbs 
    atoms 2 entry H          line    68 file /home/fs71337/gallo4/psi4/psi4/build/stage/share/psi4/basis/aug-cc-pv_qpd_z.gbs 


         ---------------------------------------------------------
                                   SCF
               by Justin Turney, Rob Parrish, Andy Simmonett
                          and Daniel G. A. Smith
                              UHF Reference
                       48 Threads, 238418 MiB Core
         ---------------------------------------------------------

  ==> Geometry <==

    Molecular point group: c2v
    Full point group: C_inf_v

    Geometry (in Angstrom), charge = 1, multiplicity = 3:

       Center              X                  Y                   Z               Mass       
    ------------   -----------------  -----------------  -----------------  -----------------
         O            0.000000000000     0.000000000000     0.060675384938    15.994914619570
         H            0.000000000000     0.000000000000    -0.962962389862     1.007825032230

  Running in c2v symmetry.

  Rotational constants: A = ************  B =     16.96898  C =     16.96898 [cm^-1]
  Rotational constants: A = ************  B = 508717.20845  C = 508717.20845 [MHz]
  Nuclear repulsion =    4.135659888271642

  Charge       = 1
  Multiplicity = 3
  Electrons    = 8
  Nalpha       = 5
  Nbeta        = 3

  ==> Algorithm <==

  SCF Algorithm Type is OUT_OF_CORE.
  DIIS enabled.
  MOM disabled.
  Fractional occupation disabled.
  Guess Type is SAD.
  Energy threshold   = 1.00e-08
  Density threshold  = 1.00e-08
  Integral threshold = 1.00e-12

  ==> Primary Basis <==

  Basis Set: AUG-CC-PV(Q+D)Z
    Blend: AUG-CC-PV(Q+D)Z
    Number of shells: 34
    Number of basis function: 126
    Number of Cartesian functions: 160
    Spherical Harmonics?: true
    Max angular momentum: 4

  ==> Integral Setup <==

  ==> DiskJK: Disk-Based J/K Matrices <==

    J tasked:                  Yes
    K tasked:                  Yes
    wK tasked:                  No
    Memory [MiB]:           178813
    Schwarz Cutoff:          1E-12

  Minimum eigenvalue in the overlap matrix is 1.6057439031E-04.
  Reciprocal condition number of the overlap matrix is 2.8907142452E-05.
    Using symmetric orthogonalization.

  ==> Pre-Iterations <==

  SCF Guess: Superposition of Atomic Densities via on-the-fly atomic UHF (no occupation information).


 WARNING: Atomic UHF is not converging! Try casting from a smaller basis or call Rob at CCMST.

 WARNING: Atomic UHF is not converging! Try casting from a smaller basis or call Rob at CCMST.
   -------------------------
    Irrep   Nso     Nmo    
   -------------------------
     A1        50      50 
     A2        16      16 
     B1        30      30 
     B2        30      30 
   -------------------------
    Total     126     126
   -------------------------

  ==> Iterations <==

                        Total Energy        Delta E     RMS |[F,P]|

   @UHF iter SAD:   -74.59977287953960   -7.45998e+01   0.00000e+00 
   @UHF iter   1:   -74.92647576488855   -3.26703e-01   6.04317e-03 DIIS
   @UHF iter   2:   -75.00228462656742   -7.58089e-02   2.14932e-03 DIIS
   @UHF iter   3:   -75.00842472040584   -6.14009e-03   4.96585e-04 DIIS
   @UHF iter   4:   -75.00934336903782   -9.18649e-04   1.86264e-04 DIIS
   @UHF iter   5:   -75.00951772406292   -1.74355e-04   7.13538e-05 DIIS
   @UHF iter   6:   -75.00955327469597   -3.55506e-05   2.72040e-05 DIIS
   @UHF iter   7:   -75.00955969284131   -6.41815e-06   4.73824e-06 DIIS
   @UHF iter   8:   -75.00955985748676   -1.64645e-07   5.58102e-07 DIIS
   @UHF iter   9:   -75.00955985849299   -1.00623e-09   9.44510e-08 DIIS
   @UHF iter  10:   -75.00955985852808   -3.50866e-11   1.85315e-08 DIIS
   @UHF iter  11:   -75.00955985852920   -1.12266e-12   2.59849e-09 DIIS
  Energy and wave function converged.


  ==> Post-Iterations <==

   @Spin Contamination Metric:   1.396794715E-02
   @S^2 Expected:                2.000000000E+00
   @S^2 Observed:                2.013967947E+00
   @S   Expected:                1.000000000E+00
   @S   Observed:                1.000000000E+00

    Orbital Energies [Eh]
    ---------------------

    Alpha Occupied:                                                       

       1A1   -21.253714     2A1    -1.968176     1B2    -1.215557  
       1B1    -1.215557     3A1    -1.203967  

    Alpha Virtual:                                                        

       4A1    -0.194808     5A1    -0.087797     2B2    -0.080441  
       2B1    -0.080441     6A1    -0.050798     7A1     0.002009  
       3B2     0.007922     3B1     0.007922     8A1     0.089297  
       1A2     0.176103     9A1     0.176103    10A1     0.229605  
       4B1     0.278096     4B2     0.278096     5B2     0.328980  
       5B1     0.328980    11A1     0.370028    12A1     0.421670  
       2A2     0.421670    13A1     0.430476     6B2     0.447948  
       6B1     0.447948    14A1     0.477970     7B1     0.808975  
       7B2     0.808975    15A1     0.863216     8B2     0.962822  
       8B1     0.962822     3A2     1.050905    16A1     1.050905  
      17A1     1.091838     9B2     1.190837     9B1     1.190837  
       4A2     1.217026    18A1     1.217026    19A1     1.275115  
      20A1     1.337603    10B2     1.388443    10B1     1.388443  
      11B2     1.389415    11B1     1.389415    21A1     1.574272  
       5A2     1.576953    22A1     1.576953    12B2     1.751375  
      12B1     1.751375    23A1     1.974577    13B2     2.113729  
      13B1     2.113729     6A2     2.477120    24A1     2.477120  
      14B2     2.523251    14B1     2.523251    25A1     2.615168  
      26A1     3.161135    27A1     3.200238     7A2     3.200238  
      15B2     3.331796    15B1     3.331796    16B1     3.423680  
      16B2     3.423680    28A1     3.515775    17B2     3.590576  
      17B1     3.590576    29A1     3.685794     8A2     3.685794  
      30A1     3.689389    31A1     3.704216     9A2     3.704216  
      18B2     3.748545    18B1     3.748545    32A1     3.931658  
      19B2     4.229730    19B1     4.229730    33A1     4.284723  
      10A2     4.284723    34A1     4.757440    20B2     4.981438  
      20B1     4.981438    35A1     5.217032    21B2     6.214163  
      21B1     6.214163    36A1     7.116636    11A2     7.116636  
      37A1     7.192312    22B2     7.275757    22B1     7.275757  
      38A1     7.946523    39A1     8.081767    12A2     8.081767  
      23B2     8.304763    23B1     8.304763    24B2     9.088596  
      24B1     9.088596    40A1     9.131641    13A2    10.024110  
      41A1    10.024110    25B1    10.172809    25B2    10.172809  
      26B2    10.311202    26B1    10.311202    42A1    10.402243  
      43A1    10.538822    14A2    10.538822    27B2    10.978359  
      27B1    10.978359    44A1    10.995624    28B2    11.230384  
      28B1    11.230384    45A1    11.414483    15A2    11.414483  
      46A1    11.419039    29B2    11.994234    29B1    11.994234  
      47A1    12.154143    16A2    12.154143    48A1    13.458466  
      30B2    13.532200    30B1    13.532200    49A1    15.863671  
      50A1    42.077133  

    Beta Occupied:                                                        

       1A1   -21.165697     2A1    -1.633616     3A1    -1.111803  

    Beta Virtual:                                                         

       1B1    -0.340492     1B2    -0.340492     4A1    -0.179209  
       5A1    -0.082545     2B1    -0.051257     2B2    -0.051257  
       6A1    -0.044737     7A1     0.006625     3B2     0.010881  
       3B1     0.010881     8A1     0.099138     9A1     0.192377  
       1A2     0.192377    10A1     0.234706     4B2     0.286809  
       4B1     0.286809    11A1     0.373057     5B1     0.391620  
       5B2     0.391620    12A1     0.422750     2A2     0.422750  
      13A1     0.448671     6B1     0.479927     6B2     0.479927  
      14A1     0.490567     7B2     0.828688     7B1     0.828688  
      15A1     0.889986     8B1     0.975701     8B2     0.975701  
      16A1     1.111747    17A1     1.145715     3A2     1.145715  
       9B2     1.207290     9B1     1.207290    18A1     1.226823  
       4A2     1.226823    19A1     1.285660    20A1     1.344322  
      10B1     1.392065    10B2     1.392065    11B2     1.416064  
      11B1     1.416064    21A1     1.584707     5A2     1.584707  
      22A1     1.591666    12B1     1.779691    12B2     1.779691  
      23A1     1.988722    13B1     2.225213    13B2     2.225213  
      24A1     2.491778     6A2     2.491778    14B2     2.528206  
      14B1     2.528206    25A1     2.630773    26A1     3.195039  
      27A1     3.224875     7A2     3.224875    15B1     3.382160  
      15B2     3.382160    16B1     3.456728    16B2     3.456728  
      28A1     3.552666    17B1     3.649561    17B2     3.649561  
      29A1     3.734329     8A2     3.734329    30A1     3.760725  
      18B2     3.789222    18B1     3.789222     9A2     3.829114  
      31A1     3.829114    32A1     3.942961    19B1     4.292615  
      19B2     4.292615    10A2     4.350674    33A1     4.350674  
      34A1     4.786790    20B1     5.022140    20B2     5.022140  
      35A1     5.260597    21B2     6.215040    21B1     6.215040  
      36A1     7.124991    11A2     7.124991    37A1     7.203630  
      22B2     7.278543    22B1     7.278543    38A1     7.954189  
      39A1     8.080541    12A2     8.080541    23B2     8.307931  
      23B1     8.307931    24B1     9.108743    24B2     9.108743  
      40A1     9.142666    13A2    10.097423    41A1    10.097423  
      25B1    10.230515    25B2    10.230515    42A1    10.429026  
      26B1    10.431552    26B2    10.431552    14A2    10.583513  
      43A1    10.583513    27B1    11.021796    27B2    11.021796  
      44A1    11.037654    28B2    11.353860    28B1    11.353860  
      45A1    11.471475    15A2    11.503047    46A1    11.503047  
      29B1    12.056643    29B2    12.056643    16A2    12.301836  
      47A1    12.301836    48A1    13.489550    30B1    13.600152  
      30B2    13.600152    49A1    15.892454    50A1    42.130247  

    Final Occupation by Irrep:
             A1    A2    B1    B2 
    DOCC [     3,    0,    0,    0 ]
    SOCC [     0,    0,    1,    1 ]

  @UHF Final Energy:   -75.00955985852920

   => Energetics <=

    Nuclear Repulsion Energy =              4.1356598882716415
    One-Electron Energy =                -107.5223519341827512
    Two-Electron Energy =                  28.3771321873818962
    Total Energy =                        -75.0095598585292009

  UHF NO Occupations:
  HONO-2 :    3 A1 1.9946272
  HONO-1 :    1 B2 1.0000000
  HONO-0 :    1 B1 1.0000000
  LUNO+0 :    4 A1 0.0053728
  LUNO+1 :    5 A1 0.0016242
  LUNO+2 :    6 A1 0.0000027
  LUNO+3 :    7 A1 0.0000000


Computation Completed


Properties will be evaluated at   0.000000,   0.000000,   0.000000 [a0]

Properties computed using the SCF density matrix

  Nuclear Dipole Moment: [e a0]
     X:     0.0000      Y:     0.0000      Z:    -0.9025

  Electronic Dipole Moment: [e a0]
     X:     0.0000      Y:     0.0000      Z:    -0.0255

  Dipole Moment: [e a0]
     X:     0.0000      Y:     0.0000      Z:    -0.9280     Total:     0.9280

  Dipole Moment: [D]
     X:     0.0000      Y:     0.0000      Z:    -2.3587     Total:     2.3587


*** tstop() called on l43 at Wed Jan 20 21:16:25 2021
Module time:
	user time   =      13.50 seconds =       0.23 minutes
	system time =       4.06 seconds =       0.07 minutes
	total time  =         10 seconds =       0.17 minutes
Total time:
	user time   =      13.50 seconds =       0.23 minutes
	system time =       4.06 seconds =       0.07 minutes
	total time  =         10 seconds =       0.17 minutes

*** tstart() called on l43
*** at Wed Jan 20 21:16:25 2021


	Wfn Parameters:
	--------------------
	Wavefunction         = CCSD_T
	Number of irreps     = 4
	Number of MOs        = 126
	Number of active MOs = 125
	AO-Basis             = NONE
	Semicanonical        = false
	Reference            = UHF
	Print Level          = 1

	IRREP	# MOs	# FZDC	# DOCC	# SOCC	# VIRT	# FZVR
	-----	-----	------	------	------	------	------
	 A1	   50	    1	    2	    0	    47	    0
	 A2	   16	    0	    0	    0	    16	    0
	 B1	   30	    0	    0	    1	    29	    0
	 B2	   30	    0	    0	    1	    29	    0
	Transforming integrals...
	IWL integrals will be deleted.
	(OO|OO)...
	Presorting SO-basis two-electron integrals.
	Sorting File: SO Ints (nn|nn) nbuckets = 1
	Constructing frozen core operators
	Starting AA/AB first half-transformation.
	Sorting AA/AB half-transformed integrals.
	Starting BB first half-transformation.
	Sorting BB half-transformed integrals.
	First half integral transformation complete.
	Starting AA second half-transformation.
	Starting AB second half-transformation.
	Starting BB second half-transformation.
	Two-electron integral transformation complete.
	(OO|OV)...
	Starting AA second half-transformation.
	Starting AB second half-transformation.
	Starting BB second half-transformation.
	Two-electron integral transformation complete.
	(OO|VV)...
	Starting AA second half-transformation.
	Starting AB second half-transformation.
	Starting BB second half-transformation.
	Two-electron integral transformation complete.
	(OV|OO)...
	Starting AA/AB first half-transformation.
	Sorting AA/AB half-transformed integrals.
	Starting BB first half-transformation.
	Sorting BB half-transformed integrals.
	First half integral transformation complete.
	Starting AA second half-transformation.
	Starting AB second half-transformation.
	Starting BB second half-transformation.
	Two-electron integral transformation complete.
	(OV|OV)...
	Starting AA second half-transformation.
	Starting AB second half-transformation.
	Starting BB second half-transformation.
	Two-electron integral transformation complete.
	(OV|VV)...
	Starting AA second half-transformation.
	Starting AB second half-transformation.
	Starting BB second half-transformation.
	Two-electron integral transformation complete.
	(VV|OO)...
	Starting AA/AB first half-transformation.
	Sorting AA/AB half-transformed integrals.
	Starting BB first half-transformation.
	Sorting BB half-transformed integrals.
	First half integral transformation complete.
	Starting AA second half-transformation.
	Starting AB second half-transformation.
	Starting BB second half-transformation.
	Two-electron integral transformation complete.
	(VV|OV)...
	Starting AA second half-transformation.
	Starting AB second half-transformation.
	Starting BB second half-transformation.
	Two-electron integral transformation complete.
	(VV|VV)...
	Starting AA second half-transformation.
	Starting AB second half-transformation.
	Starting BB second half-transformation.
	Two-electron integral transformation complete.
	Frozen core energy     =    -60.14076286761345

	Size of irrep 0 of <AB|CD> integrals:      4.052 (MW) /     32.417 (MB)
	Size of irrep 1 of <AB|CD> integrals:      2.538 (MW) /     20.301 (MB)
	Size of irrep 2 of <AB|CD> integrals:      3.338 (MW) /     26.703 (MB)
	Size of irrep 3 of <AB|CD> integrals:      3.338 (MW) /     26.703 (MB)
	Total:                                    13.266 (MW) /    106.125 (MB)

	Size of irrep 0 of <ab|cd> integrals:      4.289 (MW) /     34.312 (MB)
	Size of irrep 1 of <ab|cd> integrals:      2.729 (MW) /     21.833 (MB)
	Size of irrep 2 of <ab|cd> integrals:      3.572 (MW) /     28.577 (MB)
	Size of irrep 3 of <ab|cd> integrals:      3.572 (MW) /     28.577 (MB)
	Total:                                    14.162 (MW) /    113.299 (MB)

	Size of irrep 0 of <Ab|Cd> integrals:     17.682 (MW) /    141.456 (MB)
	Size of irrep 1 of <Ab|Cd> integrals:     10.524 (MW) /     84.188 (MB)
	Size of irrep 2 of <Ab|Cd> integrals:     13.816 (MW) /    110.529 (MB)
	Size of irrep 3 of <Ab|Cd> integrals:     13.816 (MW) /    110.529 (MB)
	Total:                                    55.838 (MW) /    446.702 (MB)

	Size of irrep 0 of <IA|BC> integrals:      0.630 (MW) /      5.043 (MB)
	Size of irrep 1 of <IA|BC> integrals:      0.287 (MW) /      2.294 (MB)
	Size of irrep 2 of <IA|BC> integrals:      0.442 (MW) /      3.537 (MB)
	Size of irrep 3 of <IA|BC> integrals:      0.442 (MW) /      3.537 (MB)
	Total:                                     1.801 (MW) /     14.411 (MB)

	Size of irrep 0 of <ia|bc> integrals:      0.401 (MW) /      3.207 (MB)
	Size of irrep 1 of <ia|bc> integrals:      0.106 (MW) /      0.846 (MB)
	Size of irrep 2 of <ia|bc> integrals:      0.227 (MW) /      1.814 (MB)
	Size of irrep 3 of <ia|bc> integrals:      0.227 (MW) /      1.814 (MB)
	Total:                                     0.960 (MW) /      7.682 (MB)

	Size of irrep 0 of <Ia|Bc> integrals:      0.648 (MW) /      5.181 (MB)
	Size of irrep 1 of <Ia|Bc> integrals:      0.298 (MW) /      2.388 (MB)
	Size of irrep 2 of <Ia|Bc> integrals:      0.457 (MW) /      3.658 (MB)
	Size of irrep 3 of <Ia|Bc> integrals:      0.457 (MW) /      3.658 (MB)
	Total:                                     1.860 (MW) /     14.883 (MB)

	Size of irrep 0 of <iA|bC> integrals:      0.395 (MW) /      3.162 (MB)
	Size of irrep 1 of <iA|bC> integrals:      0.104 (MW) /      0.830 (MB)
	Size of irrep 2 of <iA|bC> integrals:      0.216 (MW) /      1.725 (MB)
	Size of irrep 3 of <iA|bC> integrals:      0.216 (MW) /      1.725 (MB)
	Total:                                     0.930 (MW) /      7.442 (MB)

	Size of irrep 0 of tIjAb amplitudes:       0.017 (MW) /      0.135 (MB)
	Size of irrep 1 of tIjAb amplitudes:       0.000 (MW) /      0.000 (MB)
	Size of irrep 2 of tIjAb amplitudes:       0.007 (MW) /      0.059 (MB)
	Size of irrep 3 of tIjAb amplitudes:       0.007 (MW) /      0.059 (MB)
	Total:                                     0.032 (MW) /      0.254 (MB)

	Nuclear Rep. energy          =      4.13565988827164
	SCF energy                   =    -75.00955985852920
	One-electron energy          =    -29.66023747884111
	Two-electron (AA) energy     =      4.04944092889710
	Two-electron (BB) energy     =      0.56085339845468
	Two-electron (AB) energy     =      6.04548627230171
	Two-electron energy          =     10.65578059965349
	Reference energy             =    -75.00955985852943

*** tstop() called on l43 at Wed Jan 20 21:16:36 2021
Module time:
	user time   =       7.41 seconds =       0.12 minutes
	system time =       3.50 seconds =       0.06 minutes
	total time  =         11 seconds =       0.18 minutes
Total time:
	user time   =      20.91 seconds =       0.35 minutes
	system time =       7.56 seconds =       0.13 minutes
	total time  =         21 seconds =       0.35 minutes
            **************************
            *                        *
            *        CCENERGY        *
            *                        *
            **************************

    Nuclear Rep. energy (wfn)     =    4.135659888271642
    SCF energy          (wfn)     =  -75.009559858529201
    Reference energy    (file100) =  -75.009559858529428

    Input parameters:
    -----------------
    Wave function   =     CCSD_T
    Reference wfn   =     UHF
    Brueckner       =     No
    Memory (Mbytes) =     250000.0
    Maxiter         =     50
    R_Convergence   =     1.0e-07
    E_Convergence   =     1.0e-06
    Restart         =     Yes
    DIIS            =     Yes
    AO Basis        =     NONE
    ABCD            =     NEW
    Cache Level     =     2
    Cache Type      =     LRU
    Print Level     =     1
    Num. of threads =     48
    # Amps to Print =     10
    Print MP2 Amps? =     No
    Analyze T2 Amps =     No
    Print Pair Ener =     No
    Local CC        =     No
    SCS-MP2         =     False
    SCSN-MP2        =     False
    SCS-CCSD        =     False

MP2 correlation energy -0.1576374256667770
                Solving CC Amplitude Equations
                ------------------------------
  Iter             Energy              RMS        T1Diag      D1Diag    New D1Diag    D2Diag
  ----     ---------------------    ---------   ----------  ----------  ----------   --------
     0        -0.157637425666777    0.000e+00    0.000000    0.000000    0.000000    0.000000
     1        -0.169569610865955    3.033e-02    0.007051    0.000000    0.000000    0.000000
     2        -0.173909591692978    1.186e-02    0.010507    0.000000    0.000000    0.000000
     3        -0.174194801072709    3.973e-03    0.011739    0.000000    0.000000    0.000000
     4        -0.174191063201958    1.765e-03    0.011987    0.000000    0.000000    0.000000
     5        -0.174228486908382    7.845e-04    0.012007    0.000000    0.000000    0.000000
     6        -0.174236741412740    2.418e-04    0.011984    0.000000    0.000000    0.000000
     7        -0.174237662495166    7.764e-05    0.011979    0.000000    0.000000    0.000000
     8        -0.174237281548927    2.428e-05    0.011982    0.000000    0.000000    0.000000
     9        -0.174236883484193    7.702e-06    0.011983    0.000000    0.000000    0.000000
    10        -0.174236963769810    2.160e-06    0.011983    0.000000    0.000000    0.000000
    11        -0.174236973019540    6.683e-07    0.011983    0.000000    0.000000    0.000000
    12        -0.174236986977342    2.007e-07    0.011983    0.000000    0.000000    0.000000
    13        -0.174236987292511    6.618e-08    0.011983    0.000000    0.000000    0.000000

    Iterations converged.


    Largest TIA Amplitudes:
              1   0         0.0077144069
              3  92        -0.0058344170
              2  63        -0.0058344170
              1   1        -0.0056191189
              0   0        -0.0053476633
              1   4        -0.0050125114
              3  95        -0.0050053327
              2  66        -0.0050053327
              0   2        -0.0041758849
              0   6         0.0034328133

    Largest Tia Amplitudes:
              0   0        -0.0086112069
              0   4         0.0075571810
              0  12        -0.0062953163
              0   2        -0.0057610563
              0   1         0.0050981323
              0   6         0.0049912200
              0   9        -0.0043251186
              1   6        -0.0041581941
              0  10        -0.0040127012
              1  18        -0.0034789033

    Largest TIJAB Amplitudes:
      3   2  49  12        -0.0121339596
      3   2  95  66        -0.0100421046
      3   2 103  74        -0.0082807002
      2   1  66  10         0.0082117058
      3   1  95  10         0.0082117058
      3   2 103  66        -0.0077362310
      3   2  95  74        -0.0077362310
      2   1  66   0         0.0068415088
      3   1  95   0         0.0068415088
      2   1  66   4        -0.0068413022

    Largest Tijab Amplitudes:
      1   0  69  63         0.0076733393
      1   0  99  93         0.0076733393
      1   0  66  63         0.0070700655
      1   0  96  93         0.0070700655
      1   0  74  63        -0.0056745262
      1   0 104  93        -0.0056745262
      1   0  71  63         0.0041301292
      1   0 101  93         0.0041301292
      1   0   9   0         0.0040153715
      1   0  65  63         0.0037736755

    Largest TIjAb Amplitudes:
      2   0  12  63         0.0217662139
      2   0  49  93         0.0217662139
      3   0  49  63         0.0217662139
      3   0  12  93        -0.0217662139
      1   1   0   0        -0.0171834173
      1   1   0   4         0.0169541623
      1   1   4   4        -0.0155130438
      1   1  10  10        -0.0148896884
      2   0   0  63         0.0146568975
      3   0   0  93         0.0146568975

    SCF energy       (wfn)                    =  -75.009559858529201
    Reference energy (file100)                =  -75.009559858529428

    Opposite-spin MP2 correlation energy      =   -0.121317411812448
    Same-spin MP2 correlation energy          =   -0.036320013854329
    Singles MP2 correlation energy            =   -0.000000000000000
    MP2 correlation energy                    =   -0.157637425666777
      * MP2 total energy                      =  -75.167197284196206

    Opposite-spin CCSD correlation energy     =   -0.137512343221434
    Same-spin CCSD correlation energy         =   -0.036724644071076
    Singles CCSD correlation energy           =   -0.000000000000001
    CCSD correlation energy                   =   -0.174236987292511
      * CCSD total energy                     =  -75.183796845821945

            **************************
            *                        *
            *        CCTRIPLES       *
            *                        *
            **************************


    Wave function   =    CCSD_T
    Reference wfn   =      UHF

    Nuclear Rep. energy (wfn)                =    4.135659888271642
    SCF energy          (wfn)                =  -75.009559858529201
    Reference energy    (file100)            =  -75.009559858529428
    CCSD energy         (file100)            =   -0.174236987292511
    Total CCSD energy   (file100)            =  -75.183796845821945

    Number of ijk index combinations:
    Spin Case AAA:                                   4
    Spin Case BBB:                                   0
    Spin Case AAB:                                  12
    Spin Case ABB:                                   4
    AAA (T) energy                             =   -0.000186862743119
    BBB (T) energy                             =    0.000000000000000
    AAB (T) energy                             =   -0.002685184925031
    ABB (T) energy                             =   -0.000746854015637
    (T) energy                                   =   -0.003618901683787
      * CCSD(T) total energy                     =  -75.187415747505725


    Psi4 stopped on: Wednesday, 20 January 2021 09:16PM
    Psi4 wall time for execution: 0:00:31.53

*** Psi4 exiting successfully. Buy a developer a beer!
