
    -----------------------------------------------------------------------
          Psi4: An Open-Source Ab Initio Electronic Structure Package
                               Psi4 1.2a1.dev939 

                         Git: Rev {HEAD} fa1ec19 


    R. M. Parrish, L. A. Burns, D. G. A. Smith, A. C. Simmonett,
    A. E. DePrince III, E. G. Hohenstein, U. Bozkaya, A. Yu. Sokolov,
    R. Di Remigio, R. M. Richard, J. F. Gonthier, A. M. James,
    H. R. McAlexander, A. Kumar, M. Saitow, X. Wang, B. P. Pritchard,
    P. Verma, H. F. Schaefer III, K. Patkowski, R. A. King, E. F. Valeev,
    F. A. Evangelista, J. M. Turney, T. D. Crawford, and C. D. Sherrill,
    J. Chem. Theory Comput. 13(7) pp 3185--3197 (2017).
    (doi: 10.1021/acs.jctc.7b00174)

    -----------------------------------------------------------------------


    Psi4 started on: Friday, 26 April 2019 04:38PM

    Process ID:   5936
    PSIDATADIR: /home/grueneis/src/psi4/objdir/stage/usr/local/psi4/share/psi4
    Memory:     500.0 MiB
    Threads:    1
    
  ==> Input File <==

--------------------------------------------------------------------------
# Any line starting with the # character is a comment line

memory 32000 mb

molecule molecule {
0 1
S          0.0000000000        0.0000000000        0.0391770833
H          0.9606903443        0.0000000000       -0.8857306917
H         -0.9606903443        0.0000000000       -0.8857306917
}

set {
  reference rhf
  basis aug-cc-pv(D+d)z
  scf_type OUT_OF_CORE
  freeze_core true
}

energy('ccsd')
--------------------------------------------------------------------------

  Memory set to  29.802 GiB by Python driver.

*** tstart() called on cqc01
*** at Fri Apr 26 16:38:26 2019

   => Loading Basis Set <=

    Name: AUG-CC-PV(D+D)Z
    Role: ORBITAL
    Keyword: BASIS
    atoms 1   entry S          line   724 file /home/grueneis/src/psi4/objdir/stage/usr/local/psi4/share/psi4/basis/aug-cc-pv_dpd_z.gbs 
    atoms 2-3 entry H          line    56 file /home/grueneis/src/psi4/objdir/stage/usr/local/psi4/share/psi4/basis/aug-cc-pv_dpd_z.gbs 


         ---------------------------------------------------------
                                   SCF
            by Justin Turney, Rob Parrish, Andy Simmonett
                             and Daniel Smith
                              RHF Reference
                        1 Threads,  30517 MiB Core
         ---------------------------------------------------------

  ==> Geometry <==

    Molecular point group: c2v
    Full point group: C2v

    Geometry (in Angstrom), charge = 0, multiplicity = 1:

       Center              X                  Y                   Z               Mass       
    ------------   -----------------  -----------------  -----------------  -----------------
           S          0.000000000000    -0.000000000000     0.054851880552    31.972070999000
           H          0.960690344300     0.000000000000    -0.870055894448     1.007825032070
           H         -0.960690344300    -0.000000000000    -0.870055894448     1.007825032070

  Running in c2v symmetry.

  Rotational constants: A =     10.39288  B =      9.06180  C =      4.84090 [cm^-1]
  Rotational constants: A = 311570.60346  B = 271665.94972  C = 145126.57589 [MHz]
  Nuclear repulsion =   12.973516345540700

  Charge       = 0
  Multiplicity = 1
  Electrons    = 18
  Nalpha       = 9
  Nbeta        = 9

  ==> Algorithm <==

  SCF Algorithm Type is OUT_OF_CORE.
  DIIS enabled.
  MOM disabled.
  Fractional occupation disabled.
  Guess Type is SAD.
  Energy threshold   = 1.00e-08
  Density threshold  = 1.00e-08
  Integral threshold = 0.00e+00

  ==> Primary Basis <==

  Basis Set: AUG-CC-PV(D+D)Z
    Blend: AUG-CC-PV(D+D)Z
    Number of shells: 22
    Number of basis function: 50
    Number of Cartesian functions: 53
    Spherical Harmonics?: true
    Max angular momentum: 2

  ==> Pre-Iterations <==

   -------------------------------------------------------
    Irrep   Nso     Nmo     Nalpha   Nbeta   Ndocc  Nsocc
   -------------------------------------------------------
     A1        22      22       0       0       0       0
     A2         5       5       0       0       0       0
     B1        14      14       0       0       0       0
     B2         9       9       0       0       0       0
   -------------------------------------------------------
    Total      50      50       9       9       9       0
   -------------------------------------------------------

  ==> Integral Setup <==

  ==> DiskJK: Disk-Based J/K Matrices <==

    J tasked:                  Yes
    K tasked:                  Yes
    wK tasked:                  No
    Memory (MB):             22888
    Schwarz Cutoff:          1E-12

  Minimum eigenvalue in the overlap matrix is 9.3225735956E-04.
  Using Symmetric Orthogonalization.

  SCF Guess: Superposition of Atomic Densities via on-the-fly atomic UHF.

  ==> Iterations <==

                        Total Energy        Delta E     RMS |[F,P]|

   @RHF iter   0:  -398.70855998909065   -3.98709e+02   5.29383e-02 
   @RHF iter   1:  -398.68152009767471    2.70399e-02   5.51949e-03 
   @RHF iter   2:  -398.70004541023661   -1.85253e-02   1.84543e-03 DIIS
   @RHF iter   3:  -398.70188197017103   -1.83656e-03   5.42287e-04 DIIS
   @RHF iter   4:  -398.70221261068895   -3.30641e-04   1.39280e-04 DIIS
   @RHF iter   5:  -398.70224085238573   -2.82417e-05   2.41066e-05 DIIS
   @RHF iter   6:  -398.70224158535336   -7.32968e-07   6.54086e-06 DIIS
   @RHF iter   7:  -398.70224163778090   -5.24275e-08   1.33259e-06 DIIS
   @RHF iter   8:  -398.70224164006197   -2.28107e-09   2.04504e-07 DIIS
   @RHF iter   9:  -398.70224164011540   -5.34328e-11   2.69207e-08 DIIS
   @RHF iter  10:  -398.70224164011637   -9.66338e-13   4.43068e-09 DIIS

  ==> Post-Iterations <==

    Orbital Energies (a.u.)
    -----------------------

    Doubly Occupied:                                                      

       1A1   -91.968939     2A1    -8.970983     1B1    -6.653139  
       3A1    -6.652094     1B2    -6.649656     4A1    -0.984420  
       2B1    -0.591787     5A1    -0.503054     2B2    -0.384453  

    Virtual:                                                              

       6A1     0.034678     3B1     0.061985     7A1     0.112032  
       4B1     0.118659     3B2     0.124845     8A1     0.178270  
       5B1     0.210673     9A1     0.241007    10A1     0.274114  
       1A2     0.311086     4B2     0.315954     6B1     0.411500  
      11A1     0.462160     7B1     0.480252    12A1     0.533738  
       5B2     0.535459     2A2     0.539715    13A1     0.575490  
       8B1     0.603864    14A1     0.842827     6B2     0.868620  
       9B1     0.874343    15A1     0.888460     3A2     1.073471  
       7B2     1.096358    16A1     1.124660    10B1     1.154407  
      17A1     1.200432    11B1     1.357340    18A1     1.614956  
       4A2     1.833022    12B1     1.853371     8B2     1.887432  
      19A1     1.986551    20A1     2.371204    13B1     2.440872  
       5A2     5.091963     9B2     5.097474    21A1     5.113655  
      22A1     5.130292    14B1     5.233083  

    Final Occupation by Irrep:
             A1    A2    B1    B2 
    DOCC [     5,    0,    2,    2 ]

  Energy converged.

  @RHF Final Energy:  -398.70224164011637

   => Energetics <=

    Nuclear Repulsion Energy =             12.9735163455407001
    One-Electron Energy =                -576.6344645860048104
    Two-Electron Energy =                 164.9587066003477105
    Total Energy =                       -398.7022416401164264



Properties will be evaluated at   0.000000,   0.000000,   0.000000 Bohr

Properties computed using the SCF density matrix

  Nuclear Dipole Moment: (a.u.)
     X:     0.0000      Y:     0.0000      Z:    -1.6299

  Electronic Dipole Moment: (a.u.)
     X:     0.0000      Y:     0.0000      Z:     1.1953

  Dipole Moment: (a.u.)
     X:     0.0000      Y:     0.0000      Z:    -0.4346     Total:     0.4346

  Dipole Moment: (Debye)
     X:     0.0000      Y:     0.0000      Z:    -1.1046     Total:     1.1046


*** tstop() called on cqc01 at Fri Apr 26 16:38:27 2019
Module time:
	user time   =       0.78 seconds =       0.01 minutes
	system time =       0.78 seconds =       0.01 minutes
	total time  =          1 seconds =       0.02 minutes
Total time:
	user time   =       0.78 seconds =       0.01 minutes
	system time =       0.78 seconds =       0.01 minutes
	total time  =          1 seconds =       0.02 minutes

*** tstart() called on cqc01
*** at Fri Apr 26 16:38:27 2019


	Wfn Parameters:
	--------------------
	Wavefunction         = CCSD
	Number of irreps     = 4
	Number of MOs        = 50
	Number of active MOs = 45
	AO-Basis             = NONE
	Semicanonical        = false
	Reference            = RHF
	Print Level          = 1

	IRREP	# MOs	# FZDC	# DOCC	# SOCC	# VIRT	# FZVR
	-----	-----	------	------	------	------	------
	 A1	   22	    3	    2	    0	    17	    0
	 A2	   5	    0	    0	    0	    5	    0
	 B1	   14	    1	    1	    0	    12	    0
	 B2	   9	    1	    1	    0	    7	    0
	Transforming integrals...
	IWL integrals will be deleted.
	(OO|OO)...
	Presorting SO-basis two-electron integrals.
	Sorting File: SO Ints (nn|nn) nbuckets = 1
	Transforming the one-electron integrals and constructing Fock matrices
	Starting first half-transformation.
	Sorting half-transformed integrals.
	First half integral transformation complete.
	Starting second half-transformation.
	Two-electron integral transformation complete.
	(OO|OV)...
	Starting second half-transformation.
	Two-electron integral transformation complete.
	(OO|VV)...
	Starting second half-transformation.
	Two-electron integral transformation complete.
	(OV|OO)...
	Starting first half-transformation.
	Sorting half-transformed integrals.
	First half integral transformation complete.
	Starting second half-transformation.
	Two-electron integral transformation complete.
	(OV|OV)...
	Starting second half-transformation.
	Two-electron integral transformation complete.
	(OV|VV)...
	Starting second half-transformation.
	Two-electron integral transformation complete.
	(VV|OO)...
	Starting first half-transformation.
	Sorting half-transformed integrals.
	First half integral transformation complete.
	Starting second half-transformation.
	Two-electron integral transformation complete.
	(VV|OV)...
	Starting second half-transformation.
	Two-electron integral transformation complete.
	(VV|VV)...
	Starting second half-transformation.
	Two-electron integral transformation complete.
	Frozen core energy     =   -395.48191736975758

	Size of irrep 0 of <ab|cd> integrals:      0.257 (MW) /      2.056 (MB)
	Size of irrep 1 of <ab|cd> integrals:      0.114 (MW) /      0.914 (MB)
	Size of irrep 2 of <ab|cd> integrals:      0.228 (MW) /      1.828 (MB)
	Size of irrep 3 of <ab|cd> integrals:      0.128 (MW) /      1.025 (MB)
	Total:                                     0.728 (MW) /      5.824 (MB)

	Size of irrep 0 of <ia|bc> integrals:      0.027 (MW) /      0.215 (MB)
	Size of irrep 1 of <ia|bc> integrals:      0.010 (MW) /      0.078 (MB)
	Size of irrep 2 of <ia|bc> integrals:      0.022 (MW) /      0.176 (MB)
	Size of irrep 3 of <ia|bc> integrals:      0.013 (MW) /      0.103 (MB)
	Total:                                     0.072 (MW) /      0.572 (MB)

	Size of irrep 0 of tijab amplitudes:       0.003 (MW) /      0.024 (MB)
	Size of irrep 1 of tijab amplitudes:       0.001 (MW) /      0.005 (MB)
	Size of irrep 2 of tijab amplitudes:       0.002 (MW) /      0.015 (MB)
	Size of irrep 3 of tijab amplitudes:       0.001 (MW) /      0.011 (MB)
	Total:                                     0.007 (MW) /      0.056 (MB)

	Nuclear Rep. energy          =     12.97351634554070
	SCF energy                   =   -398.70224164011637
	One-electron energy          =    -27.46025275378034
	Two-electron energy          =     11.26641213788213
	Reference energy             =   -398.70224164011512

*** tstop() called on cqc01 at Fri Apr 26 16:38:28 2019
Module time:
	user time   =       0.06 seconds =       0.00 minutes
	system time =       0.08 seconds =       0.00 minutes
	total time  =          1 seconds =       0.02 minutes
Total time:
	user time   =       0.84 seconds =       0.01 minutes
	system time =       0.86 seconds =       0.01 minutes
	total time  =          2 seconds =       0.03 minutes

*** tstart() called on cqc01
*** at Fri Apr 26 16:38:28 2019

            **************************
            *                        *
            *        CCENERGY        *
            *                        *
            **************************

    Nuclear Rep. energy (wfn)     =   12.973516345540700
    SCF energy          (wfn)     = -398.702241640116370
    Reference energy    (file100) = -398.702241640115119

    Input parameters:
    -----------------
    Wave function   =     CCSD
    Reference wfn   =     RHF
    Brueckner       =     No
    Memory (Mbytes) =     32000.0
    Maxiter         =     50
    R_Convergence   =     1.0e-07
    E_Convergence   =     1.0e-06
    Restart         =     Yes
    DIIS            =     Yes
    AO Basis        =     NONE
    ABCD            =     NEW
    Cache Level     =     2
    Cache Type      =     LOW
    Print Level     =     1
    Num. of threads =     1
    # Amps to Print =     10
    Print MP2 Amps? =     No
    Analyze T2 Amps =     No
    Print Pair Ener =     No
    Local CC        =     No
    SCS-MP2         =     False
    SCSN-MP2        =     False
    SCS-CCSD        =     False

MP2 correlation energy -0.1565074531568229
                Solving CC Amplitude Equations
                ------------------------------
  Iter             Energy              RMS        T1Diag      D1Diag    New D1Diag    D2Diag
  ----     ---------------------    ---------   ----------  ----------  ----------   --------
     0        -0.156507453156819    0.000e+00    0.000000    0.000000    0.000000    0.126621
     1        -0.200103419413599    1.635e-01    0.012866    0.022470    0.022470    0.172277
     2        -0.180937812305463    2.935e-02    0.010406    0.019382    0.019382    0.156977
     3        -0.180594594436835    3.705e-03    0.010189    0.018960    0.018960    0.156022
     4        -0.180372536501474    1.114e-03    0.010067    0.018680    0.018680    0.155622
     5        -0.180279852679220    3.014e-04    0.010040    0.018621    0.018621    0.155461
     6        -0.180287112387132    6.404e-05    0.010035    0.018603    0.018603    0.155448
     7        -0.180287214037631    1.516e-05    0.010034    0.018599    0.018599    0.155446
     8        -0.180286361646540    4.422e-06    0.010034    0.018598    0.018598    0.155444
     9        -0.180286423647775    1.110e-06    0.010034    0.018597    0.018597    0.155444
    10        -0.180286431843197    3.384e-07    0.010034    0.018597    0.018597    0.155444
    11        -0.180286432476174    1.075e-07    0.010034    0.018597    0.018597    0.155444
    12        -0.180286432219249    3.451e-08    0.010034    0.018597    0.018597    0.155444
    12        -0.180286432219249    3.451e-08    0.010034    0.018597    0.018597    0.155444

    Iterations converged.


    CCSD corr. energy   =   -0.180286432219249
    PPL corr. energy    =    0.045756361030907
    OS PPL corr. energy =    0.038758514024403
    SS PPL corr. energy =    0.006997847006504
    Largest TIA Amplitudes:
              3  35        -0.0104716734
              2  23         0.0092741672
              1   5        -0.0087608213
              1   4        -0.0082686892
              2  24         0.0077131048
              1   3         0.0076674389
              2  25        -0.0072956803
              2  30        -0.0069322411
              1  11         0.0064294333
              1   7        -0.0049122390

    Largest TIjAb Amplitudes:
      1   1  24  24        -0.0465244562
      3   3   3   3        -0.0438233231
      2   2  24  24        -0.0433419921
      3   3  17  17        -0.0377525361
      3   3  35  35        -0.0376865137
      1   1   4   4        -0.0358835762
      1   1  23  24        -0.0357190096
      1   1  24  23        -0.0357190096
      3   3  37  37        -0.0350407967
      3   3   5   5        -0.0338659097

    SCF energy       (wfn)                    = -398.702241640116370
    Reference energy (file100)                = -398.702241640115119

    Opposite-spin MP2 correlation energy      =   -0.122292227748460
    Same-spin MP2 correlation energy          =   -0.034215225408359
    MP2 correlation energy                    =   -0.156507453156823
      * MP2 total energy                      = -398.858749093271967

    Opposite-spin CCSD correlation energy     =   -0.146432417115279
    Same-spin CCSD correlation energy         =   -0.033854015784414
    CCSD correlation energy                   =   -0.180286432219249
      * CCSD total energy                     = -398.882528072334367


*** tstop() called on cqc01 at Fri Apr 26 16:38:33 2019
Module time:
	user time   =       0.47 seconds =       0.01 minutes
	system time =       1.16 seconds =       0.02 minutes
	total time  =          5 seconds =       0.08 minutes
Total time:
	user time   =       1.31 seconds =       0.02 minutes
	system time =       2.02 seconds =       0.03 minutes
	total time  =          7 seconds =       0.12 minutes

*** Psi4 exiting successfully. Buy a developer a beer!
