
    -----------------------------------------------------------------------
          Psi4: An Open-Source Ab Initio Electronic Structure Package
                               Psi4 1.4a3.dev88 

                         Git: Rev {master} 262e345 


    D. G. A. Smith, L. A. Burns, A. C. Simmonett, R. M. Parrish,
    M. C. Schieber, R. Galvelis, P. Kraus, H. Kruse, R. Di Remigio,
    A. Alenaizan, A. M. James, S. Lehtola, J. P. Misiewicz, M. Scheurer,
    R. A. Shaw, J. B. Schriber, Y. Xie, Z. L. Glick, D. A. Sirianni,
    J. S. O'Brien, J. M. Waldrop, A. Kumar, E. G. Hohenstein,
    B. P. Pritchard, B. R. Brooks, H. F. Schaefer III, A. Yu. Sokolov,
    K. Patkowski, A. E. DePrince III, U. Bozkaya, R. A. King,
    F. A. Evangelista, J. M. Turney, T. D. Crawford, C. D. Sherrill,
    J. Chem. Phys. 152(18) 184108 (2020). https://doi.org/10.1063/5.0006002

                            Additional Code Authors
    E. T. Seidl, C. L. Janssen, E. F. Valeev, M. L. Leininger,
    J. F. Gonthier, R. M. Richard, H. R. McAlexander, M. Saitow, X. Wang,
    P. Verma, and M. H. Lechner

             Previous Authors, Complete List of Code Contributors,
                       and Citations for Specific Modules
    https://github.com/psi4/psi4/blob/master/codemeta.json
    https://github.com/psi4/psi4/graphs/contributors
    http://psicode.org/psi4manual/master/introduction.html#citing-psifour

    -----------------------------------------------------------------------


    Psi4 started on: Friday, 22 January 2021 08:34AM

    Process ID: 73056
    Host:       n412-045.vsc4.prov
    PSIDATADIR: /home/fs71337/gallo4/psi4/psi4/build/stage/share/psi4
    Memory:     500.0 MiB
    Threads:    48
    
  ==> Input File <==

--------------------------------------------------------------------------
# Any line starting with the # character is a comment line
memory 250000 mb
molecule molecule{
0 1
S          0.0000000000        0.0000000000       -0.0547163639
H          0.0000000000        0.9606869869        0.8701939739
H          0.0000000000       -0.9606869869        0.8701939739
}

set {
  reference rhf
  basis aug-cc-pV(5+d)Z
  scf_type OUT_OF_CORE
  freeze_core true
}

energy('ccsd(t)')
--------------------------------------------------------------------------

  Memory set to 232.831 GiB by Python driver.

Scratch directory: /binfl/lv71337/airmler/temp/

*** tstart() called on n412-045.vsc4.prov
*** at Fri Jan 22 08:34:55 2021

   => Loading Basis Set <=

    Name: AUG-CC-PV(5+D)Z
    Role: ORBITAL
    Keyword: BASIS
    atoms 1   entry S          line  1451 file /home/fs71337/gallo4/psi4/psi4/build/stage/share/psi4/basis/aug-cc-pv_5pd_z.gbs 
    atoms 2-3 entry H          line    69 file /home/fs71337/gallo4/psi4/psi4/build/stage/share/psi4/basis/aug-cc-pv_5pd_z.gbs 


         ---------------------------------------------------------
                                   SCF
               by Justin Turney, Rob Parrish, Andy Simmonett
                          and Daniel G. A. Smith
                              RHF Reference
                       48 Threads, 238418 MiB Core
         ---------------------------------------------------------

  ==> Geometry <==

    Molecular point group: c2v
    Full point group: C2v

    Geometry (in Angstrom), charge = 0, multiplicity = 1:

       Center              X                  Y                   Z               Mass       
    ------------   -----------------  -----------------  -----------------  -----------------
         S           -0.000000000000     0.000000000000    -0.054852032265    31.972071174400
         H           -0.000000000000     0.960686986900     0.870058305535     1.007825032230
         H            0.000000000000    -0.960686986900     0.870058305535     1.007825032230

  Running in c2v symmetry.

  Rotational constants: A =     10.39282  B =      9.06186  C =      4.84091 [cm^-1]
  Rotational constants: A = 311568.87905  B = 271667.85058  C = 145126.74422 [MHz]
  Nuclear repulsion =   12.973523464403868

  Charge       = 0
  Multiplicity = 1
  Electrons    = 18
  Nalpha       = 9
  Nbeta        = 9

  ==> Algorithm <==

  SCF Algorithm Type is OUT_OF_CORE.
  DIIS enabled.
  MOM disabled.
  Fractional occupation disabled.
  Guess Type is SAD.
  Energy threshold   = 1.00e-08
  Density threshold  = 1.00e-08
  Integral threshold = 1.00e-12

  ==> Primary Basis <==

  Basis Set: AUG-CC-PV(5+D)Z
    Blend: AUG-CC-PV(5+D)Z
    Number of shells: 70
    Number of basis function: 296
    Number of Cartesian functions: 402
    Spherical Harmonics?: true
    Max angular momentum: 5

  ==> Integral Setup <==

  ==> DiskJK: Disk-Based J/K Matrices <==

    J tasked:                  Yes
    K tasked:                  Yes
    wK tasked:                  No
    Memory [MiB]:           178813
    Schwarz Cutoff:          1E-12

  Minimum eigenvalue in the overlap matrix is 1.6294164009E-05.
  Reciprocal condition number of the overlap matrix is 2.1511221173E-06.
    Using symmetric orthogonalization.

  ==> Pre-Iterations <==

  SCF Guess: Superposition of Atomic Densities via on-the-fly atomic UHF (no occupation information).


 WARNING: Atomic UHF is not converging! Try casting from a smaller basis or call Rob at CCMST.

 WARNING: Atomic UHF is not converging! Try casting from a smaller basis or call Rob at CCMST.
   -------------------------
    Irrep   Nso     Nmo    
   -------------------------
     A1       100     100 
     A2        50      50 
     B1        63      63 
     B2        83      83 
   -------------------------
    Total     296     296
   -------------------------

  ==> Iterations <==

                        Total Energy        Delta E     RMS |[F,P]|

   @RHF iter SAD:    16.75972228474937    1.67597e+01   0.00000e+00 
    Occupation by irrep:
             A1    A2    B1    B2 
    DOCC [     5,    0,    1,    3 ]

   @RHF iter   1:  -387.19552256678509   -4.03955e+02   5.61538e-02 DIIS
    Occupation by irrep:
             A1    A2    B1    B2 
    DOCC [     5,    0,    2,    2 ]

   @RHF iter   2:  -391.74005279334398   -4.54453e+00   2.61079e-02 DIIS
   @RHF iter   3:  -397.98015772272123   -6.24010e+00   8.53374e-03 DIIS
   @RHF iter   4:  -398.71328446556549   -7.33127e-01   8.77438e-04 DIIS
   @RHF iter   5:  -398.71966972782656   -6.38526e-03   1.94015e-04 DIIS
   @RHF iter   6:  -398.72001273095697   -3.43003e-04   4.41192e-05 DIIS
   @RHF iter   7:  -398.72005358889106   -4.08579e-05   9.23072e-06 DIIS
   @RHF iter   8:  -398.72005680041860   -3.21153e-06   1.88119e-06 DIIS
   @RHF iter   9:  -398.72005688671334   -8.62947e-08   2.51166e-07 DIIS
   @RHF iter  10:  -398.72005688896053   -2.24719e-09   7.21477e-08 DIIS
   @RHF iter  11:  -398.72005688913015   -1.69621e-10   1.53733e-08 DIIS
   @RHF iter  12:  -398.72005688913396   -3.80851e-12   2.34944e-09 DIIS
  Energy and wave function converged.


  ==> Post-Iterations <==

    Orbital Energies [Eh]
    ---------------------

    Doubly Occupied:                                                      

       1A1   -91.964309     2A1    -8.966964     1B2    -6.648439  
       3A1    -6.647791     1B1    -6.646829     4A1    -0.982219  
       2B2    -0.591142     5A1    -0.502460     2B1    -0.385291  

    Virtual:                                                              

       6A1     0.022249     3B2     0.038174     7A1     0.066190  
       3B1     0.074527     4B2     0.088067     8A1     0.105220  
       5B2     0.135717     9A1     0.159389    10A1     0.168331  
       1A2     0.175084     4B1     0.176643     6B2     0.206847  
      11A1     0.220964     7B2     0.229041    12A1     0.238947  
       5B1     0.238976     2A2     0.243879     8B2     0.271909  
      13A1     0.280820     9B2     0.315870    14A1     0.335337  
       6B1     0.372485    15A1     0.391135    16A1     0.408331  
       3A2     0.432807     7B1     0.438826     8B1     0.454701  
      10B2     0.519496    17A1     0.522533    11B2     0.535337  
      12B2     0.545727    18A1     0.551399     9B1     0.561341  
       4A2     0.569718    13B2     0.573959    19A1     0.577531  
      14B2     0.597771     5A2     0.600887    10B1     0.601515  
      20A1     0.610573     6A2     0.652846    21A1     0.657426  
      11B1     0.660344    22A1     0.674403    15B2     0.696997  
      16B2     0.765548    23A1     0.773766    24A1     0.978689  
      17B2     1.016847    12B1     1.027498     7A2     1.054945  
      25A1     1.057865    18B2     1.104163    13B1     1.111517  
      26A1     1.127143     8A2     1.155034    14B1     1.160564  
      27A1     1.169675    28A1     1.184387    19B2     1.202728  
      29A1     1.207046    20B2     1.208657    15B1     1.209686  
       9A2     1.235134    30A1     1.236894    16B1     1.245439  
      10A2     1.249946    17B1     1.262577    21B2     1.262582  
      31A1     1.299649    22B2     1.318916    18B1     1.345758  
      32A1     1.368708    23B2     1.371188    11A2     1.374512  
      12A2     1.390085    19B1     1.400853    33A1     1.430393  
      34A1     1.444262    24B2     1.475714    20B1     1.485731  
      25B2     1.491703    35A1     1.493461    26B2     1.511894  
      36A1     1.591862    13A2     1.622676    14A2     1.722953  
      37A1     1.739214    27B2     1.741079    28B2     1.794354  
      38A1     1.839762    21B1     1.849146    29B2     1.959831  
      30B2     2.246918    15A2     2.269895    39A1     2.273331  
      22B1     2.313122    40A1     2.339394    16A2     2.341995  
      23B1     2.352262    41A1     2.410867    42A1     2.470036  
      17A2     2.480790    24B1     2.482518    31B2     2.502836  
      43A1     2.503236    32B2     2.566656    25B1     2.597472  
      33B2     2.645031    44A1     2.675948    26B1     2.715576  
      34B2     2.726811    45A1     2.744743    46A1     2.772961  
      18A2     2.785122    47A1     2.818215    19A2     2.822613  
      35B2     2.824053    27B1     2.841661    28B1     2.863747  
      36B2     2.872262    20A2     2.925699    48A1     2.951033  
      37B2     2.981699    49A1     2.982848    29B1     3.022385  
      30B1     3.041061    50A1     3.090142    31B1     3.109551  
      38B2     3.112300    51A1     3.160712    21A2     3.175611  
      52A1     3.206596    39B2     3.240508    22A2     3.259243  
      32B1     3.278971    53A1     3.287158    40B2     3.321974  
      23A2     3.355228    41B2     3.389740    54A1     3.446369  
      55A1     3.530404    33B1     3.589379    42B2     3.597693  
      24A2     3.609371    43B2     3.623601    34B1     3.628344  
      35B1     3.697315    56A1     3.709061    25A2     3.769116  
      44B2     3.774719    57A1     3.803434    45B2     3.847135  
      26A2     3.934798    46B2     3.980341    36B1     4.033551  
      58A1     4.048312    47B2     4.266535    59A1     4.271393  
      27A2     4.275484    48B2     4.378757    60A1     4.388663  
      37B1     4.416090    28A2     4.562080    61A1     4.687959  
      49B2     4.745200    38B1     4.779914    62A1     5.131660  
      50B2     5.139467    29A2     5.143208    39B1     5.229111  
      40B1     5.274644    30A2     5.342552    51B2     5.355419  
      63A1     5.391830    52B2     5.425409    53B2     5.458164  
      64A1     5.475827    65A1     5.516305    41B1     5.532988  
      31A2     5.610939    42B1     5.618970    66A1     5.662439  
      54B2     5.780568    67A1     5.849727    68A1     5.954233  
      43B1     5.988278    32A2     5.996859    55B2     5.998564  
      33A2     6.070080    44B1     6.091892    69A1     6.106904  
      56B2     6.147200    34A2     6.195878    45B1     6.195957  
      70A1     6.196391    57B2     6.204782    71A1     6.267999  
      72A1     6.299925    35A2     6.359755    46B1     6.369763  
      73A1     6.415765    58B2     6.469582    47B1     6.486499  
      74A1     6.487931    59B2     6.536539    60B2     6.843018  
      75A1     6.852588    48B1     6.857579    61B2     6.871379  
      49B1     6.918985    36A2     7.005758    76A1     7.034889  
      37A2     7.165847    77A1     7.205286    50B1     7.235654  
      38A2     7.245000    62B2     7.295572    63B2     7.363937  
      78A1     7.384139    64B2     8.001306    79A1     8.031440  
      51B1     8.128771    39A2     8.276728    80A1     8.297385  
      65B2     8.497083    66B2     9.669879    81A1     9.932874  
      82A1    13.021767    52B1    13.034372    40A2    13.050239  
      67B2    13.140149    83A1    13.155332    53B1    13.168661  
      41A2    13.169324    68B2    13.220638    69B2    13.249718  
      42A2    13.293177    84A1    13.308503    54B1    13.312945  
      55B1    13.365332    70B2    13.425270    85A1    13.439451  
      43A2    13.533629    86A1    13.556703    44A2    13.589879  
      56B1    13.599072    71B2    13.743015    72B2    13.820184  
      87A1    13.875905    45A2    13.909424    73B2    14.001754  
      57B1    14.003318    88A1    14.058033    74B2    14.061536  
      89A1    14.241398    58B1    14.302567    46A2    14.324586  
      75B2    14.419309    90A1    14.436123    59B1    14.438581  
      91A1    14.506503    76B2    14.515049    47A2    14.516209  
      92A1    14.799452    77B2    14.831977    60B1    15.202132  
      48A2    15.218522    93A1    15.259805    78B2    15.698931  
      94A1    16.644453    79B2    16.709721    95A1    16.750402  
      49A2    16.838612    61B1    16.858898    96A1    17.263732  
      62B1    17.617870    80B2    17.762432    50A2    17.879436  
      81B2    18.038457    97A1    18.076883    98A1    19.080598  
      82B2    19.188230    63B1    25.948494    99A1    28.409411  
      83B2    29.062078   100A1    75.743759  

    Final Occupation by Irrep:
             A1    A2    B1    B2 
    DOCC [     5,    0,    2,    2 ]

  @RHF Final Energy:  -398.72005688913396

   => Energetics <=

    Nuclear Repulsion Energy =             12.9735234644038684
    One-Electron Energy =                -576.7162722489858879
    Two-Electron Energy =                 165.0226918954480197
    Total Energy =                       -398.7200568891339572

Computation Completed


Properties will be evaluated at   0.000000,   0.000000,   0.000000 [a0]

Properties computed using the SCF density matrix

  Nuclear Dipole Moment: [e a0]
     X:     0.0000      Y:     0.0000      Z:     1.6299

  Electronic Dipole Moment: [e a0]
     X:     0.0000      Y:     0.0000      Z:    -1.2096

  Dipole Moment: [e a0]
     X:     0.0000      Y:     0.0000      Z:     0.4202     Total:     0.4202

  Dipole Moment: [D]
     X:     0.0000      Y:     0.0000      Z:     1.0681     Total:     1.0681


*** tstop() called on n412-045.vsc4.prov at Fri Jan 22 08:39:06 2021
Module time:
	user time   =     214.62 seconds =       3.58 minutes
	system time =      25.79 seconds =       0.43 minutes
	total time  =        251 seconds =       4.18 minutes
Total time:
	user time   =     214.62 seconds =       3.58 minutes
	system time =      25.79 seconds =       0.43 minutes
	total time  =        251 seconds =       4.18 minutes

*** tstart() called on n412-045.vsc4.prov
*** at Fri Jan 22 08:39:06 2021


	Wfn Parameters:
	--------------------
	Wavefunction         = CCSD_T
	Number of irreps     = 4
	Number of MOs        = 296
	Number of active MOs = 291
	AO-Basis             = NONE
	Semicanonical        = false
	Reference            = RHF
	Print Level          = 1

	IRREP	# MOs	# FZDC	# DOCC	# SOCC	# VIRT	# FZVR
	-----	-----	------	------	------	------	------
	 A1	   100	    3	    2	    0	    95	    0
	 A2	   50	    0	    0	    0	    50	    0
	 B1	   63	    1	    1	    0	    61	    0
	 B2	   83	    1	    1	    0	    81	    0
	Transforming integrals...
	IWL integrals will be deleted.
	(OO|OO)...
	Presorting SO-basis two-electron integrals.
	Sorting File: SO Ints (nn|nn) nbuckets = 1
	Constructing frozen core operators
	Starting first half-transformation.
	Sorting half-transformed integrals.
	First half integral transformation complete.
	Starting second half-transformation.
	Two-electron integral transformation complete.
	(OO|OV)...
	Starting second half-transformation.
	Two-electron integral transformation complete.
	(OO|VV)...
	Starting second half-transformation.
	Two-electron integral transformation complete.
	(OV|OO)...
	Starting first half-transformation.
	Sorting half-transformed integrals.
	First half integral transformation complete.
	Starting second half-transformation.
	Two-electron integral transformation complete.
	(OV|OV)...
	Starting second half-transformation.
	Two-electron integral transformation complete.
	(OV|VV)...
	Starting second half-transformation.
	Two-electron integral transformation complete.
	(VV|OO)...
	Starting first half-transformation.
	Sorting half-transformed integrals.
	First half integral transformation complete.
	Starting second half-transformation.
	Two-electron integral transformation complete.
	(VV|OV)...
	Starting second half-transformation.
	Two-electron integral transformation complete.
	(VV|VV)...
	Starting second half-transformation.
	Two-electron integral transformation complete.
	Frozen core energy     =   -395.48989306472851

	Size of irrep 0 of <ab|cd> integrals:    475.545 (MW) /   3804.362 (MB)
	Size of irrep 1 of <ab|cd> integrals:    375.662 (MW) /   3005.295 (MB)
	Size of irrep 2 of <ab|cd> integrals:    387.696 (MW) /   3101.569 (MB)
	Size of irrep 3 of <ab|cd> integrals:    461.820 (MW) /   3694.561 (MB)
	Total:                                  1700.723 (MW) /  13605.787 (MB)

	Size of irrep 0 of <ia|bc> integrals:      7.240 (MW) /     57.919 (MB)
	Size of irrep 1 of <ia|bc> integrals:      4.690 (MW) /     37.524 (MB)
	Size of irrep 2 of <ia|bc> integrals:      5.257 (MW) /     42.058 (MB)
	Size of irrep 3 of <ia|bc> integrals:      6.597 (MW) /     52.779 (MB)
	Total:                                    23.785 (MW) /    190.280 (MB)

	Size of irrep 0 of tijab amplitudes:       0.131 (MW) /      1.047 (MB)
	Size of irrep 1 of tijab amplitudes:       0.039 (MW) /      0.310 (MB)
	Size of irrep 2 of tijab amplitudes:       0.079 (MW) /      0.630 (MB)
	Size of irrep 3 of tijab amplitudes:       0.086 (MW) /      0.688 (MB)
	Total:                                     0.334 (MW) /      2.675 (MB)

	Nuclear Rep. energy          =     12.97352346440387
	SCF energy                   =   -398.72005688913396
	One-electron energy          =    -27.48515164849385
	Two-electron energy          =     11.28146435968474
	Reference energy             =   -398.72005688913373

*** tstop() called on n412-045.vsc4.prov at Fri Jan 22 08:43:44 2021
Module time:
	user time   =      97.22 seconds =       1.62 minutes
	system time =      56.30 seconds =       0.94 minutes
	total time  =        278 seconds =       4.63 minutes
Total time:
	user time   =     311.84 seconds =       5.20 minutes
	system time =      82.09 seconds =       1.37 minutes
	total time  =        529 seconds =       8.82 minutes
            **************************
            *                        *
            *        CCENERGY        *
            *                        *
            **************************

    Nuclear Rep. energy (wfn)     =   12.973523464403868
    SCF energy          (wfn)     = -398.720056889133957
    Reference energy    (file100) = -398.720056889133730

    Input parameters:
    -----------------
    Wave function   =     CCSD_T
    Reference wfn   =     RHF
    Brueckner       =     No
    Memory (Mbytes) =     250000.0
    Maxiter         =     50
    R_Convergence   =     1.0e-07
    E_Convergence   =     1.0e-06
    Restart         =     Yes
    DIIS            =     Yes
    AO Basis        =     NONE
    ABCD            =     NEW
    Cache Level     =     2
    Cache Type      =     LOW
    Print Level     =     1
    Num. of threads =     48
    # Amps to Print =     10
    Print MP2 Amps? =     No
    Analyze T2 Amps =     No
    Print Pair Ener =     No
    Local CC        =     No
    SCS-MP2         =     False
    SCSN-MP2        =     False
    SCS-CCSD        =     False

MP2 correlation energy -0.2144765789595625
                Solving CC Amplitude Equations
                ------------------------------
  Iter             Energy              RMS        T1Diag      D1Diag    New D1Diag    D2Diag
  ----     ---------------------    ---------   ----------  ----------  ----------   --------
     0        -0.214476578959562    0.000e+00    0.000000    0.000000    0.000000    0.137736
     1        -0.227032297789220    4.317e-02    0.007253    0.012188    0.012188    0.150067
     2        -0.233391713761534    1.467e-02    0.009197    0.015674    0.015674    0.157344
     3        -0.233722140062345    3.886e-03    0.010156    0.017451    0.017451    0.158695
     4        -0.233694023953777    1.190e-03    0.010476    0.018088    0.018088    0.159104
     5        -0.233699562948004    3.065e-04    0.010550    0.018255    0.018255    0.159149
     6        -0.233696838726477    9.760e-05    0.010578    0.018328    0.018328    0.159144
     7        -0.233696107776543    2.655e-05    0.010584    0.018348    0.018348    0.159143
     8        -0.233696473319725    8.187e-06    0.010586    0.018355    0.018355    0.159143
     9        -0.233696426346121    2.376e-06    0.010586    0.018356    0.018356    0.159143
    10        -0.233696387291089    7.673e-07    0.010586    0.018357    0.018357    0.159142
    11        -0.233696400279785    2.396e-07    0.010586    0.018357    0.018357    0.159143
    12        -0.233696405204457    7.571e-08    0.010586    0.018357    0.018357    0.159143

    Iterations converged.


    Largest TIA Amplitudes:
              3 208        -0.0112487609
              1   9         0.0095551256
              1   3        -0.0085494070
              2 149        -0.0084279225
              3 211         0.0083737275
              2 146         0.0073666794
              3 209         0.0062344447
              1  12        -0.0054338474
              3 207        -0.0049180985
              0   7        -0.0046731406

    Largest TIjAb Amplitudes:
      1   1  10  10        -0.0247205058
      1   1 208 208        -0.0232197258
      2   2  97  97        -0.0230075376
      2   2 149 149        -0.0224326230
      3   3 208 208        -0.0203456390
      1   1 208 211         0.0202077731
      1   1 211 208         0.0202077731
      1   1 211 211        -0.0182314640
      2   2  10  10        -0.0180184252
      3   3 208 211         0.0175855941

    SCF energy       (wfn)                    = -398.720056889133957
    Reference energy (file100)                = -398.720056889133730

    Opposite-spin MP2 correlation energy      =   -0.172915882598544
    Same-spin MP2 correlation energy          =   -0.041560696361019
    Singles MP2 correlation energy            =   -0.000000000000000
    MP2 correlation energy                    =   -0.214476578959562
      * MP2 total energy                      = -398.934533468093321

    Opposite-spin CCSD correlation energy     =   -0.192909876749897
    Same-spin CCSD correlation energy         =   -0.040786528454546
    Singles CCSD correlation energy           =    0.000000000000000
    CCSD correlation energy                   =   -0.233696405204457
      * CCSD total energy                     = -398.953753294338185

            **************************
            *                        *
            *        CCTRIPLES       *
            *                        *
            **************************


    Wave function   =    CCSD_T
    Reference wfn   =      RHF

    Nuclear Rep. energy (wfn)                =   12.973523464403868
    SCF energy          (wfn)                = -398.720056889133957
    Reference energy    (file100)            = -398.720056889133730
    CCSD energy         (file100)            =   -0.233696405204457
    Total CCSD energy   (file100)            = -398.953753294338185

    Number of ijk index combinations:               20
    Memory available in words        :     31250000000
    ~Words needed per explicit thread:         3429500
    Number of threads for explicit ijk threading:   48

    (T) energy                                =   -0.009933616587609
      * CCSD(T) total energy                  = -398.963686910925787


    Psi4 stopped on: Friday, 22 January 2021 08:46AM
    Psi4 wall time for execution: 0:11:07.31

*** Psi4 exiting successfully. Buy a developer a beer!
