
    -----------------------------------------------------------------------
          Psi4: An Open-Source Ab Initio Electronic Structure Package
                               Psi4 1.4a3.dev88 

                         Git: Rev {master} 262e345 


    D. G. A. Smith, L. A. Burns, A. C. Simmonett, R. M. Parrish,
    M. C. Schieber, R. Galvelis, P. Kraus, H. Kruse, R. Di Remigio,
    A. Alenaizan, A. M. James, S. Lehtola, J. P. Misiewicz, M. Scheurer,
    R. A. Shaw, J. B. Schriber, Y. Xie, Z. L. Glick, D. A. Sirianni,
    J. S. O'Brien, J. M. Waldrop, A. Kumar, E. G. Hohenstein,
    B. P. Pritchard, B. R. Brooks, H. F. Schaefer III, A. Yu. Sokolov,
    K. Patkowski, A. E. DePrince III, U. Bozkaya, R. A. King,
    F. A. Evangelista, J. M. Turney, T. D. Crawford, C. D. Sherrill,
    J. Chem. Phys. 152(18) 184108 (2020). https://doi.org/10.1063/5.0006002

                            Additional Code Authors
    E. T. Seidl, C. L. Janssen, E. F. Valeev, M. L. Leininger,
    J. F. Gonthier, R. M. Richard, H. R. McAlexander, M. Saitow, X. Wang,
    P. Verma, and M. H. Lechner

             Previous Authors, Complete List of Code Contributors,
                       and Citations for Specific Modules
    https://github.com/psi4/psi4/blob/master/codemeta.json
    https://github.com/psi4/psi4/graphs/contributors
    http://psicode.org/psi4manual/master/introduction.html#citing-psifour

    -----------------------------------------------------------------------


    Psi4 started on: Saturday, 23 January 2021 08:28AM

    Process ID: 438724
    Host:       n412-047.vsc4.prov
    PSIDATADIR: /home/fs71337/gallo4/psi4/eri-6/psi4/build/stage/share/psi4
    Memory:     500.0 MiB
    Threads:    48
    
  ==> Input File <==

--------------------------------------------------------------------------
# Any line starting with the # character is a comment line
memory 250000 mb
molecule molecule{
1 2
N          0.0000000000        0.0000000000        0.5946924389
N          0.0000000000        0.0000000000       -0.5946924389
}

set {
  reference uhf
  basis aug-cc-pV(6+d)Z
  scf_type OUT_OF_CORE
  freeze_core true
}

energy('ccsd(t)')
--------------------------------------------------------------------------

  Memory set to 232.831 GiB by Python driver.

Scratch directory: /binfl/lv71337/airmler/temp/

*** tstart() called on n412-047.vsc4.prov
*** at Sat Jan 23 08:28:28 2021

   => Loading Basis Set <=

    Name: AUG-CC-PV(6+D)Z
    Role: ORBITAL
    Keyword: BASIS
    atoms 1-2 entry N          line   363 file /home/fs71337/gallo4/psi4/eri-6/psi4/build/stage/share/psi4/basis/aug-cc-pv_6pd_z.gbs 


         ---------------------------------------------------------
                                   SCF
               by Justin Turney, Rob Parrish, Andy Simmonett
                          and Daniel G. A. Smith
                              UHF Reference
                       48 Threads, 238418 MiB Core
         ---------------------------------------------------------

  ==> Geometry <==

    Molecular point group: d2h
    Full point group: D_inf_h

    Geometry (in Angstrom), charge = 1, multiplicity = 2:

       Center              X                  Y                   Z               Mass       
    ------------   -----------------  -----------------  -----------------  -----------------
         N            0.000000000000     0.000000000000     0.594692438900    14.003074004430
         N            0.000000000000     0.000000000000    -0.594692438900    14.003074004430

  Running in d2h symmetry.

  Rotational constants: A = ************  B =      1.70200  C =      1.70200 [cm^-1]
  Rotational constants: A = ************  B =  51024.52684  C =  51024.52684 [MHz]
  Nuclear repulsion =   21.800918951308699

  Charge       = 1
  Multiplicity = 2
  Electrons    = 13
  Nalpha       = 7
  Nbeta        = 6

  ==> Algorithm <==

  SCF Algorithm Type is OUT_OF_CORE.
  DIIS enabled.
  MOM disabled.
  Fractional occupation disabled.
  Guess Type is SAD.
  Energy threshold   = 1.00e-08
  Density threshold  = 1.00e-08
  Integral threshold = 1.00e-12

  ==> Primary Basis <==

  Basis Set: AUG-CC-PV(6+D)Z
    Blend: AUG-CC-PV(6+D)Z
    Number of shells: 70
    Number of basis function: 378
    Number of Cartesian functions: 588
    Spherical Harmonics?: true
    Max angular momentum: 6

  ==> Integral Setup <==

  ==> DiskJK: Disk-Based J/K Matrices <==

    J tasked:                  Yes
    K tasked:                  Yes
    wK tasked:                  No
    Memory [MiB]:           178813
    Schwarz Cutoff:          1E-12

  Minimum eigenvalue in the overlap matrix is 3.3176197402E-06.
  Reciprocal condition number of the overlap matrix is 4.5457393992E-07.
    Using symmetric orthogonalization.

  ==> Pre-Iterations <==

  SCF Guess: Superposition of Atomic Densities via on-the-fly atomic UHF (no occupation information).


 WARNING: Atomic UHF is not converging! Try casting from a smaller basis or call Rob at CCMST.
   -------------------------
    Irrep   Nso     Nmo    
   -------------------------
     Ag        66      66 
     B1g       31      31 
     B2g       46      46 
     B3g       46      46 
     Au        31      31 
     B1u       66      66 
     B2u       46      46 
     B3u       46      46 
   -------------------------
    Total     378     378
   -------------------------

  ==> Iterations <==

                        Total Energy        Delta E     RMS |[F,P]|

   @UHF iter SAD:    98.71922489143553    9.87192e+01   0.00000e+00 
    Occupation by irrep:
             Ag   B1g   B2g   B3g    Au   B1u   B2u   B3u 
    DOCC [     2,    0,    0,    0,    0,    2,    1,    1 ]
    SOCC [     1,    0,    0,    0,    0,    0,    0,    0 ]

   @UHF iter   1:  -100.50653888751046   -1.99226e+02   4.55810e-02 DIIS
   @UHF iter   2:  -105.83290130479411   -5.32636e+00   1.55309e-02 DIIS
   @UHF iter   3:  -108.27281359216757   -2.43991e+00   3.75832e-03 DIIS
   @UHF iter   4:  -108.38545455995475   -1.12641e-01   7.01496e-04 DIIS
   @UHF iter   5:  -108.39153210176038   -6.07754e-03   1.67268e-04 DIIS
   @UHF iter   6:  -108.39193058234787   -3.98481e-04   3.39495e-05 DIIS
   @UHF iter   7:  -108.39194830073959   -1.77184e-05   7.34419e-06 DIIS
   @UHF iter   8:  -108.39194904391799   -7.43178e-07   1.36637e-06 DIIS
   @UHF iter   9:  -108.39194907980179   -3.58838e-08   2.95508e-07 DIIS
   @UHF iter  10:  -108.39194908162742   -1.82563e-09   5.57715e-08 DIIS
   @UHF iter  11:  -108.39194908168085   -5.34328e-11   5.83701e-09 DIIS
  Energy and wave function converged.


  ==> Post-Iterations <==

   @Spin Contamination Metric:   2.297216228E-02
   @S^2 Expected:                7.500000000E-01
   @S^2 Observed:                7.729721623E-01
   @S   Expected:                5.000000000E-01
   @S   Observed:                5.000000000E-01

    Orbital Energies [Eh]
    ---------------------

    Alpha Occupied:                                                       

       1Ag   -16.204195     1B1u  -16.201856     2Ag    -1.857058  
       2B1u   -1.291052     3Ag    -1.131813     1B2u   -0.995000  
       1B3u   -0.995000  

    Alpha Virtual:                                                        

       1B3g   -0.288626     1B2g   -0.288626     4Ag    -0.116722  
       3B1u   -0.090616     2B2u   -0.085591     2B3u   -0.085591  
       5Ag    -0.047705     2B3g   -0.035211     2B2g   -0.035211  
       4B1u    0.009385     6Ag     0.036169     1B1g    0.036169  
       7Ag     0.075472     3B2u    0.086547     3B3u    0.086547  
       5B1u    0.109050     8Ag     0.124463     1Au     0.128103  
       6B1u    0.128103     4B3u    0.134924     4B2u    0.134924  
       3B3g    0.135140     3B2g    0.135140     7B1u    0.194382  
       4B3g    0.240413     4B2g    0.240413     8B1u    0.309276  
       9Ag     0.316675     5B2u    0.353301     5B3u    0.353301  
       2B1g    0.433646    10Ag     0.433646     6B3u    0.461234  
       6B2u    0.461234     2Au     0.467623     9B1u    0.467623  
      11Ag     0.486595     5B3g    0.504553     5B2g    0.504553  
      10B1u    0.516621     3B1g    0.520283    12Ag     0.520283  
       6B3g    0.541682     6B2g    0.541682    11B1u    0.570940  
      13Ag     0.626776     7B2u    0.627292     7B3u    0.627292  
       7B3g    0.770009     7B2g    0.770009     8B3u    0.770270  
       8B2u    0.770270     3Au     0.856419    12B1u    0.856419  
      13B1u    0.872790    14B1u    1.088232    14Ag     1.100929  
       8B2g    1.145464     8B3g    1.145464    15Ag     1.224577  
       4B1g    1.257555    16Ag     1.257555     9B2u    1.364709  
       9B3u    1.364709     5B1g    1.398103    17Ag     1.398103  
      10B3u    1.464559    10B2u    1.464559     9B3g    1.477292  
       9B2g    1.477292    15B1u    1.489452     4Au     1.508557  
      16B1u    1.508557    11B3u    1.522754    11B2u    1.522754  
       6B1g    1.534104    18Ag     1.534104    12B2u    1.544057  
      12B3u    1.544057     5Au     1.544361    17B1u    1.544361  
      19Ag     1.684585     6Au     1.721502    18B1u    1.721502  
      10B2g    1.756139    10B3g    1.756139    20Ag     1.879088  
      19B1u    1.933202     7B1g    1.981792    21Ag     1.981792  
      11B3g    1.990390    11B2g    1.990390    12B2g    2.004295  
      12B3g    2.004295    13B2u    2.047603    13B3u    2.047603  
      20B1u    2.063004    22Ag     2.124004    13B3g    2.135548  
      13B2g    2.135548    14B2u    2.525115    14B3u    2.525115  
      21B1u    2.769047     7Au     2.769047    22B1u    2.782544  
      15B3u    2.963470    15B2u    2.963470    23Ag     3.156786  
       8B1g    3.156786    14B3g    3.273612    14B2g    3.273612  
      24Ag     3.294564    15B2g    3.366131    15B3g    3.366131  
      25Ag     3.443281     9B1g    3.519820    26Ag     3.519820  
      16B3u    3.522429    16B2u    3.522429    23B1u    3.601028  
      16B2g    3.645166    16B3g    3.645166    17B2u    3.661211  
      17B3u    3.661211    24B1u    3.689013    25B1u    3.690691  
       8Au     3.690691    26B1u    3.751921     9Au     3.751921  
      10B1g    3.755454    27Ag     3.755454    17B2g    3.806563  
      17B3g    3.806563    28Ag     3.847067    29Ag     3.866685  
      11B1g    3.866685    18B3u    3.893388    18B2u    3.893388  
      19B2u    3.970709    19B3u    3.970709    27B1u    3.990614  
      10Au     3.990614    20B3u    4.037743    20B2u    4.037743  
      18B2g    4.044180    18B3g    4.044180    12B1g    4.243507  
      30Ag     4.243507    28B1u    4.266705    29B1u    4.316416  
      11Au     4.316416    21B2u    4.376148    21B3u    4.376148  
      31Ag     4.530969    19B3g    4.724556    19B2g    4.724556  
      32Ag     4.993017    30B1u    5.074749    12Au     5.074749  
      20B3g    5.144069    20B2g    5.144069    13B1g    5.308720  
      33Ag     5.308720    31B1u    5.336294    22B2u    5.455134  
      22B3u    5.455134    21B3g    5.582304    21B2g    5.582304  
      34Ag     5.911547    22B3g    5.996743    22B2g    5.996743  
      32B1u    6.054238    23B3u    6.567752    23B2u    6.567752  
      33B1u    6.619336    13Au     6.619336    14B1g    6.645118  
      35Ag     6.645118    34B1u    7.041836    14Au     7.041836  
      35B1u    7.084208    24B2u    7.142472    24B3u    7.142472  
      36Ag     7.165841    15B1g    7.165841    23B3g    7.589482  
      23B2g    7.589482    16B1g    7.651933    37Ag     7.651933  
      38Ag     7.678492    24B3g    7.721140    24B2g    7.721140  
      25B3u    7.840596    25B2u    7.840596    26B3u    7.852685  
      26B2u    7.852685    39Ag     7.897775    17B1g    7.897775  
      25B3g    7.924392    25B2g    7.924392    26B3g    8.074043  
      26B2g    8.074043    36B1u    8.103819    40Ag     8.117726  
      27B3g    8.143821    27B2g    8.143821    15Au     8.145774  
      37B1u    8.145774    27B2u    8.183740    27B3u    8.183740  
      18B1g    8.231030    41Ag     8.231030    38B1u    8.243548  
      16Au     8.243548    28B3u    8.280256    28B2u    8.280256  
      29B2u    8.333281    29B3u    8.333281    42Ag     8.395623  
      39B1u    8.774971    17Au     8.774971    28B2g    8.923677  
      28B3g    8.923677    30B3u    8.931401    30B2u    8.931401  
      40B1u    9.135754    41B1u    9.298885    42B1u    9.302729  
      18Au     9.302729    31B2u    9.416259    31B3u    9.416259  
      43Ag     9.700225    19B1g    9.700225    20B1g    9.752948  
      44Ag     9.752948    19Au     9.944765    43B1u    9.944765  
      29B3g   10.143485    29B2g   10.143485    45Ag    10.151355  
      32B3u   10.165446    32B2u   10.165446    21B1g   10.582679  
      46Ag    10.582679    30B3g   10.692901    30B2g   10.692901  
      20Au    10.861489    44B1u   10.861489    31B3g   11.254759  
      31B2g   11.254759    45B1u   11.445862    46B1u   11.458356  
      21Au    11.458356    47Ag    11.540094    32B3g   11.581962  
      32B2g   11.581962    33B3g   11.633665    33B2g   11.633665  
      33B2u   11.661827    33B3u   11.661827    48Ag    12.119208  
      47B1u   12.297251    22B1g   12.558801    49Ag    12.558801  
      48B1u   13.973763    22Au    13.973763    34B2u   14.341425  
      34B3u   14.341425    34B3g   14.595686    34B2g   14.595686  
      49B1u   15.538840    23B1g   16.460663    50Ag    16.460663  
      35B2u   16.483058    35B3u   16.483058    36B3u   16.651676  
      36B2u   16.651676    24B1g   16.779036    51Ag    16.779036  
      25B1g   16.823200    52Ag    16.823200    50B1u   16.945016  
      23Au    16.945016    53Ag    17.043823    35B3g   17.303693  
      35B2g   17.303693    51B1u   17.595953    37B2u   17.617214  
      37B3u   17.617214    54Ag    18.021794    24Au    18.151341  
      52B1u   18.151341    38B2u   18.226654    38B3u   18.226654  
      36B3g   18.230018    36B2g   18.230018    53B1u   18.568597  
      25Au    18.568597    37B3g   18.749693    37B2g   18.749693  
      54B1u   19.293364    38B3g   19.424894    38B2g   19.424894  
      39B3u   19.684605    39B2u   19.684605    55Ag    19.722175  
      26B1g   19.722175    40B2u   19.756346    40B3u   19.756346  
      39B3g   19.828112    39B2g   19.828112    56Ag    19.845037  
      41B2u   20.034898    41B3u   20.034898    27B1g   20.095548  
      57Ag    20.095548    55B1u   20.124832    26Au    20.124832  
      40B3g   20.327954    40B2g   20.327954    42B2u   20.426070  
      42B3u   20.426070    58Ag    20.816053    27Au    20.883029  
      56B1u   20.883029    57B1u   21.048142    28B1g   21.456749  
      59Ag    21.456749    41B3g   21.460267    41B2g   21.460267  
      60Ag    21.495522    42B3g   21.794569    42B2g   21.794569  
      58B1u   22.128698    43B2u   22.793874    43B3u   22.793874  
      59B1u   23.272901    28Au    23.272901    29B1g   23.374052  
      61Ag    23.374052    44B2u   23.452682    44B3u   23.452682  
      60B1u   23.543248    29Au    23.543248    43B3g   23.638747  
      43B2g   23.638747    30B1g   24.092352    62Ag    24.092352  
      44B3g   24.308527    44B2g   24.308527    61B1u   24.943851  
      63Ag    25.372883    62B1u   25.624934    30Au    25.624934  
      45B2u   25.937771    45B3u   25.937771    45B3g   26.674496  
      45B2g   26.674496    63B1u   27.319785    31B1g   27.858399  
      64Ag    27.858399    31Au    28.831059    64B1u   28.831059  
      46B2u   29.131745    46B3u   29.131745    65Ag    30.588316  
      46B3g   31.853471    46B2g   31.853471    65B1u   34.877337  
      66B1u   81.361880    66Ag    82.092486  

    Beta Occupied:                                                        

       1Ag   -16.184761     1B1u  -16.183391     2Ag    -1.787135  
       2B1u   -1.073377     1B3u   -0.980869     1B2u   -0.980869  

    Beta Virtual:                                                         

       3Ag    -0.506453     1B2g   -0.260794     1B3g   -0.260794  
       4Ag    -0.105978     3B1u   -0.089399     2B3u   -0.085150  
       2B2u   -0.085150     5Ag    -0.046480     2B2g   -0.034618  
       2B3g   -0.034618     4B1u    0.010889     6Ag     0.036074  
       1B1g    0.036074     7Ag     0.079676     3B3u    0.088064  
       3B2u    0.088064     5B1u    0.114864     1Au     0.128249  
       6B1u    0.128249     4B2u    0.136039     4B3u    0.136039  
       3B2g    0.136564     3B3g    0.136564     8Ag     0.143099  
       7B1u    0.196888     4B2g    0.241157     4B3g    0.241157  
       9Ag     0.324448     5B2u    0.353189     5B3u    0.353189  
       8B1u    0.382123    10Ag     0.432387     2B1g    0.432387  
       2Au     0.468851     9B1u    0.468851     6B2u    0.469414  
       6B3u    0.469414    11Ag     0.491104     5B2g    0.504630  
       5B3g    0.504630    10B1u    0.520717     3B1g    0.521607  
      12Ag     0.521607     6B2g    0.543916     6B3g    0.543916  
      11B1u    0.596379     7B3u    0.631753     7B2u    0.631753  
      13Ag     0.658076     7B2g    0.773042     7B3g    0.773042  
       8B2u    0.784871     8B3u    0.784871     3Au     0.857983  
      12B1u    0.857983    13B1u    0.920124    14B1u    1.092078  
      14Ag     1.123742     8B3g    1.153319     8B2g    1.153319  
      15Ag     1.232831     4B1g    1.257307    16Ag     1.257307  
       9B2u    1.363416     9B3u    1.363416    17Ag     1.397622  
       5B1g    1.397622    10B2u    1.469566    10B3u    1.469566  
       9B3g    1.478685     9B2g    1.478685    15B1u    1.492049  
      16B1u    1.510258     4Au     1.510258    11B3u    1.524256  
      11B2u    1.524256     6B1g    1.539190    18Ag     1.539190  
      17B1u    1.544455     5Au     1.544455    12B3u    1.576578  
      12B2u    1.576578    19Ag     1.703871     6Au     1.727628  
      18B1u    1.727628    10B3g    1.757420    10B2g    1.757420  
      20Ag     1.908550    19B1u    1.971089     7B1g    1.985715  
      21Ag     1.985715    11B2g    1.990056    11B3g    1.990056  
      12B2g    2.013548    12B3g    2.013548    13B3u    2.053781  
      13B2u    2.053781    20B1u    2.086522    22Ag     2.152889  
      13B2g    2.153355    13B3g    2.153355    14B3u    2.536537  
      14B2u    2.536537    21B1u    2.768589     7Au     2.768589  
      22B1u    2.793728    15B2u    2.963133    15B3u    2.963133  
      23Ag     3.156720     8B1g    3.156720    14B2g    3.288127  
      14B3g    3.288127    24Ag     3.317501    15B3g    3.366172  
      15B2g    3.366172    25Ag     3.471051    16B3u    3.521289  
      16B2u    3.521289     9B1g    3.528580    26Ag     3.528580  
      23B1u    3.619965    16B2g    3.649883    16B3g    3.649883  
      17B3u    3.675543    17B2u    3.675543    24B1u    3.693292  
       8Au     3.693292    25B1u    3.700427    26B1u    3.753928  
       9Au     3.753928    27Ag     3.760015    10B1g    3.760015  
      17B3g    3.817612    17B2g    3.817612    28Ag     3.867293  
      11B1g    3.867293    29Ag     3.869707    18B3u    3.898064  
      18B2u    3.898064    19B3u    3.991671    19B2u    3.991671  
      27B1u    4.007564    10Au     4.007564    20B3u    4.040964  
      20B2u    4.040964    18B2g    4.045617    18B3g    4.045617  
      12B1g    4.255173    30Ag     4.255173    28B1u    4.296259  
      29B1u    4.315692    11Au     4.315692    21B3u    4.394092  
      21B2u    4.394092    31Ag     4.550946    19B2g    4.737789  
      19B3g    4.737789    32Ag     5.018929    30B1u    5.075217  
      12Au     5.075217    20B2g    5.164399    20B3g    5.164399  
      13B1g    5.312154    33Ag     5.312154    31B1u    5.371127  
      22B3u    5.471337    22B2u    5.471337    21B3g    5.582908  
      21B2g    5.582908    34Ag     5.941540    22B2g    6.003099  
      22B3g    6.003099    32B1u    6.073763    23B3u    6.568242  
      23B2u    6.568242    33B1u    6.627128    13Au     6.627128  
      35Ag     6.644859    14B1g    6.644859    34B1u    7.041779  
      14Au     7.041779    35B1u    7.103705    24B3u    7.154547  
      24B2u    7.154547    36Ag     7.166341    15B1g    7.166341  
      23B2g    7.605001    23B3g    7.605001    16B1g    7.662299  
      37Ag     7.662299    38Ag     7.701890    24B3g    7.723086  
      24B2g    7.723086    25B3u    7.841108    25B2u    7.841108  
      26B2u    7.855919    26B3u    7.855919    39Ag     7.902586  
      17B1g    7.902586    25B3g    7.931479    25B2g    7.931479  
      26B3g    8.087974    26B2g    8.087974    36B1u    8.113764  
      40Ag     8.136492    27B3g    8.143510    27B2g    8.143510  
      37B1u    8.151902    15Au     8.151902    27B3u    8.199560  
      27B2u    8.199560    18B1g    8.244663    41Ag     8.244663  
      38B1u    8.249832    16Au     8.249832    28B3u    8.288472  
      28B2u    8.288472    29B2u    8.347616    29B3u    8.347616  
      42Ag     8.423809    39B1u    8.791609    17Au     8.791609  
      28B2g    8.930947    28B3g    8.930947    30B3u    8.935074  
      30B2u    8.935074    40B1u    9.159614    41B1u    9.302605  
      18Au     9.302605    42B1u    9.317677    31B2u    9.438256  
      31B3u    9.438256    43Ag     9.701916    19B1g    9.701916  
      20B1g    9.770383    44Ag     9.770383    43B1u    9.946278  
      19Au     9.946278    29B2g   10.157957    29B3g   10.157957  
      45Ag    10.163053    32B2u   10.172976    32B3u   10.172976  
      21B1g   10.587111    46Ag    10.587111    30B3g   10.697583  
      30B2g   10.697583    20Au    10.865950    44B1u   10.865950  
      31B3g   11.272102    31B2g   11.272102    45B1u   11.466954  
      46B1u   11.469048    21Au    11.469048    47Ag    11.556101  
      32B3g   11.584112    32B2g   11.584112    33B2g   11.645865  
      33B3g   11.645865    33B3u   11.682794    33B2u   11.682794  
      48Ag    12.155502    47B1u   12.313467    22B1g   12.566869  
      49Ag    12.566869    48B1u   13.980819    22Au    13.980819  
      34B3u   14.359779    34B2u   14.359779    34B2g   14.613446  
      34B3g   14.613446    49B1u   15.570398    23B1g   16.466389  
      50Ag    16.466389    35B2u   16.490686    35B3u   16.490686  
      36B3u   16.655070    36B2u   16.655070    24B1g   16.779452  
      51Ag    16.779452    25B1g   16.833232    52Ag    16.833232  
      50B1u   16.945412    23Au    16.945412    53Ag    17.059333  
      35B3g   17.306754    35B2g   17.306754    51B1u   17.610193  
      37B3u   17.630040    37B2u   17.630040    54Ag    18.046365  
      24Au    18.157469    52B1u   18.157469    38B3u   18.230987  
      38B2u   18.230987    36B3g   18.245115    36B2g   18.245115  
      53B1u   18.587080    25Au    18.587080    37B3g   18.760730  
      37B2g   18.760730    54B1u   19.312916    38B2g   19.433081  
      38B3g   19.433081    39B3u   19.685772    39B2u   19.685772  
      55Ag    19.728591    26B1g   19.728591    40B2u   19.780407  
      40B3u   19.780407    39B3g   19.829397    39B2g   19.829397  
      56Ag    19.857953    41B2u   20.046211    41B3u   20.046211  
      27B1g   20.114129    57Ag    20.114129    55B1u   20.130697  
      26Au    20.130697    40B3g   20.335754    40B2g   20.335754  
      42B2u   20.429034    42B3u   20.429034    58Ag    20.835635  
      27Au    20.894676    56B1u   20.894676    57B1u   21.066735  
      41B3g   21.464798    41B2g   21.464798    28B1g   21.467776  
      59Ag    21.467776    60Ag    21.516905    42B2g   21.810528  
      42B3g   21.810528    58B1u   22.141702    43B3u   22.808743  
      43B2u   22.808743    59B1u   23.283590    28Au    23.283590  
      29B1g   23.376249    61Ag    23.376249    44B2u   23.462294  
      44B3u   23.462294    60B1u   23.545219    29Au    23.545219  
      43B2g   23.656838    43B3g   23.656838    62Ag    24.105934  
      30B1g   24.105934    44B3g   24.316417    44B2g   24.316417  
      61B1u   24.961590    63Ag    25.389422    62B1u   25.635702  
      30Au    25.635702    45B3u   25.952807    45B2u   25.952807  
      45B2g   26.687806    45B3g   26.687806    63B1u   27.337780  
      31B1g   27.862256    64Ag    27.862256    31Au    28.835690  
      64B1u   28.835690    46B3u   29.147853    46B2u   29.147853  
      65Ag    30.610383    46B2g   31.867347    46B3g   31.867347  
      65B1u   34.894820    66B1u   81.366548    66Ag    82.096960  

    Final Occupation by Irrep:
             Ag   B1g   B2g   B3g    Au   B1u   B2u   B3u 
    DOCC [     2,    0,    0,    0,    0,    2,    1,    1 ]
    SOCC [     1,    0,    0,    0,    0,    0,    0,    0 ]

  @UHF Final Energy:  -108.39194908168085

   => Energetics <=

    Nuclear Repulsion Energy =             21.8009189513086987
    One-Electron Energy =                -184.5193608710893045
    Two-Electron Energy =                  54.3264928380997674
    Total Energy =                       -108.3919490816808491

  UHF NO Occupations:
  HONO-2 :    2 Ag 1.9993872
  HONO-1 :    2B1u 1.9894698
  HONO-0 :    3 Ag 1.0000000
  LUNO+0 :    3B1u 0.0105302
  LUNO+1 :    4 Ag 0.0006128
  LUNO+2 :    2B2u 0.0001985
  LUNO+3 :    2B3u 0.0001985


Computation Completed


Properties will be evaluated at   0.000000,   0.000000,   0.000000 [a0]

Properties computed using the SCF density matrix

  Nuclear Dipole Moment: [e a0]
     X:     0.0000      Y:     0.0000      Z:     0.0000

  Electronic Dipole Moment: [e a0]
     X:     0.0000      Y:     0.0000      Z:     0.0000

  Dipole Moment: [e a0]
     X:     0.0000      Y:     0.0000      Z:     0.0000     Total:     0.0000

  Dipole Moment: [D]
     X:     0.0000      Y:     0.0000      Z:     0.0000     Total:     0.0000


*** tstop() called on n412-047.vsc4.prov at Sat Jan 23 08:38:45 2021
Module time:
	user time   =     566.68 seconds =       9.44 minutes
	system time =      28.79 seconds =       0.48 minutes
	total time  =        617 seconds =      10.28 minutes
Total time:
	user time   =     566.68 seconds =       9.44 minutes
	system time =      28.79 seconds =       0.48 minutes
	total time  =        617 seconds =      10.28 minutes

*** tstart() called on n412-047.vsc4.prov
*** at Sat Jan 23 08:38:45 2021


	Wfn Parameters:
	--------------------
	Wavefunction         = CCSD_T
	Number of irreps     = 8
	Number of MOs        = 378
	Number of active MOs = 376
	AO-Basis             = NONE
	Semicanonical        = false
	Reference            = UHF
	Print Level          = 1

	IRREP	# MOs	# FZDC	# DOCC	# SOCC	# VIRT	# FZVR
	-----	-----	------	------	------	------	------
	 Ag	   66	    1	    1	    1	    63	    0
	 B1g	   31	    0	    0	    0	    31	    0
	 B2g	   46	    0	    0	    0	    46	    0
	 B3g	   46	    0	    0	    0	    46	    0
	 Au	   31	    0	    0	    0	    31	    0
	 B1u	   66	    1	    1	    0	    64	    0
	 B2u	   46	    0	    1	    0	    45	    0
	 B3u	   46	    0	    1	    0	    45	    0
	Transforming integrals...
	IWL integrals will be deleted.
	(OO|OO)...
	Presorting SO-basis two-electron integrals.
	Sorting File: SO Ints (nn|nn) nbuckets = 1
	Constructing frozen core operators
	Starting AA/AB first half-transformation.
	Sorting AA/AB half-transformed integrals.
	Starting BB first half-transformation.
	Sorting BB half-transformed integrals.
	First half integral transformation complete.
	Starting AA second half-transformation.
	Starting AB second half-transformation.
	Starting BB second half-transformation.
	Two-electron integral transformation complete.
	(OO|OV)...
	Starting AA second half-transformation.
	Starting AB second half-transformation.
	Starting BB second half-transformation.
	Two-electron integral transformation complete.
	(OO|VV)...
	Starting AA second half-transformation.
	Starting AB second half-transformation.
	Starting BB second half-transformation.
	Two-electron integral transformation complete.
	(OV|OO)...
	Starting AA/AB first half-transformation.
	Sorting AA/AB half-transformed integrals.
	Starting BB first half-transformation.
	Sorting BB half-transformed integrals.
	First half integral transformation complete.
	Starting AA second half-transformation.
	Starting AB second half-transformation.
	Starting BB second half-transformation.
	Two-electron integral transformation complete.
	(OV|OV)...
	Starting AA second half-transformation.
	Starting AB second half-transformation.
	Starting BB second half-transformation.
	Two-electron integral transformation complete.
	(OV|VV)...
	Starting AA second half-transformation.
	Starting AB second half-transformation.
	Starting BB second half-transformation.
	Two-electron integral transformation complete.
	(VV|OO)...
	Starting AA/AB first half-transformation.
	Sorting AA/AB half-transformed integrals.
	Starting BB first half-transformation.
	Sorting BB half-transformed integrals.
	First half integral transformation complete.
	Starting AA second half-transformation.
	Starting AB second half-transformation.
	Starting BB second half-transformation.
	Two-electron integral transformation complete.
	(VV|OV)...
	Starting AA second half-transformation.
	Starting AB second half-transformation.
	Starting BB second half-transformation.
	Two-electron integral transformation complete.
	(VV|VV)...
	Starting AA second half-transformation.
	Starting AB second half-transformation.
	Starting BB second half-transformation.
	Two-electron integral transformation complete.
	Frozen core energy     =   -100.14717634148971

	Size of irrep 0 of <AB|CD> integrals:     80.085 (MW) /    640.677 (MB)
	Size of irrep 1 of <AB|CD> integrals:     65.254 (MW) /    522.033 (MB)
	Size of irrep 2 of <AB|CD> integrals:     73.943 (MW) /    591.542 (MB)
	Size of irrep 3 of <AB|CD> integrals:     73.943 (MW) /    591.542 (MB)
	Size of irrep 4 of <AB|CD> integrals:     65.238 (MW) /    521.903 (MB)
	Size of irrep 5 of <AB|CD> integrals:     83.412 (MW) /    667.294 (MB)
	Size of irrep 6 of <AB|CD> integrals:     73.960 (MW) /    591.680 (MB)
	Size of irrep 7 of <AB|CD> integrals:     73.960 (MW) /    591.680 (MB)
	Total:                                   589.794 (MW) /   4718.351 (MB)

	Size of irrep 0 of <ab|cd> integrals:     81.216 (MW) /    649.729 (MB)
	Size of irrep 1 of <ab|cd> integrals:     65.756 (MW) /    526.047 (MB)
	Size of irrep 2 of <ab|cd> integrals:     74.736 (MW) /    597.888 (MB)
	Size of irrep 3 of <ab|cd> integrals:     74.736 (MW) /    597.888 (MB)
	Size of irrep 4 of <ab|cd> integrals:     65.740 (MW) /    525.917 (MB)
	Size of irrep 5 of <ab|cd> integrals:     84.585 (MW) /    676.678 (MB)
	Size of irrep 6 of <ab|cd> integrals:     74.736 (MW) /    597.888 (MB)
	Size of irrep 7 of <ab|cd> integrals:     74.736 (MW) /    597.888 (MB)
	Total:                                   596.241 (MW) /   4769.925 (MB)

	Size of irrep 0 of <Ab|Cd> integrals:    336.062 (MW) /   2688.498 (MB)
	Size of irrep 1 of <Ab|Cd> integrals:    262.019 (MW) /   2096.152 (MB)
	Size of irrep 2 of <Ab|Cd> integrals:    297.356 (MW) /   2378.844 (MB)
	Size of irrep 3 of <Ab|Cd> integrals:    297.356 (MW) /   2378.844 (MB)
	Size of irrep 4 of <Ab|Cd> integrals:    261.954 (MW) /   2095.634 (MB)
	Size of irrep 5 of <Ab|Cd> integrals:    335.989 (MW) /   2687.911 (MB)
	Size of irrep 6 of <Ab|Cd> integrals:    297.390 (MW) /   2379.120 (MB)
	Size of irrep 7 of <Ab|Cd> integrals:    297.390 (MW) /   2379.120 (MB)
	Total:                                  2385.515 (MW) /  19084.124 (MB)

	Size of irrep 0 of <IA|BC> integrals:      5.115 (MW) /     40.923 (MB)
	Size of irrep 1 of <IA|BC> integrals:      2.957 (MW) /     23.652 (MB)
	Size of irrep 2 of <IA|BC> integrals:      3.990 (MW) /     31.919 (MB)
	Size of irrep 3 of <IA|BC> integrals:      3.990 (MW) /     31.919 (MB)
	Size of irrep 4 of <IA|BC> integrals:      2.988 (MW) /     23.908 (MB)
	Size of irrep 5 of <IA|BC> integrals:      5.169 (MW) /     41.354 (MB)
	Size of irrep 6 of <IA|BC> integrals:      3.956 (MW) /     31.648 (MB)
	Size of irrep 7 of <IA|BC> integrals:      3.956 (MW) /     31.648 (MB)
	Total:                                    32.122 (MW) /    256.972 (MB)

	Size of irrep 0 of <ia|bc> integrals:      4.010 (MW) /     32.083 (MB)
	Size of irrep 1 of <ia|bc> integrals:      2.465 (MW) /     19.721 (MB)
	Size of irrep 2 of <ia|bc> integrals:      3.216 (MW) /     25.728 (MB)
	Size of irrep 3 of <ia|bc> integrals:      3.216 (MW) /     25.728 (MB)
	Size of irrep 4 of <ia|bc> integrals:      2.497 (MW) /     19.978 (MB)
	Size of irrep 5 of <ia|bc> integrals:      4.047 (MW) /     32.373 (MB)
	Size of irrep 6 of <ia|bc> integrals:      3.216 (MW) /     25.728 (MB)
	Size of irrep 7 of <ia|bc> integrals:      3.216 (MW) /     25.728 (MB)
	Total:                                    25.883 (MW) /    207.065 (MB)

	Size of irrep 0 of <Ia|Bc> integrals:      5.170 (MW) /     41.357 (MB)
	Size of irrep 1 of <Ia|Bc> integrals:      2.962 (MW) /     23.698 (MB)
	Size of irrep 2 of <Ia|Bc> integrals:      4.001 (MW) /     32.005 (MB)
	Size of irrep 3 of <Ia|Bc> integrals:      4.001 (MW) /     32.005 (MB)
	Size of irrep 4 of <Ia|Bc> integrals:      2.994 (MW) /     23.954 (MB)
	Size of irrep 5 of <Ia|Bc> integrals:      5.206 (MW) /     41.646 (MB)
	Size of irrep 6 of <Ia|Bc> integrals:      3.984 (MW) /     31.869 (MB)
	Size of irrep 7 of <Ia|Bc> integrals:      3.984 (MW) /     31.869 (MB)
	Total:                                    32.300 (MW) /    258.402 (MB)

	Size of irrep 0 of <iA|bC> integrals:      3.978 (MW) /     31.824 (MB)
	Size of irrep 1 of <iA|bC> integrals:      2.460 (MW) /     19.683 (MB)
	Size of irrep 2 of <iA|bC> integrals:      3.207 (MW) /     25.659 (MB)
	Size of irrep 3 of <iA|bC> integrals:      3.207 (MW) /     25.659 (MB)
	Size of irrep 4 of <iA|bC> integrals:      2.492 (MW) /     19.940 (MB)
	Size of irrep 5 of <iA|bC> integrals:      4.014 (MW) /     32.114 (MB)
	Size of irrep 6 of <iA|bC> integrals:      3.190 (MW) /     25.523 (MB)
	Size of irrep 7 of <iA|bC> integrals:      3.190 (MW) /     25.523 (MB)
	Total:                                    25.741 (MW) /    205.925 (MB)

	Size of irrep 0 of tIjAb amplitudes:       0.092 (MW) /      0.733 (MB)
	Size of irrep 1 of tIjAb amplitudes:       0.032 (MW) /      0.259 (MB)
	Size of irrep 2 of tIjAb amplitudes:       0.034 (MW) /      0.276 (MB)
	Size of irrep 3 of tIjAb amplitudes:       0.034 (MW) /      0.276 (MB)
	Size of irrep 4 of tIjAb amplitudes:       0.000 (MW) /      0.000 (MB)
	Size of irrep 5 of tIjAb amplitudes:       0.055 (MW) /      0.440 (MB)
	Size of irrep 6 of tIjAb amplitudes:       0.052 (MW) /      0.414 (MB)
	Size of irrep 7 of tIjAb amplitudes:       0.052 (MW) /      0.414 (MB)
	Total:                                     0.351 (MW) /      2.812 (MB)

	Nuclear Rep. energy          =     21.80091895130870
	SCF energy                   =   -108.39194908168085
	One-electron energy          =    -48.99921074828513
	Two-electron (AA) energy     =      4.77557905599699
	Two-electron (BB) energy     =      2.90958061924935
	Two-electron (AB) energy     =     11.26835938153893
	Two-electron energy          =     18.95351905678528
	Reference energy             =   -108.39194908168086

*** tstop() called on n412-047.vsc4.prov at Sat Jan 23 08:51:55 2021
Module time:
	user time   =     253.78 seconds =       4.23 minutes
	system time =     187.98 seconds =       3.13 minutes
	total time  =        790 seconds =      13.17 minutes
Total time:
	user time   =     820.46 seconds =      13.67 minutes
	system time =     216.77 seconds =       3.61 minutes
	total time  =       1407 seconds =      23.45 minutes
            **************************
            *                        *
            *        CCENERGY        *
            *                        *
            **************************

    Nuclear Rep. energy (wfn)     =   21.800918951308699
    SCF energy          (wfn)     = -108.391949081680849
    Reference energy    (file100) = -108.391949081680863

    Input parameters:
    -----------------
    Wave function   =     CCSD_T
    Reference wfn   =     UHF
    Brueckner       =     No
    Memory (Mbytes) =     250000.0
    Maxiter         =     50
    R_Convergence   =     1.0e-07
    E_Convergence   =     1.0e-06
    Restart         =     Yes
    DIIS            =     Yes
    AO Basis        =     NONE
    ABCD            =     NEW
    Cache Level     =     2
    Cache Type      =     LRU
    Print Level     =     1
    Num. of threads =     48
    # Amps to Print =     10
    Print MP2 Amps? =     No
    Analyze T2 Amps =     No
    Print Pair Ener =     No
    Local CC        =     No
    SCS-MP2         =     False
    SCSN-MP2        =     False
    SCS-CCSD        =     False

MP2 correlation energy -0.4425299820167275
                Solving CC Amplitude Equations
                ------------------------------
  Iter             Energy              RMS        T1Diag      D1Diag    New D1Diag    D2Diag
  ----     ---------------------    ---------   ----------  ----------  ----------   --------
     0        -0.442529982016727    0.000e+00    0.000000    0.000000    0.000000    0.000000
     1        -0.375482216152673    1.565e-01    0.032389    0.000000    0.000000    0.000000
     2        -0.408024904031160    6.561e-02    0.028772    0.000000    0.000000    0.000000
     3        -0.412880086591493    2.080e-02    0.034975    0.000000    0.000000    0.000000
     4        -0.413871949710937    5.885e-03    0.035852    0.000000    0.000000    0.000000
     5        -0.413952723227842    1.921e-03    0.036089    0.000000    0.000000    0.000000
     6        -0.413856079185009    5.545e-04    0.036044    0.000000    0.000000    0.000000
     7        -0.413901349678714    1.636e-04    0.036048    0.000000    0.000000    0.000000
     8        -0.413897089274631    5.892e-05    0.036045    0.000000    0.000000    0.000000
     9        -0.413894714066139    2.419e-05    0.036046    0.000000    0.000000    0.000000
    10        -0.413895311665266    9.180e-06    0.036047    0.000000    0.000000    0.000000
    11        -0.413895131369097    3.582e-06    0.036047    0.000000    0.000000    0.000000
    12        -0.413895205504995    1.061e-06    0.036047    0.000000    0.000000    0.000000
    13        -0.413895213466110    3.442e-07    0.036047    0.000000    0.000000    0.000000
    14        -0.413895211917062    1.207e-07    0.036047    0.000000    0.000000    0.000000
    15        -0.413895215752200    3.963e-08    0.036047    0.000000    0.000000    0.000000

    Iterations converged.


    Largest TIA Amplitudes:
              2 222         0.0232546266
              4 332         0.0154157506
              3 287         0.0154157504
              4 331         0.0136884562
              3 286         0.0136884551
              4 327         0.0132286622
              3 282         0.0132286605
              4 326         0.0099609807
              3 281         0.0099609790
              2 219        -0.0096650634

    Largest Tia Amplitudes:
              0   0         0.0616293092
              1 223        -0.0342462391
              1 228         0.0212129061
              1 226        -0.0201609689
              2 288         0.0154781533
              3 333         0.0154781529
              2 287         0.0144811040
              3 332         0.0144811029
              2 283         0.0134254037
              3 328         0.0134254019

    Largest TIJAB Amplitudes:
      4   3 140  94         0.0323751706
      3   1 222 140        -0.0219836992
      4   1 222  94        -0.0219836989
      3   1 227 140         0.0088578812
      4   1 227  94         0.0088578810
      4   2 140  64         0.0077844771
      4   2  94   6         0.0077844771
      3   2 140   6        -0.0077844770
      3   2  94  64         0.0077844770
      3   1 219 140         0.0076641431

    Largest Tijab Amplitudes:
      3   1  95   0        -0.0434002378
      2   1 141   0        -0.0434002371
      3   2 141  95         0.0429419417
      1   0 223   0        -0.0115931338
      2   1 141   1         0.0101806693
      3   1  95   1         0.0101806689
      2   1  95  65         0.0088648508
      3   1  95   7         0.0088648507
      2   1 141   7        -0.0088648506
      3   1 141  65         0.0088648505

    Largest TIjAb Amplitudes:
      4   3  94  95        -0.1221751396
      3   2 140 141        -0.1221751387
      3   1 140   0        -0.0985061133
      4   1  94   0        -0.0985061131
      3   3 140  95        -0.0705097475
      4   2  94 141        -0.0705097451
      2   1  94  95        -0.0565843214
      2   1 140 141        -0.0565843212
      2   2 140   0        -0.0513122094
      2   3  94   0        -0.0513122078

    SCF energy       (wfn)                    = -108.391949081680849
    Reference energy (file100)                = -108.391949081680863

    Opposite-spin MP2 correlation energy      =   -0.330159363915473
    Same-spin MP2 correlation energy          =   -0.112370618101254
    Singles MP2 correlation energy            =   -0.000000000000000
    MP2 correlation energy                    =   -0.442529982016727
      * MP2 total energy                      = -108.834479063697586

    Opposite-spin CCSD correlation energy     =   -0.333841646366822
    Same-spin CCSD correlation energy         =   -0.080053569385268
    Singles CCSD correlation energy           =   -0.000000000000110
    CCSD correlation energy                   =   -0.413895215752200
      * CCSD total energy                     = -108.805844297433069

            **************************
            *                        *
            *        CCTRIPLES       *
            *                        *
            **************************


    Wave function   =    CCSD_T
    Reference wfn   =      UHF

    Nuclear Rep. energy (wfn)                =   21.800918951308699
    SCF energy          (wfn)                = -108.391949081680849
    Reference energy    (file100)            = -108.391949081680863
    CCSD energy         (file100)            =   -0.413895215752200
    Total CCSD energy   (file100)            = -108.805844297433069

    Number of ijk index combinations:
    Spin Case AAA:                                  10
    Spin Case BBB:                                   4
    Spin Case AAB:                                  40
    Spin Case ABB:                                  30
    AAA (T) energy                             =   -0.000401369885112
    BBB (T) energy                             =   -0.000495639430756
    AAB (T) energy                             =   -0.014541430889381
    ABB (T) energy                             =   -0.013833216369880
    (T) energy                                   =   -0.029271656575130
      * CCSD(T) total energy                     = -108.835115954008188


    Psi4 stopped on: Saturday, 23 January 2021 09:07AM
    Psi4 wall time for execution: 0:39:26.92

*** Psi4 exiting successfully. Buy a developer a beer!
