
    -----------------------------------------------------------------------
          Psi4: An Open-Source Ab Initio Electronic Structure Package
                               Psi4 1.4a3.dev88 

                         Git: Rev {master} 262e345 


    D. G. A. Smith, L. A. Burns, A. C. Simmonett, R. M. Parrish,
    M. C. Schieber, R. Galvelis, P. Kraus, H. Kruse, R. Di Remigio,
    A. Alenaizan, A. M. James, S. Lehtola, J. P. Misiewicz, M. Scheurer,
    R. A. Shaw, J. B. Schriber, Y. Xie, Z. L. Glick, D. A. Sirianni,
    J. S. O'Brien, J. M. Waldrop, A. Kumar, E. G. Hohenstein,
    B. P. Pritchard, B. R. Brooks, H. F. Schaefer III, A. Yu. Sokolov,
    K. Patkowski, A. E. DePrince III, U. Bozkaya, R. A. King,
    F. A. Evangelista, J. M. Turney, T. D. Crawford, C. D. Sherrill,
    J. Chem. Phys. 152(18) 184108 (2020). https://doi.org/10.1063/5.0006002

                            Additional Code Authors
    E. T. Seidl, C. L. Janssen, E. F. Valeev, M. L. Leininger,
    J. F. Gonthier, R. M. Richard, H. R. McAlexander, M. Saitow, X. Wang,
    P. Verma, and M. H. Lechner

             Previous Authors, Complete List of Code Contributors,
                       and Citations for Specific Modules
    https://github.com/psi4/psi4/blob/master/codemeta.json
    https://github.com/psi4/psi4/graphs/contributors
    http://psicode.org/psi4manual/master/introduction.html#citing-psifour

    -----------------------------------------------------------------------


    Psi4 started on: Tuesday, 26 January 2021 06:31PM

    Process ID: 406359
    Host:       n412-039.vsc4.prov
    PSIDATADIR: /home/fs71337/gallo4/psi4/eri-6/psi4/build/stage/share/psi4
    Memory:     500.0 MiB
    Threads:    48
    
  ==> Input File <==

--------------------------------------------------------------------------
# Any line starting with the # character is a comment line
memory 250000 mb
molecule molecule{
1 2
N          0.0000000000        0.0000000000        0.5946924389
N          0.0000000000        0.0000000000       -0.5946924389
}

set {
  reference uhf
  basis aug-cc-pV(d+d)Z
  scf_type OUT_OF_CORE
  freeze_core true
}

energy('ccsd(t)')
--------------------------------------------------------------------------

  Memory set to 232.831 GiB by Python driver.

Scratch directory: /binfl/lv71337/airmler/temp/

*** tstart() called on n412-039.vsc4.prov
*** at Tue Jan 26 18:31:25 2021

   => Loading Basis Set <=

    Name: AUG-CC-PV(D+D)Z
    Role: ORBITAL
    Keyword: BASIS
    atoms 1-2 entry N          line   246 file /home/fs71337/gallo4/psi4/eri-6/psi4/build/stage/share/psi4/basis/aug-cc-pv_dpd_z.gbs 


         ---------------------------------------------------------
                                   SCF
               by Justin Turney, Rob Parrish, Andy Simmonett
                          and Daniel G. A. Smith
                              UHF Reference
                       48 Threads, 238418 MiB Core
         ---------------------------------------------------------

  ==> Geometry <==

    Molecular point group: d2h
    Full point group: D_inf_h

    Geometry (in Angstrom), charge = 1, multiplicity = 2:

       Center              X                  Y                   Z               Mass       
    ------------   -----------------  -----------------  -----------------  -----------------
         N            0.000000000000     0.000000000000     0.594692438900    14.003074004430
         N            0.000000000000     0.000000000000    -0.594692438900    14.003074004430

  Running in d2h symmetry.

  Rotational constants: A = ************  B =      1.70200  C =      1.70200 [cm^-1]
  Rotational constants: A = ************  B =  51024.52684  C =  51024.52684 [MHz]
  Nuclear repulsion =   21.800918951308699

  Charge       = 1
  Multiplicity = 2
  Electrons    = 13
  Nalpha       = 7
  Nbeta        = 6

  ==> Algorithm <==

  SCF Algorithm Type is OUT_OF_CORE.
  DIIS enabled.
  MOM disabled.
  Fractional occupation disabled.
  Guess Type is SAD.
  Energy threshold   = 1.00e-08
  Density threshold  = 1.00e-08
  Integral threshold = 1.00e-12

  ==> Primary Basis <==

  Basis Set: AUG-CC-PV(D+D)Z
    Blend: AUG-CC-PV(D+D)Z
    Number of shells: 18
    Number of basis function: 46
    Number of Cartesian functions: 50
    Spherical Harmonics?: true
    Max angular momentum: 2

  ==> Integral Setup <==

  ==> DiskJK: Disk-Based J/K Matrices <==

    J tasked:                  Yes
    K tasked:                  Yes
    wK tasked:                  No
    Memory [MiB]:           178813
    Schwarz Cutoff:          1E-12

  Minimum eigenvalue in the overlap matrix is 6.0504138637E-04.
  Reciprocal condition number of the overlap matrix is 1.5251453834E-04.
    Using symmetric orthogonalization.

  ==> Pre-Iterations <==

  SCF Guess: Superposition of Atomic Densities via on-the-fly atomic UHF (no occupation information).


 WARNING: Atomic UHF is not converging! Try casting from a smaller basis or call Rob at CCMST.
   -------------------------
    Irrep   Nso     Nmo    
   -------------------------
     Ag        11      11 
     B1g        2       2 
     B2g        5       5 
     B3g        5       5 
     Au         2       2 
     B1u       11      11 
     B2u        5       5 
     B3u        5       5 
   -------------------------
    Total      46      46
   -------------------------

  ==> Iterations <==

                        Total Energy        Delta E     RMS |[F,P]|

   @UHF iter SAD:  -107.48685938728028   -1.07487e+02   0.00000e+00 
   @UHF iter   1:  -108.30825212099143   -8.21393e-01   1.34691e-02 DIIS
   @UHF iter   2:  -108.35650117977056   -4.82491e-02   4.07753e-03 DIIS
   @UHF iter   3:  -108.36090700331405   -4.40582e-03   1.41916e-03 DIIS
   @UHF iter   4:  -108.36159980165912   -6.92798e-04   2.30731e-04 DIIS
   @UHF iter   5:  -108.36161709152999   -1.72899e-05   3.36038e-05 DIIS
   @UHF iter   6:  -108.36161746664010   -3.75110e-07   8.40937e-06 DIIS
   @UHF iter   7:  -108.36161749449701   -2.78569e-08   1.34042e-06 DIIS
   @UHF iter   8:  -108.36161749519373   -6.96716e-10   1.81866e-07 DIIS
   @UHF iter   9:  -108.36161749520461   -1.08855e-11   2.14261e-08 DIIS
   @UHF iter  10:  -108.36161749520473   -1.13687e-13   4.29161e-09 DIIS
  Energy and wave function converged.


  ==> Post-Iterations <==

   @Spin Contamination Metric:   2.202288561E-02
   @S^2 Expected:                7.500000000E-01
   @S^2 Observed:                7.720228856E-01
   @S   Expected:                5.000000000E-01
   @S   Observed:                5.000000000E-01

    Orbital Energies [Eh]
    ---------------------

    Alpha Occupied:                                                       

       1Ag   -16.216885     1B1u  -16.214601     2Ag    -1.863137  
       2B1u   -1.293745     3Ag    -1.131623     1B3u   -0.996340  
       1B2u   -0.996340  

    Alpha Virtual:                                                        

       1B2g   -0.291032     1B3g   -0.291032     4Ag    -0.090344  
       3B1u   -0.075653     2B3u   -0.054843     2B2u   -0.054843  
       5Ag    -0.011035     2B2g    0.017508     2B3g    0.017508  
       4B1u    0.117221     5B1u    0.251030     1B1g    0.279980  
       6Ag     0.279980     7Ag     0.402871     3B3u    0.471146  
       3B2u    0.471146     1Au     0.553904     6B1u    0.553904  
       3B2g    0.636250     3B3g    0.636250     7B1u    0.658049  
       4B3u    0.725607     4B2u    0.725607     8B1u    0.772142  
       8Ag     0.787040     4B2g    1.040469     4B3g    1.040469  
       9Ag     1.492889     5B3u    1.751900     5B2u    1.751900  
       2B1g    1.889243    10Ag     1.889243     2Au     2.208362  
       9B1u    2.208362    11Ag     2.346281    10B1u    2.598408  
       5B2g    2.610941     5B3g    2.610941    11B1u    2.763807  

    Beta Occupied:                                                        

       1Ag   -16.196986     1B1u  -16.195634     2Ag    -1.797331  
       2B1u   -1.076353     1B3u   -0.981664     1B2u   -0.981664  

    Beta Virtual:                                                         

       3Ag    -0.511368     1B2g   -0.262223     1B3g   -0.262223  
       3B1u   -0.073705     4Ag    -0.072199     2B3u   -0.053867  
       2B2u   -0.053867     5Ag    -0.007579     2B2g    0.019290  
       2B3g    0.019290     4B1u    0.120545     1B1g    0.279699  
       6Ag     0.279699     5B1u    0.319446     7Ag     0.426575  
       3B3u    0.490076     3B2u    0.490076     1Au     0.556849  
       6B1u    0.556849     3B2g    0.644988     3B3g    0.644988  
       7B1u    0.670872     4B3u    0.733695     4B2u    0.733695  
       8Ag     0.857248     8B1u    0.863190     4B2g    1.046833  
       4B3g    1.046833     9Ag     1.515569     5B3u    1.807878  
       5B2u    1.807878     2B1g    1.895463    10Ag     1.895463  
       2Au     2.214951     9B1u    2.214951    11Ag     2.404461  
      10B1u    2.622405     5B2g    2.655995     5B3g    2.655995  
      11B1u    2.827040  

    Final Occupation by Irrep:
             Ag   B1g   B2g   B3g    Au   B1u   B2u   B3u 
    DOCC [     2,    0,    0,    0,    0,    2,    1,    1 ]
    SOCC [     1,    0,    0,    0,    0,    0,    0,    0 ]

  @UHF Final Energy:  -108.36161749520473

   => Energetics <=

    Nuclear Repulsion Energy =             21.8009189513086987
    One-Electron Energy =                -184.3827690506076351
    Two-Electron Energy =                  54.2202326040942211
    Total Energy =                       -108.3616174952047260

  UHF NO Occupations:
  HONO-2 :    2 Ag 1.9995010
  HONO-1 :    2B1u 1.9897859
  HONO-0 :    3 Ag 1.0000000
  LUNO+0 :    3B1u 0.0102141
  LUNO+1 :    4 Ag 0.0004990
  LUNO+2 :    2B2u 0.0001750
  LUNO+3 :    2B3u 0.0001750


Computation Completed


Properties will be evaluated at   0.000000,   0.000000,   0.000000 [a0]

Properties computed using the SCF density matrix

  Nuclear Dipole Moment: [e a0]
     X:     0.0000      Y:     0.0000      Z:     0.0000

  Electronic Dipole Moment: [e a0]
     X:     0.0000      Y:     0.0000      Z:     0.0000

  Dipole Moment: [e a0]
     X:     0.0000      Y:     0.0000      Z:     0.0000     Total:     0.0000

  Dipole Moment: [D]
     X:     0.0000      Y:     0.0000      Z:     0.0000     Total:     0.0000


*** tstop() called on n412-039.vsc4.prov at Tue Jan 26 18:31:26 2021
Module time:
	user time   =      13.07 seconds =       0.22 minutes
	system time =       0.83 seconds =       0.01 minutes
	total time  =          1 seconds =       0.02 minutes
Total time:
	user time   =      13.07 seconds =       0.22 minutes
	system time =       0.83 seconds =       0.01 minutes
	total time  =          1 seconds =       0.02 minutes

*** tstart() called on n412-039.vsc4.prov
*** at Tue Jan 26 18:31:26 2021


	Wfn Parameters:
	--------------------
	Wavefunction         = CCSD_T
	Number of irreps     = 8
	Number of MOs        = 46
	Number of active MOs = 44
	AO-Basis             = NONE
	Semicanonical        = false
	Reference            = UHF
	Print Level          = 1

	IRREP	# MOs	# FZDC	# DOCC	# SOCC	# VIRT	# FZVR
	-----	-----	------	------	------	------	------
	 Ag	   11	    1	    1	    1	    8	    0
	 B1g	   2	    0	    0	    0	    2	    0
	 B2g	   5	    0	    0	    0	    5	    0
	 B3g	   5	    0	    0	    0	    5	    0
	 Au	   2	    0	    0	    0	    2	    0
	 B1u	   11	    1	    1	    0	    9	    0
	 B2u	   5	    0	    1	    0	    4	    0
	 B3u	   5	    0	    1	    0	    4	    0
	Transforming integrals...
	IWL integrals will be deleted.
	(OO|OO)...
	Presorting SO-basis two-electron integrals.
	Sorting File: SO Ints (nn|nn) nbuckets = 1
	Constructing frozen core operators
	Starting AA/AB first half-transformation.
	Sorting AA/AB half-transformed integrals.
	Starting BB first half-transformation.
	Sorting BB half-transformed integrals.
	First half integral transformation complete.
	Starting AA second half-transformation.
	Starting AB second half-transformation.
	Starting BB second half-transformation.
	Two-electron integral transformation complete.
	(OO|OV)...
	Starting AA second half-transformation.
	Starting AB second half-transformation.
	Starting BB second half-transformation.
	Two-electron integral transformation complete.
	(OO|VV)...
	Starting AA second half-transformation.
	Starting AB second half-transformation.
	Starting BB second half-transformation.
	Two-electron integral transformation complete.
	(OV|OO)...
	Starting AA/AB first half-transformation.
	Sorting AA/AB half-transformed integrals.
	Starting BB first half-transformation.
	Sorting BB half-transformed integrals.
	First half integral transformation complete.
	Starting AA second half-transformation.
	Starting AB second half-transformation.
	Starting BB second half-transformation.
	Two-electron integral transformation complete.
	(OV|OV)...
	Starting AA second half-transformation.
	Starting AB second half-transformation.
	Starting BB second half-transformation.
	Two-electron integral transformation complete.
	(OV|VV)...
	Starting AA second half-transformation.
	Starting AB second half-transformation.
	Starting BB second half-transformation.
	Two-electron integral transformation complete.
	(VV|OO)...
	Starting AA/AB first half-transformation.
	Sorting AA/AB half-transformed integrals.
	Starting BB first half-transformation.
	Sorting BB half-transformed integrals.
	First half integral transformation complete.
	Starting AA second half-transformation.
	Starting AB second half-transformation.
	Starting BB second half-transformation.
	Two-electron integral transformation complete.
	(VV|OV)...
	Starting AA second half-transformation.
	Starting AB second half-transformation.
	Starting BB second half-transformation.
	Two-electron integral transformation complete.
	(VV|VV)...
	Starting AA second half-transformation.
	Starting AB second half-transformation.
	Starting BB second half-transformation.
	Two-electron integral transformation complete.
	Frozen core energy     =   -100.14409744072871

	Size of irrep 0 of <AB|CD> integrals:      0.010 (MW) /      0.077 (MB)
	Size of irrep 1 of <AB|CD> integrals:      0.006 (MW) /      0.045 (MB)
	Size of irrep 2 of <AB|CD> integrals:      0.009 (MW) /      0.071 (MB)
	Size of irrep 3 of <AB|CD> integrals:      0.009 (MW) /      0.071 (MB)
	Size of irrep 4 of <AB|CD> integrals:      0.005 (MW) /      0.044 (MB)
	Size of irrep 5 of <AB|CD> integrals:      0.013 (MW) /      0.108 (MB)
	Size of irrep 6 of <AB|CD> integrals:      0.009 (MW) /      0.072 (MB)
	Size of irrep 7 of <AB|CD> integrals:      0.009 (MW) /      0.072 (MB)
	Total:                                     0.070 (MW) /      0.559 (MB)

	Size of irrep 0 of <ab|cd> integrals:      0.011 (MW) /      0.090 (MB)
	Size of irrep 1 of <ab|cd> integrals:      0.006 (MW) /      0.047 (MB)
	Size of irrep 2 of <ab|cd> integrals:      0.010 (MW) /      0.078 (MB)
	Size of irrep 3 of <ab|cd> integrals:      0.010 (MW) /      0.078 (MB)
	Size of irrep 4 of <ab|cd> integrals:      0.006 (MW) /      0.046 (MB)
	Size of irrep 5 of <ab|cd> integrals:      0.016 (MW) /      0.125 (MB)
	Size of irrep 6 of <ab|cd> integrals:      0.010 (MW) /      0.078 (MB)
	Size of irrep 7 of <ab|cd> integrals:      0.010 (MW) /      0.078 (MB)
	Total:                                     0.078 (MW) /      0.622 (MB)

	Size of irrep 0 of <Ab|Cd> integrals:      0.059 (MW) /      0.472 (MB)
	Size of irrep 1 of <Ab|Cd> integrals:      0.023 (MW) /      0.185 (MB)
	Size of irrep 2 of <Ab|Cd> integrals:      0.037 (MW) /      0.298 (MB)
	Size of irrep 3 of <Ab|Cd> integrals:      0.037 (MW) /      0.298 (MB)
	Size of irrep 4 of <Ab|Cd> integrals:      0.022 (MW) /      0.180 (MB)
	Size of irrep 5 of <Ab|Cd> integrals:      0.058 (MW) /      0.465 (MB)
	Size of irrep 6 of <Ab|Cd> integrals:      0.038 (MW) /      0.301 (MB)
	Size of irrep 7 of <Ab|Cd> integrals:      0.038 (MW) /      0.301 (MB)
	Total:                                     0.313 (MW) /      2.500 (MB)

	Size of irrep 0 of <IA|BC> integrals:      0.008 (MW) /      0.062 (MB)
	Size of irrep 1 of <IA|BC> integrals:      0.002 (MW) /      0.017 (MB)
	Size of irrep 2 of <IA|BC> integrals:      0.005 (MW) /      0.038 (MB)
	Size of irrep 3 of <IA|BC> integrals:      0.005 (MW) /      0.038 (MB)
	Size of irrep 4 of <IA|BC> integrals:      0.002 (MW) /      0.019 (MB)
	Size of irrep 5 of <IA|BC> integrals:      0.008 (MW) /      0.067 (MB)
	Size of irrep 6 of <IA|BC> integrals:      0.004 (MW) /      0.035 (MB)
	Size of irrep 7 of <IA|BC> integrals:      0.004 (MW) /      0.035 (MB)
	Total:                                     0.039 (MW) /      0.310 (MB)

	Size of irrep 0 of <ia|bc> integrals:      0.007 (MW) /      0.052 (MB)
	Size of irrep 1 of <ia|bc> integrals:      0.002 (MW) /      0.015 (MB)
	Size of irrep 2 of <ia|bc> integrals:      0.004 (MW) /      0.032 (MB)
	Size of irrep 3 of <ia|bc> integrals:      0.004 (MW) /      0.032 (MB)
	Size of irrep 4 of <ia|bc> integrals:      0.002 (MW) /      0.017 (MB)
	Size of irrep 5 of <ia|bc> integrals:      0.007 (MW) /      0.056 (MB)
	Size of irrep 6 of <ia|bc> integrals:      0.004 (MW) /      0.032 (MB)
	Size of irrep 7 of <ia|bc> integrals:      0.004 (MW) /      0.032 (MB)
	Total:                                     0.033 (MW) /      0.267 (MB)

	Size of irrep 0 of <Ia|Bc> integrals:      0.009 (MW) /      0.068 (MB)
	Size of irrep 1 of <Ia|Bc> integrals:      0.002 (MW) /      0.017 (MB)
	Size of irrep 2 of <Ia|Bc> integrals:      0.005 (MW) /      0.039 (MB)
	Size of irrep 3 of <Ia|Bc> integrals:      0.005 (MW) /      0.039 (MB)
	Size of irrep 4 of <Ia|Bc> integrals:      0.002 (MW) /      0.019 (MB)
	Size of irrep 5 of <Ia|Bc> integrals:      0.009 (MW) /      0.071 (MB)
	Size of irrep 6 of <Ia|Bc> integrals:      0.005 (MW) /      0.037 (MB)
	Size of irrep 7 of <Ia|Bc> integrals:      0.005 (MW) /      0.037 (MB)
	Total:                                     0.041 (MW) /      0.327 (MB)

	Size of irrep 0 of <iA|bC> integrals:      0.006 (MW) /      0.049 (MB)
	Size of irrep 1 of <iA|bC> integrals:      0.002 (MW) /      0.015 (MB)
	Size of irrep 2 of <iA|bC> integrals:      0.004 (MW) /      0.031 (MB)
	Size of irrep 3 of <iA|bC> integrals:      0.004 (MW) /      0.031 (MB)
	Size of irrep 4 of <iA|bC> integrals:      0.002 (MW) /      0.017 (MB)
	Size of irrep 5 of <iA|bC> integrals:      0.007 (MW) /      0.052 (MB)
	Size of irrep 6 of <iA|bC> integrals:      0.004 (MW) /      0.029 (MB)
	Size of irrep 7 of <iA|bC> integrals:      0.004 (MW) /      0.029 (MB)
	Total:                                     0.032 (MW) /      0.253 (MB)

	Size of irrep 0 of tIjAb amplitudes:       0.001 (MW) /      0.010 (MB)
	Size of irrep 1 of tIjAb amplitudes:       0.000 (MW) /      0.002 (MB)
	Size of irrep 2 of tIjAb amplitudes:       0.000 (MW) /      0.003 (MB)
	Size of irrep 3 of tIjAb amplitudes:       0.000 (MW) /      0.003 (MB)
	Size of irrep 4 of tIjAb amplitudes:       0.000 (MW) /      0.000 (MB)
	Size of irrep 5 of tIjAb amplitudes:       0.001 (MW) /      0.006 (MB)
	Size of irrep 6 of tIjAb amplitudes:       0.001 (MW) /      0.005 (MB)
	Size of irrep 7 of tIjAb amplitudes:       0.001 (MW) /      0.005 (MB)
	Total:                                     0.004 (MW) /      0.033 (MB)

	Nuclear Rep. energy          =     21.80091895130870
	SCF energy                   =   -108.36161749520473
	One-electron energy          =    -48.91867916848290
	Two-electron (AA) energy     =      4.76033480948450
	Two-electron (BB) energy     =      2.90395459438387
	Two-electron (AB) energy     =     11.23595075882983
	Two-electron energy          =     18.90024016269820
	Reference energy             =   -108.36161749520471

*** tstop() called on n412-039.vsc4.prov at Tue Jan 26 18:31:28 2021
Module time:
	user time   =       0.08 seconds =       0.00 minutes
	system time =       0.24 seconds =       0.00 minutes
	total time  =          2 seconds =       0.03 minutes
Total time:
	user time   =      13.15 seconds =       0.22 minutes
	system time =       1.07 seconds =       0.02 minutes
	total time  =          3 seconds =       0.05 minutes
            **************************
            *                        *
            *        CCENERGY        *
            *                        *
            **************************

    Nuclear Rep. energy (wfn)     =   21.800918951308699
    SCF energy          (wfn)     = -108.361617495204726
    Reference energy    (file100) = -108.361617495204712

    Input parameters:
    -----------------
    Wave function   =     CCSD_T
    Reference wfn   =     UHF
    Brueckner       =     No
    Memory (Mbytes) =     250000.0
    Maxiter         =     50
    R_Convergence   =     1.0e-07
    E_Convergence   =     1.0e-06
    Restart         =     Yes
    DIIS            =     Yes
    AO Basis        =     NONE
    ABCD            =     NEW
    Cache Level     =     2
    Cache Type      =     LRU
    Print Level     =     1
    Num. of threads =     48
    # Amps to Print =     10
    Print MP2 Amps? =     No
    Analyze T2 Amps =     No
    Print Pair Ener =     No
    Local CC        =     No
    SCS-MP2         =     False
    SCSN-MP2        =     False
    SCS-CCSD        =     False

MP2 correlation energy -0.3600911199849676
                Solving CC Amplitude Equations
                ------------------------------
  Iter             Energy              RMS        T1Diag      D1Diag    New D1Diag    D2Diag
  ----     ---------------------    ---------   ----------  ----------  ----------   --------
     0        -0.360091119984968    0.000e+00    0.000000    0.000000    0.000000    0.000000
     1        -0.312329330788064    1.450e-01    0.029914    0.000000    0.000000    0.000000
     2        -0.339402664411191    5.678e-02    0.027640    0.000000    0.000000    0.000000
     3        -0.344961566113285    2.193e-02    0.033564    0.000000    0.000000    0.000000
     4        -0.346336683198391    6.564e-03    0.034693    0.000000    0.000000    0.000000
     5        -0.346184793456262    1.733e-03    0.034788    0.000000    0.000000    0.000000
     6        -0.346186581420210    4.775e-04    0.034754    0.000000    0.000000    0.000000
     7        -0.346221261218007    1.486e-04    0.034754    0.000000    0.000000    0.000000
     8        -0.346210686040251    6.057e-05    0.034751    0.000000    0.000000    0.000000
     9        -0.346211960091016    2.453e-05    0.034753    0.000000    0.000000    0.000000
    10        -0.346212179437155    8.505e-06    0.034754    0.000000    0.000000    0.000000
    11        -0.346211977948613    2.833e-06    0.034754    0.000000    0.000000    0.000000
    12        -0.346212097404731    1.120e-06    0.034753    0.000000    0.000000    0.000000
    13        -0.346212079485937    3.743e-07    0.034753    0.000000    0.000000    0.000000
    14        -0.346212105234510    1.106e-07    0.034753    0.000000    0.000000    0.000000
    15        -0.346212103352423    3.295e-08    0.034753    0.000000    0.000000    0.000000

    Iterations converged.


    Largest TIA Amplitudes:
              3  33         0.0242801288
              4  37         0.0242801288
              2  24         0.0239744418
              1   0        -0.0131941978
              4  38         0.0124850623
              3  34         0.0124850623
              3  31         0.0116863931
              4  35         0.0116863930
              2  27         0.0102364179
              4  36        -0.0084753756

    Largest Tia Amplitudes:
              0   0         0.0603165080
              1  25        -0.0371359792
              1  28        -0.0302128147
              2  34         0.0244959452
              3  38         0.0244959451
              3  39         0.0120340547
              2  35         0.0120340547
              2  32         0.0113942301
              3  36         0.0113942300
              0   1         0.0080155776

    Largest TIJAB Amplitudes:
      4   3  15  10         0.0301413016
      4   1  24  10        -0.0233887946
      3   1  24  15        -0.0233887946
      4   1  27  10        -0.0148679936
      3   1  27  15        -0.0148679936
      4   3   8   2         0.0110773002
      4   3  37  33        -0.0102706979
      3   2  10   8         0.0095729205
      3   2  15   2        -0.0095729205
      4   2  10   2         0.0095729205

    Largest Tijab Amplitudes:
      3   1  11   0         0.0430233706
      2   1  16   0         0.0430233706
      3   2  16  11         0.0414947459
      1   0  25   0        -0.0146889229
      2   1  16   1         0.0130020525
      3   1  11   1         0.0130020525
      3   2   9   3         0.0116212887
      2   1  11   9         0.0110474262
      2   1  16   3        -0.0110474261
      3   1  11   3         0.0110474261

    Largest TIjAb Amplitudes:
      4   3  10  11        -0.1288435458
      3   2  15  16        -0.1288435457
      3   1  15   0         0.1026346760
      4   1  10   0         0.1026346760
      3   3  15  11        -0.0731037158
      4   2  10  16        -0.0731037158
      2   1  10  11        -0.0585048659
      2   1  15  16        -0.0585048658
      2   2  15   0         0.0557470930
      2   3  10   0         0.0557470929

    SCF energy       (wfn)                    = -108.361617495204726
    Reference energy (file100)                = -108.361617495204712

    Opposite-spin MP2 correlation energy      =   -0.261640350432797
    Same-spin MP2 correlation energy          =   -0.098450769552171
    Singles MP2 correlation energy            =   -0.000000000000000
    MP2 correlation energy                    =   -0.360091119984968
      * MP2 total energy                      = -108.721708615189684

    Opposite-spin CCSD correlation energy     =   -0.279495810386345
    Same-spin CCSD correlation energy         =   -0.066716292966078
    Singles CCSD correlation energy           =   -0.000000000000000
    CCSD correlation energy                   =   -0.346212103352423
      * CCSD total energy                     = -108.707829598557140

            **************************
            *                        *
            *        CCTRIPLES       *
            *                        *
            **************************


    Wave function   =    CCSD_T
    Reference wfn   =      UHF

    Nuclear Rep. energy (wfn)                =   21.800918951308699
    SCF energy          (wfn)                = -108.361617495204726
    Reference energy    (file100)            = -108.361617495204712
    CCSD energy         (file100)            =   -0.346212103352423
    Total CCSD energy   (file100)            = -108.707829598557140

    Number of ijk index combinations:
    Spin Case AAA:                                  10
    Spin Case BBB:                                   4
    Spin Case AAB:                                  40
    Spin Case ABB:                                  30
    AAA (T) energy                             =   -0.000205283092519
    BBB (T) energy                             =   -0.000352723037950
    AAB (T) energy                             =   -0.010019588128082
    ABB (T) energy                             =   -0.010227332241338
    (T) energy                                   =   -0.020804926499889
      * CCSD(T) total energy                     = -108.728634525057018


    Psi4 stopped on: Tuesday, 26 January 2021 06:31PM
    Psi4 wall time for execution: 0:00:08.30

*** Psi4 exiting successfully. Buy a developer a beer!
