
    -----------------------------------------------------------------------
          Psi4: An Open-Source Ab Initio Electronic Structure Package
                               Psi4 1.4a3.dev88 

                         Git: Rev {master} 262e345 


    D. G. A. Smith, L. A. Burns, A. C. Simmonett, R. M. Parrish,
    M. C. Schieber, R. Galvelis, P. Kraus, H. Kruse, R. Di Remigio,
    A. Alenaizan, A. M. James, S. Lehtola, J. P. Misiewicz, M. Scheurer,
    R. A. Shaw, J. B. Schriber, Y. Xie, Z. L. Glick, D. A. Sirianni,
    J. S. O'Brien, J. M. Waldrop, A. Kumar, E. G. Hohenstein,
    B. P. Pritchard, B. R. Brooks, H. F. Schaefer III, A. Yu. Sokolov,
    K. Patkowski, A. E. DePrince III, U. Bozkaya, R. A. King,
    F. A. Evangelista, J. M. Turney, T. D. Crawford, C. D. Sherrill,
    J. Chem. Phys. 152(18) 184108 (2020). https://doi.org/10.1063/5.0006002

                            Additional Code Authors
    E. T. Seidl, C. L. Janssen, E. F. Valeev, M. L. Leininger,
    J. F. Gonthier, R. M. Richard, H. R. McAlexander, M. Saitow, X. Wang,
    P. Verma, and M. H. Lechner

             Previous Authors, Complete List of Code Contributors,
                       and Citations for Specific Modules
    https://github.com/psi4/psi4/blob/master/codemeta.json
    https://github.com/psi4/psi4/graphs/contributors
    http://psicode.org/psi4manual/master/introduction.html#citing-psifour

    -----------------------------------------------------------------------


    Psi4 started on: Friday, 22 January 2021 01:22AM

    Process ID: 29470
    Host:       n412-045.vsc4.prov
    PSIDATADIR: /home/fs71337/gallo4/psi4/psi4/build/stage/share/psi4
    Memory:     500.0 MiB
    Threads:    48
    
  ==> Input File <==

--------------------------------------------------------------------------
# Any line starting with the # character is a comment line
memory 250000 mb
molecule molecule{
1 2
N          0.0000000000        0.0000000000        0.5946924389
N          0.0000000000        0.0000000000       -0.5946924389
}

set {
  reference uhf
  basis aug-cc-pV(5+d)Z
  scf_type OUT_OF_CORE
  freeze_core true
}

energy('ccsd(t)')
--------------------------------------------------------------------------

  Memory set to 232.831 GiB by Python driver.

Scratch directory: /binfl/lv71337/airmler/temp/

*** tstart() called on n412-045.vsc4.prov
*** at Fri Jan 22 01:22:26 2021

   => Loading Basis Set <=

    Name: AUG-CC-PV(5+D)Z
    Role: ORBITAL
    Keyword: BASIS
    atoms 1-2 entry N          line   491 file /home/fs71337/gallo4/psi4/psi4/build/stage/share/psi4/basis/aug-cc-pv_5pd_z.gbs 


         ---------------------------------------------------------
                                   SCF
               by Justin Turney, Rob Parrish, Andy Simmonett
                          and Daniel G. A. Smith
                              UHF Reference
                       48 Threads, 238418 MiB Core
         ---------------------------------------------------------

  ==> Geometry <==

    Molecular point group: d2h
    Full point group: D_inf_h

    Geometry (in Angstrom), charge = 1, multiplicity = 2:

       Center              X                  Y                   Z               Mass       
    ------------   -----------------  -----------------  -----------------  -----------------
         N            0.000000000000     0.000000000000     0.594692438900    14.003074004430
         N            0.000000000000     0.000000000000    -0.594692438900    14.003074004430

  Running in d2h symmetry.

  Rotational constants: A = ************  B =      1.70200  C =      1.70200 [cm^-1]
  Rotational constants: A = ************  B =  51024.52684  C =  51024.52684 [MHz]
  Nuclear repulsion =   21.800918951308699

  Charge       = 1
  Multiplicity = 2
  Electrons    = 13
  Nalpha       = 7
  Nbeta        = 6

  ==> Algorithm <==

  SCF Algorithm Type is OUT_OF_CORE.
  DIIS enabled.
  MOM disabled.
  Fractional occupation disabled.
  Guess Type is SAD.
  Energy threshold   = 1.00e-08
  Density threshold  = 1.00e-08
  Integral threshold = 1.00e-12

  ==> Primary Basis <==

  Basis Set: AUG-CC-PV(5+D)Z
    Blend: AUG-CC-PV(5+D)Z
    Number of shells: 54
    Number of basis function: 254
    Number of Cartesian functions: 364
    Spherical Harmonics?: true
    Max angular momentum: 5

  ==> Integral Setup <==

  ==> DiskJK: Disk-Based J/K Matrices <==

    J tasked:                  Yes
    K tasked:                  Yes
    wK tasked:                  No
    Memory [MiB]:           178813
    Schwarz Cutoff:          1E-12

  Minimum eigenvalue in the overlap matrix is 1.6619540645E-05.
  Reciprocal condition number of the overlap matrix is 2.5530157953E-06.
    Using symmetric orthogonalization.

  ==> Pre-Iterations <==

  SCF Guess: Superposition of Atomic Densities via on-the-fly atomic UHF (no occupation information).


 WARNING: Atomic UHF is not converging! Try casting from a smaller basis or call Rob at CCMST.
   -------------------------
    Irrep   Nso     Nmo    
   -------------------------
     Ag        46      46 
     B1g       19      19 
     B2g       31      31 
     B3g       31      31 
     Au        19      19 
     B1u       46      46 
     B2u       31      31 
     B3u       31      31 
   -------------------------
    Total     254     254
   -------------------------

  ==> Iterations <==

                        Total Energy        Delta E     RMS |[F,P]|

   @UHF iter SAD:    -2.61273697390371   -2.61274e+00   0.00000e+00 
   @UHF iter   1:  -108.06579340789546   -1.05453e+02   1.26818e-02 DIIS
   @UHF iter   2:  -108.42073331117041   -3.54940e-01   1.87147e-03 DIIS
   @UHF iter   3:  -108.42760926966311   -6.87596e-03   2.05808e-04 DIIS
   @UHF iter   4:  -108.42784219280377   -2.32923e-04   5.49570e-05 DIIS
   @UHF iter   5:  -108.42786184241159   -1.96496e-05   7.39210e-06 DIIS
   @UHF iter   6:  -108.42786223006158   -3.87650e-07   1.94519e-06 DIIS
   @UHF iter   7:  -108.42786226284156   -3.27800e-08   5.12571e-07 DIIS
   @UHF iter   8:  -108.42786226519775   -2.35619e-09   5.89035e-08 DIIS
   @UHF iter   9:  -108.42786226521980   -2.20552e-11   9.40857e-09 DIIS
  Energy and wave function converged.


  ==> Post-Iterations <==

   @Spin Contamination Metric:   3.360120813E-03
   @S^2 Expected:                7.500000000E-01
   @S^2 Observed:                7.533601208E-01
   @S   Expected:                5.000000000E-01
   @S   Observed:                5.000000000E-01

    Orbital Energies [Eh]
    ---------------------

    Alpha Occupied:                                                       

       1Ag   -16.189073     1B1u  -16.186707     2Ag    -1.903276  
       2B1u   -1.232800     1B2u   -1.067217     3Ag    -1.040023  
       1B3u   -1.012731  

    Alpha Virtual:                                                        

       1B3g   -0.320252     1B2g   -0.278425     4Ag    -0.111450  
       2B2u   -0.088488     3B1u   -0.084644     2B3u   -0.083398  
       5Ag    -0.041678     2B3g   -0.029611     2B2g   -0.026909  
       4B1u    0.032336     1B1g    0.040751     6Ag     0.040757  
       7Ag     0.107168     3B2u    0.136537     5B1u    0.142187  
       3B3u    0.146279     3B3g    0.156821     1Au     0.162089  
       3B2g    0.162217     6B1u    0.162561     4B2u    0.164553  
       4B3u    0.172176     8Ag     0.248576     7B1u    0.251401  
       9Ag     0.362229     8B1u    0.375856     4B3g    0.378229  
       4B2g    0.387137     5B2u    0.465917     5B3u    0.465922  
       2B1g    0.501943    10Ag     0.502962     6B2u    0.587534  
       6B3u    0.600493     9B1u    0.610600     2Au     0.610734  
      10B1u    0.650927     5B3g    0.668945     5B2g    0.669009  
      11Ag     0.676748     3B1g    0.679986     6B3g    0.682669  
      12Ag     0.688254     6B2g    0.688510    11B1u    0.790710  
      13Ag     0.877890     7B2u    0.884728     7B3u    0.901449  
       8B2u    0.986041     8B3u    1.014081    12B1u    1.029490  
       3Au     1.029510     7B3g    1.083528     7B2g    1.101216  
      13B1u    1.158306    14B1u    1.497442     8B3g    1.535004  
       8B2g    1.553773    14Ag     1.566894    15Ag     1.683774  
       4B1g    1.691103    16Ag     1.691108     9B2u    1.749529  
       9B3u    1.749541     5B1g    1.768470    17Ag     1.771484  
      10B2u    1.867633    10B3u    1.897847    11B2u    2.016267  
      11B3u    2.016703     9B3g    2.027233     9B2g    2.027237  
      12B2u    2.040339    18Ag     2.041687     6B1g    2.042455  
      12B3u    2.052892    15B1u    2.053346     4Au     2.053595  
      16B1u    2.060456     5Au     2.072469    17B1u    2.074987  
       6Au     2.081573    18B1u    2.083288    19Ag     2.153828  
      10B3g    2.310205    10B2g    2.323017    20Ag     2.424790  
      19B1u    2.472219    11B3g    2.489085    11B2g    2.511817  
      12B3g    2.585650    12B2g    2.585792     7B1g    2.614265  
      21Ag     2.615464    13B2u    3.059617    13B3u    3.087241  
      20B1u    3.201139    13B3g    3.401350    13B2g    3.432530  
      21B1u    3.481428     7Au     3.483380    14B2u    3.575316  
      22B1u    3.587492    14B3u    3.608703    22Ag     3.702361  
      23Ag     3.951010    15B2u    4.146285    15B3u    4.146285  
       8B1g    4.232589    24Ag     4.232589    14B3g    4.473052  
      14B2g    4.509434    15B3g    4.583646    15B2g    4.583646  
      16B2u    4.659500    16B3u    4.660483    17B2u    4.685972  
      17B3u    4.718609    25Ag     4.780258     9B1g    4.780349  
      23B1u    4.861438     8Au     4.868231    24B1u    4.894360  
      26Ag     5.113343    10B1g    5.113343    27Ag     5.174434  
      25B1u    5.187982     9Au     5.187982    26B1u    5.250124  
      18B2u    5.284099    18B3u    5.284135    16B3g    5.287147  
      16B2g    5.288100    17B3g    5.306770    17B2g    5.324028  
      28Ag     5.356046    11B1g    5.358916    10Au     5.404541  
      27B1u    5.405610    29Ag     5.415397    19B2u    5.435658  
      19B3u    5.435675    20B2u    5.462127    11Au     5.469909  
      28B1u    5.469911    20B3u    5.484338    18B3g    5.570785  
      18B2g    5.570797    21B2u    5.810118    21B3u    5.838909  
      19B3g    5.895652    19B2g    5.921216    12B1g    6.085627  
      30Ag     6.085820    31Ag     6.314058    29B1u    6.683511  
      13B1g    6.707572    32Ag     6.708650    20B3g    6.776129  
      20B2g    6.776141    12Au     6.846414    30B1u    6.846882  
      31B1u    7.337647    21B3g    7.408318    21B2g    7.444252  
      32B1u    7.781266    33Ag     8.013741    22B2u    8.273299  
      22B3u    8.306820    13Au     8.492460    33B1u    8.493162  
      22B3g    9.260520    22B2g    9.292605    34Ag     9.324936  
      23B2u   11.446803    23B3u   11.446823    35Ag    11.652019  
      14B1g   11.652221    36Ag    11.671649    15B1g   11.672870  
      24B2u   11.798168    24B3u   11.810908    25B2u   11.810910  
      34B1u   11.829003    25B3u   11.830269    37Ag    11.960284  
      26B2u   11.985312    23B3g   12.005476    23B2g   12.005476  
      26B3u   12.022711    35B1u   12.457487    14Au    12.457487  
      24B3g   12.562982    24B2g   12.595949    25B3g   12.733107  
      25B2g   12.758776    36B1u   12.903422    15Au    13.221544  
      37B1u   13.222280    26B3g   13.313605    26B2g   13.313616  
      38Ag    13.427027    27B2u   13.941989    27B3u   13.941997  
      39Ag    14.030714    16B1g   14.064487    40Ag    14.064490  
      28B2u   14.067189    28B3u   14.093552    38B1u   14.211277  
      16Au    14.211277    29B2u   14.213928    29B3u   14.214110  
      27B3g   14.233320    27B2g   14.233324    17B1g   14.254906  
      41Ag    14.255779    28B3g   14.621564    28B2g   14.621567  
      18B1g   14.659919    42Ag    14.660544    39B1u   15.001913  
      17Au    15.003534    40B1u   15.031285    41B1u   15.585420  
      29B3g   15.654123    29B2g   15.689945    42B1u   15.900017  
      18Au    15.952263    43B1u   15.954025    30B2u   15.968564  
      30B3u   16.001287    43Ag    16.973216    19B1g   17.010356  
      44Ag    17.012974    19Au    18.178377    44B1u   18.178501  
      30B3g   18.364143    30B2g   18.391424    31B2u   18.671557  
      31B3u   18.701911    31B3g   19.356977    31B2g   19.389082  
      45B1u   20.901454    45Ag    21.104202    46Ag    48.460438  
      46B1u   54.124196  

    Beta Occupied:                                                        

       1Ag   -16.175706     1B1u  -16.173823     2Ag    -1.802526  
       2B1u   -1.186377     3Ag    -1.024097     1B3u   -0.991922  

    Beta Virtual:                                                         

       1B2u   -0.482452     1B2g   -0.265759     1B3g   -0.164133  
       4Ag    -0.108321     3B1u   -0.083644     2B3u   -0.082941  
       2B2u   -0.080006     5Ag    -0.040586     2B2g   -0.026421  
       2B3g   -0.022197     4B1u    0.034458     1B1g    0.047407  
       6Ag     0.047504     7Ag     0.110812     5B1u    0.145602  
       3B3u    0.147466     3B2u    0.155292     1Au     0.162783  
       6B1u    0.163011     3B2g    0.163355     3B3g    0.170609  
       4B3u    0.172904     4B2u    0.173722     8Ag     0.251626  
       7B1u    0.261314     9Ag     0.371941     4B2g    0.388563  
       8B1u    0.393003     4B3g    0.393418     5B3u    0.469252  
       5B2u    0.469255     2B1g    0.531211    10Ag     0.531395  
       6B3u    0.601265     6B2u    0.601535     9B1u    0.614906  
       2Au     0.615205    10B1u    0.658028     5B3g    0.670104  
       5B2g    0.670118    11Ag     0.680280     3B1g    0.682511  
       6B3g    0.685642    12Ag     0.688005     6B2g    0.688406  
      11B1u    0.791993    13Ag     0.885356     7B3u    0.903525  
       7B2u    0.911550     8B3u    1.019957     8B2u    1.029055  
      12B1u    1.039191     3Au     1.039333     7B2g    1.104289  
       7B3g    1.113872    13B1u    1.164928    14B1u    1.501797  
       8B3g    1.548306     8B2g    1.555535    14Ag     1.575304  
       4B1g    1.696488    15Ag     1.696488    16Ag     1.700230  
       9B3u    1.766656     9B2u    1.766661     5B1g    1.802092  
      17Ag     1.802353    10B3u    1.902833    10B2u    1.910749  
      11B2u    2.020186    11B3u    2.020391     9B3g    2.033755  
       9B2g    2.033756    12B2u    2.044203    12B3u    2.052466  
       6B1g    2.055578    18Ag     2.055672    15B1u    2.056866  
       4Au     2.056942    16B1u    2.064264     5Au     2.077799  
      17B1u    2.080312    18B1u    2.099888     6Au     2.099919  
      19Ag     2.161760    10B3g    2.315407    10B2g    2.322852  
      20Ag     2.431931    19B1u    2.478478    11B3g    2.507962  
      11B2g    2.514683    12B3g    2.591529    12B2g    2.591550  
       7B1g    2.623705    21Ag     2.624020    13B2u    3.089307  
      13B3u    3.091341    20B1u    3.206677    13B3g    3.434994  
      13B2g    3.437528    21B1u    3.499813     7Au     3.500789  
      22B1u    3.596515    14B2u    3.609101    14B3u    3.613973  
      22Ag     3.711130    23Ag     3.972017    15B2u    4.153002  
      15B3u    4.153002     8B1g    4.241569    24Ag     4.241569  
      14B3g    4.505678    14B2g    4.515291    15B3g    4.588760  
      15B2g    4.588760    16B2u    4.679075    16B3u    4.679450  
      17B2u    4.708459    17B3u    4.721978     9B1g    4.801710  
      25Ag     4.801717    23B1u    4.875723     8Au     4.878901  
      24B1u    4.897301    26Ag     5.124671    10B1g    5.124671  
      27Ag     5.181234    25B1u    5.191546     9Au     5.191546  
      26B1u    5.253205    18B2u    5.289047    18B3u    5.289060  
      16B3g    5.293245    16B2g    5.293676    17B3g    5.311585  
      17B2g    5.323693    28Ag     5.363536    11B1g    5.364716  
      10Au     5.409563    27B1u    5.410087    29Ag     5.419345  
      19B2u    5.452719    19B3u    5.452721    20B2u    5.470813  
      11Au     5.481510    28B1u    5.481510    20B3u    5.484721  
      18B3g    5.588100    18B2g    5.588103    21B2u    5.830039  
      21B3u    5.841620    19B3g    5.903519    19B2g    5.922769  
      30Ag     6.111351    12B1g    6.111403    31Ag     6.320955  
      29B1u    6.694232    13B1g    6.717752    32Ag     6.718254  
      20B3g    6.785805    20B2g    6.785807    30B1u    6.867985  
      12Au     6.868086    31B1u    7.350791    21B3g    7.434282  
      21B2g    7.448459    32B1u    7.787779    33Ag     8.021952  
      22B2u    8.295787    22B3u    8.310635    13Au     8.507390  
      33B1u    8.507623    22B3g    9.278408    22B2g    9.295550  
      34Ag     9.336624    23B2u   11.457735    23B3u   11.457741  
      35Ag    11.663615    14B1g   11.663685    36Ag    11.682006  
      15B1g   11.682596    24B2u   11.818812    24B3u   11.822000  
      25B2u   11.822002    25B3u   11.833571    34B1u   11.839704  
      37Ag    11.965955    26B2u   12.009050    23B3g   12.016428  
      23B2g   12.016428    26B3u   12.027063    35B1u   12.467376  
      14Au    12.467376    24B3g   12.588107    24B2g   12.600661  
      25B3g   12.741721    25B2g   12.760132    36B1u   12.908539  
      15Au    13.226753    37B1u   13.227156    26B3g   13.321356  
      26B2g   13.321361    38Ag    13.438365    27B2u   13.961447  
      27B3u   13.961448    39Ag    14.036799    28B2u   14.078210  
      16B1g   14.079995    40Ag    14.079996    28B3u   14.095556  
      29B2u   14.225053    29B3u   14.225105    38B1u   14.226446  
      16Au    14.226446    27B3g   14.250663    27B2g   14.250664  
      17B1g   14.266980    41Ag    14.267318    28B3g   14.634934  
      28B2g   14.634935    18B1g   14.670170    42Ag    14.670453  
      39B1u   15.014648    17Au    15.015730    40B1u   15.037742  
      41B1u   15.591242    29B3g   15.670424    29B2g   15.692910  
      42B1u   15.908857    18Au    15.963511    43B1u   15.964197  
      30B2u   15.985019    30B3u   16.004344    43Ag    16.981526  
      19B1g   17.027778    44Ag    17.028168    19Au    18.193746  
      44B1u   18.193788    30B3g   18.377673    30B2g   18.393581  
      31B2u   18.687075    31B3u   18.704618    31B3g   19.370555  
      31B2g   19.391756    45B1u   20.905565    45Ag    21.108257  
      46Ag    48.465861    46B1u   54.129013  

    Final Occupation by Irrep:
             Ag   B1g   B2g   B3g    Au   B1u   B2u   B3u 
    DOCC [     3,    0,    0,    0,    0,    2,    0,    1 ]
    SOCC [     0,    0,    0,    0,    0,    0,    1,    0 ]

  @UHF Final Energy:  -108.42786226521980

   => Energetics <=

    Nuclear Repulsion Energy =             21.8009189513086987
    One-Electron Energy =                -184.4712842292607036
    Two-Electron Energy =                  54.2425030127322216
    Total Energy =                       -108.4278622652198010

  UHF NO Occupations:
  HONO-2 :    2B1u 1.9992866
  HONO-1 :    3 Ag 1.9991681
  HONO-0 :    1B2u 1.0000000
  LUNO+0 :    4 Ag 0.0008319
  LUNO+1 :    3B1u 0.0007134
  LUNO+2 :    2B3u 0.0000703
  LUNO+3 :    5 Ag 0.0000644


Computation Completed


Properties will be evaluated at   0.000000,   0.000000,   0.000000 [a0]

Properties computed using the SCF density matrix

  Nuclear Dipole Moment: [e a0]
     X:     0.0000      Y:     0.0000      Z:     0.0000

  Electronic Dipole Moment: [e a0]
     X:     0.0000      Y:     0.0000      Z:     0.0000

  Dipole Moment: [e a0]
     X:     0.0000      Y:     0.0000      Z:     0.0000     Total:     0.0000

  Dipole Moment: [D]
     X:     0.0000      Y:     0.0000      Z:     0.0000     Total:     0.0000


*** tstop() called on n412-045.vsc4.prov at Fri Jan 22 01:24:07 2021
Module time:
	user time   =     133.06 seconds =       2.22 minutes
	system time =       7.00 seconds =       0.12 minutes
	total time  =        101 seconds =       1.68 minutes
Total time:
	user time   =     133.06 seconds =       2.22 minutes
	system time =       7.00 seconds =       0.12 minutes
	total time  =        101 seconds =       1.68 minutes

*** tstart() called on n412-045.vsc4.prov
*** at Fri Jan 22 01:24:07 2021


	Wfn Parameters:
	--------------------
	Wavefunction         = CCSD_T
	Number of irreps     = 8
	Number of MOs        = 254
	Number of active MOs = 252
	AO-Basis             = NONE
	Semicanonical        = false
	Reference            = UHF
	Print Level          = 1

	IRREP	# MOs	# FZDC	# DOCC	# SOCC	# VIRT	# FZVR
	-----	-----	------	------	------	------	------
	 Ag	   46	    1	    2	    0	    43	    0
	 B1g	   19	    0	    0	    0	    19	    0
	 B2g	   31	    0	    0	    0	    31	    0
	 B3g	   31	    0	    0	    0	    31	    0
	 Au	   19	    0	    0	    0	    19	    0
	 B1u	   46	    1	    1	    0	    44	    0
	 B2u	   31	    0	    0	    1	    30	    0
	 B3u	   31	    0	    1	    0	    30	    0
	Transforming integrals...
	IWL integrals will be deleted.
	(OO|OO)...
	Presorting SO-basis two-electron integrals.
	Sorting File: SO Ints (nn|nn) nbuckets = 1
	Constructing frozen core operators
	Starting AA/AB first half-transformation.
	Sorting AA/AB half-transformed integrals.
	Starting BB first half-transformation.
	Sorting BB half-transformed integrals.
	First half integral transformation complete.
	Starting AA second half-transformation.
	Starting AB second half-transformation.
	Starting BB second half-transformation.
	Two-electron integral transformation complete.
	(OO|OV)...
	Starting AA second half-transformation.
	Starting AB second half-transformation.
	Starting BB second half-transformation.
	Two-electron integral transformation complete.
	(OO|VV)...
	Starting AA second half-transformation.
	Starting AB second half-transformation.
	Starting BB second half-transformation.
	Two-electron integral transformation complete.
	(OV|OO)...
	Starting AA/AB first half-transformation.
	Sorting AA/AB half-transformed integrals.
	Starting BB first half-transformation.
	Sorting BB half-transformed integrals.
	First half integral transformation complete.
	Starting AA second half-transformation.
	Starting AB second half-transformation.
	Starting BB second half-transformation.
	Two-electron integral transformation complete.
	(OV|OV)...
	Starting AA second half-transformation.
	Starting AB second half-transformation.
	Starting BB second half-transformation.
	Two-electron integral transformation complete.
	(OV|VV)...
	Starting AA second half-transformation.
	Starting AB second half-transformation.
	Starting BB second half-transformation.
	Two-electron integral transformation complete.
	(VV|OO)...
	Starting AA/AB first half-transformation.
	Sorting AA/AB half-transformed integrals.
	Starting BB first half-transformation.
	Sorting BB half-transformed integrals.
	First half integral transformation complete.
	Starting AA second half-transformation.
	Starting AB second half-transformation.
	Starting BB second half-transformation.
	Two-electron integral transformation complete.
	(VV|OV)...
	Starting AA second half-transformation.
	Starting AB second half-transformation.
	Starting BB second half-transformation.
	Two-electron integral transformation complete.
	(VV|VV)...
	Starting AA second half-transformation.
	Starting AB second half-transformation.
	Starting BB second half-transformation.
	Two-electron integral transformation complete.
	Frozen core energy     =   -100.14817895582817

	Size of irrep 0 of <AB|CD> integrals:     15.928 (MW) /    127.425 (MB)
	Size of irrep 1 of <AB|CD> integrals:     12.348 (MW) /     98.786 (MB)
	Size of irrep 2 of <AB|CD> integrals:     14.531 (MW) /    116.251 (MB)
	Size of irrep 3 of <AB|CD> integrals:     14.531 (MW) /    116.251 (MB)
	Size of irrep 4 of <AB|CD> integrals:     12.341 (MW) /     98.729 (MB)
	Size of irrep 5 of <AB|CD> integrals:     16.917 (MW) /    135.334 (MB)
	Size of irrep 6 of <AB|CD> integrals:     14.539 (MW) /    116.312 (MB)
	Size of irrep 7 of <AB|CD> integrals:     14.539 (MW) /    116.312 (MB)
	Total:                                   115.675 (MW) /    925.399 (MB)

	Size of irrep 0 of <ab|cd> integrals:     16.168 (MW) /    129.348 (MB)
	Size of irrep 1 of <ab|cd> integrals:     12.560 (MW) /    100.479 (MB)
	Size of irrep 2 of <ab|cd> integrals:     14.677 (MW) /    117.412 (MB)
	Size of irrep 3 of <ab|cd> integrals:     14.869 (MW) /    118.950 (MB)
	Size of irrep 4 of <ab|cd> integrals:     12.560 (MW) /    100.479 (MB)
	Size of irrep 5 of <ab|cd> integrals:     17.173 (MW) /    137.382 (MB)
	Size of irrep 6 of <ab|cd> integrals:     14.869 (MW) /    118.950 (MB)
	Size of irrep 7 of <ab|cd> integrals:     14.684 (MW) /    117.474 (MB)
	Total:                                   117.559 (MW) /    940.474 (MB)

	Size of irrep 0 of <Ab|Cd> integrals:     68.211 (MW) /    545.689 (MB)
	Size of irrep 1 of <Ab|Cd> integrals:     49.815 (MW) /    398.523 (MB)
	Size of irrep 2 of <Ab|Cd> integrals:     58.415 (MW) /    467.324 (MB)
	Size of irrep 3 of <Ab|Cd> integrals:     58.798 (MW) /    470.386 (MB)
	Size of irrep 4 of <Ab|Cd> integrals:     49.801 (MW) /    398.410 (MB)
	Size of irrep 5 of <Ab|Cd> integrals:     68.178 (MW) /    545.424 (MB)
	Size of irrep 6 of <Ab|Cd> integrals:     58.814 (MW) /    470.508 (MB)
	Size of irrep 7 of <Ab|Cd> integrals:     58.446 (MW) /    467.568 (MB)
	Total:                                   470.479 (MW) /   3763.832 (MB)

	Size of irrep 0 of <IA|BC> integrals:      1.564 (MW) /     12.508 (MB)
	Size of irrep 1 of <IA|BC> integrals:      0.822 (MW) /      6.578 (MB)
	Size of irrep 2 of <IA|BC> integrals:      1.182 (MW) /      9.454 (MB)
	Size of irrep 3 of <IA|BC> integrals:      1.182 (MW) /      9.454 (MB)
	Size of irrep 4 of <IA|BC> integrals:      0.836 (MW) /      6.689 (MB)
	Size of irrep 5 of <IA|BC> integrals:      1.588 (MW) /     12.701 (MB)
	Size of irrep 6 of <IA|BC> integrals:      1.167 (MW) /      9.334 (MB)
	Size of irrep 7 of <IA|BC> integrals:      1.167 (MW) /      9.334 (MB)
	Total:                                     9.506 (MW) /     76.052 (MB)

	Size of irrep 0 of <ia|bc> integrals:      1.326 (MW) /     10.611 (MB)
	Size of irrep 1 of <ia|bc> integrals:      0.624 (MW) /      4.990 (MB)
	Size of irrep 2 of <ia|bc> integrals:      1.042 (MW) /      8.336 (MB)
	Size of irrep 3 of <ia|bc> integrals:      0.864 (MW) /      6.910 (MB)
	Size of irrep 4 of <ia|bc> integrals:      0.624 (MW) /      4.990 (MB)
	Size of irrep 5 of <ia|bc> integrals:      1.343 (MW) /     10.741 (MB)
	Size of irrep 6 of <ia|bc> integrals:      0.864 (MW) /      6.910 (MB)
	Size of irrep 7 of <ia|bc> integrals:      1.027 (MW) /      8.216 (MB)
	Total:                                     7.713 (MW) /     61.704 (MB)

	Size of irrep 0 of <Ia|Bc> integrals:      1.577 (MW) /     12.620 (MB)
	Size of irrep 1 of <Ia|Bc> integrals:      0.833 (MW) /      6.663 (MB)
	Size of irrep 2 of <Ia|Bc> integrals:      1.185 (MW) /      9.477 (MB)
	Size of irrep 3 of <Ia|Bc> integrals:      1.196 (MW) /      9.570 (MB)
	Size of irrep 4 of <Ia|Bc> integrals:      0.840 (MW) /      6.718 (MB)
	Size of irrep 5 of <Ia|Bc> integrals:      1.594 (MW) /     12.749 (MB)
	Size of irrep 6 of <Ia|Bc> integrals:      1.189 (MW) /      9.510 (MB)
	Size of irrep 7 of <Ia|Bc> integrals:      1.170 (MW) /      9.357 (MB)
	Total:                                     9.583 (MW) /     76.664 (MB)

	Size of irrep 0 of <iA|bC> integrals:      1.321 (MW) /     10.572 (MB)
	Size of irrep 1 of <iA|bC> integrals:      0.614 (MW) /      4.912 (MB)
	Size of irrep 2 of <iA|bC> integrals:      1.039 (MW) /      8.316 (MB)
	Size of irrep 3 of <iA|bC> integrals:      0.851 (MW) /      6.809 (MB)
	Size of irrep 4 of <iA|bC> integrals:      0.621 (MW) /      4.968 (MB)
	Size of irrep 5 of <iA|bC> integrals:      1.338 (MW) /     10.701 (MB)
	Size of irrep 6 of <iA|bC> integrals:      0.844 (MW) /      6.749 (MB)
	Size of irrep 7 of <iA|bC> integrals:      1.024 (MW) /      8.195 (MB)
	Total:                                     7.653 (MW) /     61.222 (MB)

	Size of irrep 0 of tIjAb amplitudes:       0.050 (MW) /      0.396 (MB)
	Size of irrep 1 of tIjAb amplitudes:       0.007 (MW) /      0.056 (MB)
	Size of irrep 2 of tIjAb amplitudes:       0.015 (MW) /      0.122 (MB)
	Size of irrep 3 of tIjAb amplitudes:       0.008 (MW) /      0.061 (MB)
	Size of irrep 4 of tIjAb amplitudes:       0.000 (MW) /      0.000 (MB)
	Size of irrep 5 of tIjAb amplitudes:       0.033 (MW) /      0.264 (MB)
	Size of irrep 6 of tIjAb amplitudes:       0.015 (MW) /      0.123 (MB)
	Size of irrep 7 of tIjAb amplitudes:       0.031 (MW) /      0.245 (MB)
	Total:                                     0.159 (MW) /      1.268 (MB)

	Nuclear Rep. energy          =     21.80091895130870
	SCF energy                   =   -108.42786226521980
	One-electron energy          =    -48.90023415147920
	Two-electron (AA) energy     =      4.78635633432341
	Two-electron (BB) energy     =      2.76611563978023
	Two-electron (AB) energy     =     11.26715991667455
	Two-electron energy          =     18.81963189077819
	Reference energy             =   -108.42786226522047

*** tstop() called on n412-045.vsc4.prov at Fri Jan 22 01:27:04 2021
Module time:
	user time   =      50.69 seconds =       0.84 minutes
	system time =      35.34 seconds =       0.59 minutes
	total time  =        177 seconds =       2.95 minutes
Total time:
	user time   =     183.75 seconds =       3.06 minutes
	system time =      42.34 seconds =       0.71 minutes
	total time  =        278 seconds =       4.63 minutes
            **************************
            *                        *
            *        CCENERGY        *
            *                        *
            **************************

    Nuclear Rep. energy (wfn)     =   21.800918951308699
    SCF energy          (wfn)     = -108.427862265219801
    Reference energy    (file100) = -108.427862265220469

    Input parameters:
    -----------------
    Wave function   =     CCSD_T
    Reference wfn   =     UHF
    Brueckner       =     No
    Memory (Mbytes) =     250000.0
    Maxiter         =     50
    R_Convergence   =     1.0e-07
    E_Convergence   =     1.0e-06
    Restart         =     Yes
    DIIS            =     Yes
    AO Basis        =     NONE
    ABCD            =     NEW
    Cache Level     =     2
    Cache Type      =     LRU
    Print Level     =     1
    Num. of threads =     48
    # Amps to Print =     10
    Print MP2 Amps? =     No
    Analyze T2 Amps =     No
    Print Pair Ener =     No
    Local CC        =     No
    SCS-MP2         =     False
    SCSN-MP2        =     False
    SCS-CCSD        =     False

MP2 correlation energy -0.3465516843520859
                Solving CC Amplitude Equations
                ------------------------------
  Iter             Energy              RMS        T1Diag      D1Diag    New D1Diag    D2Diag
  ----     ---------------------    ---------   ----------  ----------  ----------   --------
     0        -0.346551684352086    0.000e+00    0.000000    0.000000    0.000000    0.000000
     1        -0.341050644497654    7.300e-02    0.016757    0.000000    0.000000    0.000000
     2        -0.353284754711335    2.445e-02    0.017018    0.000000    0.000000    0.000000
     3        -0.355759045578538    1.071e-02    0.019489    0.000000    0.000000    0.000000
     4        -0.355813778845732    2.311e-03    0.019537    0.000000    0.000000    0.000000
     5        -0.355839265413179    5.624e-04    0.019528    0.000000    0.000000    0.000000
     6        -0.355838049369421    1.770e-04    0.019509    0.000000    0.000000    0.000000
     7        -0.355840466933810    5.293e-05    0.019507    0.000000    0.000000    0.000000
     8        -0.355840170188513    1.810e-05    0.019507    0.000000    0.000000    0.000000
     9        -0.355839692822255    7.882e-06    0.019507    0.000000    0.000000    0.000000
    10        -0.355839885852850    3.560e-06    0.019507    0.000000    0.000000    0.000000
    11        -0.355839823822144    1.359e-06    0.019507    0.000000    0.000000    0.000000
    12        -0.355839899783668    4.908e-07    0.019507    0.000000    0.000000    0.000000
    13        -0.355839884896705    1.707e-07    0.019507    0.000000    0.000000    0.000000
    14        -0.355839888267218    5.494e-08    0.019507    0.000000    0.000000    0.000000

    Iterations converged.


    Largest TIA Amplitudes:
              4 223         0.0172216187
              3 193         0.0139375416
              4 218         0.0121039830
              2 148         0.0111797226
              4 219         0.0107832547
              4 217         0.0097511460
              3 188         0.0092388054
              4 221         0.0085594240
              2 147         0.0080382972
              3 191         0.0073045833

    Largest Tia Amplitudes:
              3 224         0.0184743964
              2 148         0.0175532039
              3 219         0.0131295958
              3 220         0.0120225903
              3 218         0.0109143439
              2 147        -0.0104817572
              2 145         0.0091545440
              3 222         0.0087051370
              3 226         0.0072751801
              3 229         0.0067261584

    Largest TIJAB Amplitudes:
      4   3  93  62         0.0640680550
      3   1 148  93        -0.0315944875
      4   1 148  62        -0.0290225579
      3   1 145  93        -0.0145216017
      3   1 147  93        -0.0136175690
      4   1 145  62        -0.0134191636
      4   1 147  62        -0.0132484775
      4   3  93  64         0.0118187461
      3   2  93   0        -0.0116267044
      4   2  62   6         0.0113766734

    Largest Tijab Amplitudes:
      3   1 148  62        -0.0275643789
      2   0 187  93        -0.0124689872
      3   1 145  62        -0.0112041578
      3   1 147  62         0.0101950504
      3   2  62   6        -0.0092980929
      3   2  62   5         0.0087995980
      3   2  93  44        -0.0087220666
      3   2  62   0         0.0084907511
      3   0 187  44         0.0083875179
      3   1 151  62         0.0078315494

    Largest TIjAb Amplitudes:
      4   3  62  62        -0.1289378630
      3   3  93  62        -0.0866514385
      2   2  93  93        -0.0566801850
      2   2  62  62        -0.0481488855
      1   2  93 187        -0.0470962409
      2   1  93 187        -0.0429220029
      2   0  93 187         0.0392059330
      1   1  93  93        -0.0389203006
      3   1  93 148         0.0314133306
      1   1  62  62        -0.0311984328

    SCF energy       (wfn)                    = -108.427862265219801
    Reference energy (file100)                = -108.427862265220469

    Opposite-spin MP2 correlation energy      =   -0.265598888087016
    Same-spin MP2 correlation energy          =   -0.080952796265070
    Singles MP2 correlation energy            =   -0.000000000000000
    MP2 correlation energy                    =   -0.346551684352086
      * MP2 total energy                      = -108.774413949572562

    Opposite-spin CCSD correlation energy     =   -0.285246079620113
    Same-spin CCSD correlation energy         =   -0.070593808647103
    Singles CCSD correlation energy           =   -0.000000000000002
    CCSD correlation energy                   =   -0.355839888267218
      * CCSD total energy                     = -108.783702153487681

            **************************
            *                        *
            *        CCTRIPLES       *
            *                        *
            **************************


    Wave function   =    CCSD_T
    Reference wfn   =      UHF

    Nuclear Rep. energy (wfn)                =   21.800918951308699
    SCF energy          (wfn)                = -108.427862265219801
    Reference energy    (file100)            = -108.427862265220469
    CCSD energy         (file100)            =   -0.355839888267218
    Total CCSD energy   (file100)            = -108.783702153487681

    Number of ijk index combinations:
    Spin Case AAA:                                  10
    Spin Case BBB:                                   4
    Spin Case AAB:                                  40
    Spin Case ABB:                                  30
    AAA (T) energy                             =   -0.000666989642467
    BBB (T) energy                             =   -0.000089871986465
    AAB (T) energy                             =   -0.010997876873628
    ABB (T) energy                             =   -0.006495830312619
    (T) energy                                   =   -0.018250568815178
      * CCSD(T) total energy                     = -108.801952722302872


    Psi4 stopped on: Friday, 22 January 2021 01:30AM
    Psi4 wall time for execution: 0:07:53.46

*** Psi4 exiting successfully. Buy a developer a beer!
