
    -----------------------------------------------------------------------
          Psi4: An Open-Source Ab Initio Electronic Structure Package
                               Psi4 1.4a3.dev88 

                         Git: Rev {master} 262e345 


    D. G. A. Smith, L. A. Burns, A. C. Simmonett, R. M. Parrish,
    M. C. Schieber, R. Galvelis, P. Kraus, H. Kruse, R. Di Remigio,
    A. Alenaizan, A. M. James, S. Lehtola, J. P. Misiewicz, M. Scheurer,
    R. A. Shaw, J. B. Schriber, Y. Xie, Z. L. Glick, D. A. Sirianni,
    J. S. O'Brien, J. M. Waldrop, A. Kumar, E. G. Hohenstein,
    B. P. Pritchard, B. R. Brooks, H. F. Schaefer III, A. Yu. Sokolov,
    K. Patkowski, A. E. DePrince III, U. Bozkaya, R. A. King,
    F. A. Evangelista, J. M. Turney, T. D. Crawford, C. D. Sherrill,
    J. Chem. Phys. 152(18) 184108 (2020). https://doi.org/10.1063/5.0006002

                            Additional Code Authors
    E. T. Seidl, C. L. Janssen, E. F. Valeev, M. L. Leininger,
    J. F. Gonthier, R. M. Richard, H. R. McAlexander, M. Saitow, X. Wang,
    P. Verma, and M. H. Lechner

             Previous Authors, Complete List of Code Contributors,
                       and Citations for Specific Modules
    https://github.com/psi4/psi4/blob/master/codemeta.json
    https://github.com/psi4/psi4/graphs/contributors
    http://psicode.org/psi4manual/master/introduction.html#citing-psifour

    -----------------------------------------------------------------------


    Psi4 started on: Friday, 22 January 2021 11:38PM

    Process ID: 389817
    Host:       n412-047.vsc4.prov
    PSIDATADIR: /home/fs71337/gallo4/psi4/eri-6/psi4/build/stage/share/psi4
    Memory:     500.0 MiB
    Threads:    48
    
  ==> Input File <==

--------------------------------------------------------------------------
# Any line starting with the # character is a comment line
memory 250000 mb
molecule molecule{
1 2
Cl         0.0000000000        0.0000000000        0.0362353546
H          0.0000000000        0.0000000000       -1.2745322422
}

set {
  reference uhf
  basis aug-cc-pV(6+d)Z
  scf_type OUT_OF_CORE
  freeze_core true
}

energy('ccsd(t)')
--------------------------------------------------------------------------

  Memory set to 232.831 GiB by Python driver.

Scratch directory: /binfl/lv71337/airmler/temp/

*** tstart() called on n412-047.vsc4.prov
*** at Fri Jan 22 23:38:27 2021

   => Loading Basis Set <=

    Name: AUG-CC-PV(6+D)Z
    Role: ORBITAL
    Keyword: BASIS
    atoms 1 entry CL         line  1303 file /home/fs71337/gallo4/psi4/eri-6/psi4/build/stage/share/psi4/basis/aug-cc-pv_6pd_z.gbs 
    atoms 2 entry H          line    51 file /home/fs71337/gallo4/psi4/eri-6/psi4/build/stage/share/psi4/basis/aug-cc-pv_6pd_z.gbs 


         ---------------------------------------------------------
                                   SCF
               by Justin Turney, Rob Parrish, Andy Simmonett
                          and Daniel G. A. Smith
                              UHF Reference
                       48 Threads, 238418 MiB Core
         ---------------------------------------------------------

  ==> Geometry <==

    Molecular point group: c2v
    Full point group: C_inf_v

    Geometry (in Angstrom), charge = 1, multiplicity = 2:

       Center              X                  Y                   Z               Mass       
    ------------   -----------------  -----------------  -----------------  -----------------
         CL           0.000000000000     0.000000000000     0.036718910122    34.968852682000
         H            0.000000000000     0.000000000000    -1.274048686678     1.007825032230

  Running in c2v symmetry.

  Rotational constants: A = ************  B =     10.01612  C =     10.01612 [cm^-1]
  Rotational constants: A = ************  B = 300275.80296  C = 300275.80296 [MHz]
  Nuclear repulsion =    6.863163693817365

  Charge       = 1
  Multiplicity = 2
  Electrons    = 17
  Nalpha       = 9
  Nbeta        = 8

  ==> Algorithm <==

  SCF Algorithm Type is OUT_OF_CORE.
  DIIS enabled.
  MOM disabled.
  Fractional occupation disabled.
  Guess Type is SAD.
  Energy threshold   = 1.00e-08
  Density threshold  = 1.00e-08
  Integral threshold = 1.00e-12

  ==> Primary Basis <==

  Basis Set: AUG-CC-PV(6+D)Z
    Blend: AUG-CC-PV(6+D)Z
    Number of shells: 65
    Number of basis function: 325
    Number of Cartesian functions: 486
    Spherical Harmonics?: true
    Max angular momentum: 6

  ==> Integral Setup <==

  ==> DiskJK: Disk-Based J/K Matrices <==

    J tasked:                  Yes
    K tasked:                  Yes
    wK tasked:                  No
    Memory [MiB]:           178813
    Schwarz Cutoff:          1E-12

  Minimum eigenvalue in the overlap matrix is 7.0631833380E-06.
  Reciprocal condition number of the overlap matrix is 9.7620920405E-07.
    Using symmetric orthogonalization.

  ==> Pre-Iterations <==

  SCF Guess: Superposition of Atomic Densities via on-the-fly atomic UHF (no occupation information).


 WARNING: Atomic UHF is not converging! Try casting from a smaller basis or call Rob at CCMST.

 WARNING: Atomic UHF is not converging! Try casting from a smaller basis or call Rob at CCMST.
   -------------------------
    Irrep   Nso     Nmo    
   -------------------------
     A1       116     116 
     A2        51      51 
     B1        79      79 
     B2        79      79 
   -------------------------
    Total     325     325
   -------------------------

  ==> Iterations <==

                        Total Energy        Delta E     RMS |[F,P]|

   @UHF iter SAD:   118.47810239284124    1.18478e+02   0.00000e+00 
    Occupation by irrep:
             A1    A2    B1    B2 
    DOCC [     6,    0,    1,    1 ]
    SOCC [     0,    0,    1,    0 ]

   @UHF iter   1:  -441.86915749001560   -5.60347e+02   7.35564e-02 DIIS
    Occupation by irrep:
             A1    A2    B1    B2 
    DOCC [     5,    0,    1,    2 ]
    SOCC [     0,    0,    1,    0 ]

   @UHF iter   2:  -452.71636772708257   -1.08472e+01   3.14775e-02 DIIS
   @UHF iter   3:  -459.22484812315696   -6.50848e+00   7.44205e-03 DIIS
   @UHF iter   4:  -459.68441769088156   -4.59570e-01   7.49630e-04 DIIS
   @UHF iter   5:  -459.68954537733180   -5.12769e-03   1.97544e-04 DIIS
   @UHF iter   6:  -459.68985199176132   -3.06614e-04   4.57095e-05 DIIS
   @UHF iter   7:  -459.68990680656736   -5.48148e-05   1.31273e-05 DIIS
   @UHF iter   8:  -459.68991277190020   -5.96533e-06   3.67313e-06 DIIS
   @UHF iter   9:  -459.68991333323743   -5.61337e-07   1.12486e-06 DIIS
   @UHF iter  10:  -459.68991338937849   -5.61411e-08   3.30960e-07 DIIS
   @UHF iter  11:  -459.68991339501616   -5.63767e-09   9.78384e-08 DIIS
   @UHF iter  12:  -459.68991339551383   -4.97664e-10   4.03415e-08 DIIS
   @UHF iter  13:  -459.68991339562530   -1.11470e-10   1.70338e-08 DIIS
   @UHF iter  14:  -459.68991339564752   -2.22258e-11   5.41130e-09 DIIS
  Energy and wave function converged.


  ==> Post-Iterations <==

   @Spin Contamination Metric:   1.232950144E-02
   @S^2 Expected:                7.500000000E-01
   @S^2 Observed:                7.623295014E-01
   @S   Expected:                5.000000000E-01
   @S   Observed:                5.000000000E-01

    Orbital Energies [Eh]
    ---------------------

    Alpha Occupied:                                                       

       1A1  -105.302431     2A1   -11.020953     1B1    -8.507408  
       3A1    -8.482888     1B2    -8.481310     4A1    -1.550645  
       5A1    -0.999752     2B1    -0.950260     2B2    -0.869344  

    Alpha Virtual:                                                        

       6A1    -0.173618     7A1    -0.107275     3B1    -0.085118  
       8A1    -0.083911     3B2    -0.078656     4B1    -0.042905  
       9A1    -0.040481     4B2    -0.032082     1A2    -0.007656  
      10A1    -0.006601    11A1     0.023647     5B1     0.064250  
       5B2     0.074367    12A1     0.074691    13A1     0.102656  
       6B1     0.103521     6B2     0.117064    14A1     0.142449  
       7B1     0.190620     2A2     0.199701    15A1     0.199984  
       7B2     0.203233    16A1     0.244729     3A2     0.246644  
      17A1     0.278134     8B1     0.306774     8B2     0.320826  
       9B1     0.321766     9B2     0.322434    18A1     0.381684  
      19A1     0.402676    10B1     0.411922    10B2     0.420871  
      20A1     0.430092     4A2     0.441942    21A1     0.444539  
      22A1     0.614276    11B1     0.635241    11B2     0.657791  
      12B1     0.750532    12B2     0.750762    13B1     0.766206  
      23A1     0.779181     5A2     0.779185    13B2     0.779600  
      24A1     0.789390     6A2     0.789496    25A1     0.828487  
      14B1     0.835067    14B2     0.862646    26A1     0.894650  
       7A2     0.897861    27A1     0.906675    28A1     0.930699  
      15B1     0.952231    15B2     0.960429    29A1     1.003392  
       8A2     1.004203    16B1     1.011054    16B2     1.011106  
      30A1     1.022715    17B1     1.091220    17B2     1.097630  
      18B1     1.105557    18B2     1.120046    31A1     1.154136  
       9A2     1.166449    32A1     1.175296    19B1     1.286801  
      19B2     1.303450    33A1     1.328277    34A1     1.565494  
      10A2     1.736525    35A1     1.736544    20B1     1.777608  
      20B2     1.793046    36A1     1.825310    11A2     1.888061  
      37A1     1.888061    21B1     2.031624    21B2     2.046781  
      22B1     2.106027    22B2     2.106116    23B1     2.119275  
      23B2     2.119276    38A1     2.133985    12A2     2.134378  
      39A1     2.143912    13A2     2.144232    40A1     2.182798  
      24B1     2.223095    24B2     2.235198    25B1     2.236105  
      41A1     2.239006    25B2     2.248114    14A2     2.257297  
      42A1     2.259753    43A1     2.372979    15A2     2.372979  
      44A1     2.379196    26B1     2.379700    26B2     2.391851  
      27B1     2.435073    27B2     2.435106    45A1     2.511402  
      28B1     2.517533    29B1     2.543695    28B2     2.562010  
      29B2     2.569663    46A1     2.576932    16A2     2.578373  
      30B1     2.582294    30B2     2.593408    17A2     2.607626  
      47A1     2.608859    48A1     2.693228    49A1     2.796226  
      31B1     2.818340    31B2     2.841717    18A2     2.876998  
      50A1     2.879019    51A1     3.068929    32B1     3.549623  
      32B2     3.572656    33B1     3.616247    33B2     3.616276  
      52A1     3.871767    19A2     3.872919    53A1     3.917941  
      34B1     4.037786    34B2     4.037786    54A1     4.193508  
      35B1     4.200184    35B2     4.221212    36B1     4.426711  
      20A2     4.428283    55A1     4.428283    36B2     4.449975  
      56A1     4.500085    21A2     4.500201    57A1     4.523145  
      37B1     4.547647    37B2     4.547798    38B1     4.642264  
      22A2     4.655646    58A1     4.655672    38B2     4.667388  
      23A2     4.683667    59A1     4.684514    60A1     4.730430  
      24A2     4.851547    61A1     4.851547    62A1     4.888143  
      39B1     4.987553    39B2     5.002934    40B1     5.003033  
      40B2     5.003728    25A2     5.018106    63A1     5.019520  
      41B1     5.043003    41B2     5.043003    26A2     5.075311  
      64A1     5.075314    42B1     5.108966    42B2     5.108994  
      65A1     5.164223    43B1     5.182213    43B2     5.182243  
      66A1     5.450435    27A2     5.454630    44B1     5.535874  
      67A1     5.546580    28A2     5.546589    45B1     5.556111  
      68A1     5.563341    44B2     5.563461    45B2     5.591813  
      46B1     5.609002    46B2     5.610543    47B1     5.674661  
      47B2     5.675062    69A1     5.705549    29A2     5.706487  
      70A1     5.896289    30A2     5.948916    71A1     5.949517  
      72A1     6.302179    73A1     6.391163    48B1     6.458916  
      48B2     6.487498    49B1     6.623921    49B2     6.653516  
      31A2     6.870946    74A1     6.871658    50B1     7.159437  
      32A2     7.171736    75A1     7.171736    50B2     7.198326  
      76A1     7.365891    51B1     8.096689    51B2     8.124687  
      52B1     8.131589    52B2     8.133781    77A1     8.357493  
      78A1     8.596192    33A2     8.597318    79A1     8.692130  
      53B1     8.749979    53B2     8.779963    80A1     9.269895  
      34A2     9.491581    81A1     9.491659    35A2     9.515959  
      82A1     9.516458    54B1     9.524822    54B2     9.524829  
      55B1     9.701543    55B2     9.701554    83A1     9.892198  
      36A2     9.912723    84A1     9.915130    56B1    10.021060  
      56B2    10.042326    57B1    10.359858    57B2    10.389303  
      85A1    10.409861    37A2    10.480080    86A1    10.480746  
      38A2    10.591431    87A1    10.591431    58B1    10.631814  
      58B2    10.631814    59B1    10.723291    59B2    10.752026  
      39A2    10.793749    88A1    10.793749    60B1    10.842101  
      60B2    10.842110    61B1    10.862376    61B2    10.862415  
      89A1    10.907549    40A2    10.907552    90A1    11.148794  
      41A2    11.152334    62B1    11.153012    62B2    11.153037  
      91A1    11.290479    92A1    11.604453    42A2    11.847628  
      93A1    11.849383    63B1    11.996184    63B2    12.007135  
      64B1    12.008863    64B2    12.027283    65B1    12.076277  
      65B2    12.102691    94A1    12.223863    43A2    12.224497  
      95A1    12.320938    66B1    12.884968    66B2    12.910906  
      96A1    12.943883    44A2    13.224385    97A1    13.224945  
      67B1    13.529431    67B2    13.557942    98A1    14.024560  
      68B1    14.545802    68B2    14.568762    99A1    15.607251  
      69B1    17.105673    69B2    17.105673    45A2    17.215427  
     100A1    17.215427   101A1    17.379132    70B1    17.500712  
      70B2    17.500712    46A2    18.312885   102A1    18.312931  
      71B1    19.282818    71B2    19.294203   103A1    19.393110  
      47A2    19.900651   104A1    19.900651    72B1    20.425788  
      72B2    20.425788    73B1    21.264010    73B2    21.268688  
     105A1    21.337170    48A2    21.337181   106A1    21.630994  
     107A1    22.648134    49A2    22.727687   108A1    22.727699  
      74B1    23.625003    74B2    23.625003    50A2    24.118614  
     109A1    24.118619    75B1    24.151751    75B2    24.156572  
     110A1    24.300684    76B1    25.094711    76B2    25.100143  
     111A1    25.470056    77B1    34.489352    77B2    34.493357  
      78B1    35.434916    78B2    35.461692   112A1    36.807531  
     113A1    38.819511    51A2    38.820006   114A1    38.992476  
      79B1    39.353081    79B2    39.373171   115A1    40.908355  
     116A1   287.008374  

    Beta Occupied:                                                        

       1A1  -105.289130     2A1   -11.008244     3A1    -8.475785  
       1B2    -8.474574     1B1    -8.452594     4A1    -1.434007  
       5A1    -0.979620     2B2    -0.844979  

    Beta Virtual:                                                         

       2B1    -0.375698     6A1    -0.163359     7A1    -0.100715  
       8A1    -0.082628     3B2    -0.078132     3B1    -0.074595  
       9A1    -0.037707     4B2    -0.032025     4B1    -0.029454  
      10A1     0.009232     1A2     0.009670    11A1     0.028326  
       5B2     0.075065    12A1     0.076997     5B1     0.079667  
      13A1     0.103564     6B2     0.118632     6B1     0.129146  
      14A1     0.146129     7B2     0.203875     2A2     0.206021  
      15A1     0.206042     7B1     0.207484    16A1     0.278705  
       3A2     0.291923    17A1     0.295663     8B2     0.322705  
       8B1     0.325049     9B2     0.325320     9B1     0.332462  
      18A1     0.386612    19A1     0.408148    10B1     0.415047  
      10B2     0.420830    20A1     0.434004     4A2     0.445886  
      21A1     0.446803    22A1     0.621825    11B2     0.661961  
      11B1     0.673079    12B1     0.752403    12B2     0.752453  
      13B1     0.776743    13B2     0.780246    23A1     0.781660  
       5A2     0.781660    24A1     0.791715     6A2     0.791804  
      25A1     0.832878    14B2     0.864452    14B1     0.869389  
      26A1     0.909802     7A2     0.919057    27A1     0.919120  
      28A1     0.931498    15B1     0.953662    15B2     0.960600  
      16B1     1.012814    16B2     1.012840     8A2     1.022886  
      29A1     1.022979    30A1     1.025501    17B1     1.112124  
      17B2     1.116623    18B1     1.120217    18B2     1.121615  
      31A1     1.169488     9A2     1.179289    32A1     1.180567  
      19B1     1.302277    19B2     1.304789    33A1     1.337106  
      34A1     1.569712    35A1     1.739023    10A2     1.739083  
      20B1     1.784215    20B2     1.793322    36A1     1.826225  
      11A2     1.890239    37A1     1.890239    21B1     2.041357  
      21B2     2.047737    22B1     2.116029    22B2     2.116051  
      23B1     2.124508    23B2     2.124508    38A1     2.142477  
      12A2     2.142646    39A1     2.153331    13A2     2.153346  
      40A1     2.188618    24B1     2.233827    24B2     2.236704  
      25B1     2.238084    41A1     2.247324    25B2     2.249268  
      14A2     2.264994    42A1     2.266021    43A1     2.376093  
      15A2     2.376093    26B1     2.386552    44A1     2.389632  
      26B2     2.392510    27B1     2.437830    27B2     2.437838  
      45A1     2.514657    28B1     2.563942    28B2     2.568338  
      29B1     2.573831    29B2     2.584960    46A1     2.594327  
      16A2     2.594403    30B1     2.613304    30B2     2.613561  
      47A1     2.625204    17A2     2.625453    48A1     2.698239  
      49A1     2.805276    31B1     2.827880    31B2     2.843168  
      18A2     2.885793    50A1     2.886272    51A1     3.071732  
      32B1     3.562024    32B2     3.574396    33B1     3.618744  
      33B2     3.618756    52A1     3.874140    19A2     3.874740  
      53A1     3.921052    34B1     4.039509    34B2     4.039509  
      54A1     4.194616    35B1     4.208535    35B2     4.221643  
      20A2     4.431959    55A1     4.431959    36B1     4.437614  
      36B2     4.451517    56A1     4.507118    21A2     4.507243  
      57A1     4.531126    37B1     4.562254    37B2     4.562296  
      38B1     4.651211    38B2     4.667993    22A2     4.680470  
      58A1     4.680481    23A2     4.691499    59A1     4.691857  
      60A1     4.738662    24A2     4.860555    61A1     4.860555  
      62A1     4.894044    39B1     4.993357    39B2     5.004474  
      40B1     5.016515    40B2     5.016516    25A2     5.023149  
      63A1     5.023681    41B1     5.052740    41B2     5.052740  
      26A2     5.087478    64A1     5.087478    42B1     5.115529  
      42B2     5.115538    65A1     5.169370    43B1     5.191123  
      43B2     5.191133    66A1     5.464289    27A2     5.466228  
      44B1     5.549828    67A1     5.551346    28A2     5.551349  
      44B2     5.565923    68A1     5.569678    45B1     5.571625  
      45B2     5.594993    46B1     5.615046    46B2     5.615819  
      47B1     5.698349    47B2     5.698392    69A1     5.715487  
      29A2     5.715751    70A1     5.903909    30A2     5.964259  
      71A1     5.964433    72A1     6.306584    73A1     6.396846  
      48B1     6.469061    48B2     6.488531    49B1     6.634771  
      49B2     6.654466    31A2     6.880711    74A1     6.881023  
      32A2     7.172688    75A1     7.172688    50B1     7.184047  
      50B2     7.201582    76A1     7.369167    51B1     8.117360  
      51B2     8.128705    52B1     8.135119    52B2     8.136168  
      77A1     8.361115    78A1     8.599279    33A2     8.599854  
      79A1     8.696889    53B1     8.764392    53B2     8.782139  
      80A1     9.275155    34A2     9.512641    81A1     9.512719  
      35A2     9.523785    82A1     9.523965    54B1     9.531851  
      54B2     9.531852    55B1     9.709941    55B2     9.709944  
      83A1     9.895214    36A2     9.915595    84A1     9.917009  
      56B1    10.028140    56B2    10.043012    57B1    10.369371  
      57B2    10.390231    85A1    10.413188    37A2    10.482533  
      86A1    10.482992    38A2    10.607802    87A1    10.607802  
      58B1    10.645694    58B2    10.645694    59B1    10.733286  
      59B2    10.753691    39A2    10.806365    88A1    10.806365  
      60B1    10.862272    60B2    10.862275    61B1    10.873786  
      61B2    10.873798    89A1    10.922515    40A2    10.922516  
      90A1    11.159719    41A2    11.161541    62B1    11.162609  
      62B2    11.162617    91A1    11.295363    92A1    11.610145  
      42A2    11.855819    93A1    11.856871    63B1    12.004371  
      63B2    12.017852    64B1    12.019166    64B2    12.028161  
      65B1    12.083638    65B2    12.103452    94A1    12.231448  
      43A2    12.231820    95A1    12.326490    66B1    12.892981  
      66B2    12.911644    96A1    12.948427    44A2    13.238791  
      97A1    13.239014    67B1    13.539103    67B2    13.559325  
      98A1    14.028704    68B1    14.553700    68B2    14.569731  
      99A1    15.612501    69B2    17.105504    69B1    17.105504  
     100A1    17.215498    45A2    17.215498   101A1    17.383300  
      70B1    17.501134    70B2    17.501134    46A2    18.313723  
     102A1    18.313750    71B1    19.284510    71B2    19.293971  
     103A1    19.394754   104A1    19.900219    47A2    19.900219  
      72B1    20.425534    72B2    20.425534    73B1    21.263934  
      73B2    21.268067   105A1    21.336865    48A2    21.336877  
     106A1    21.630857   107A1    22.647411    49A2    22.726932  
     108A1    22.726940    74B1    23.624325    74B2    23.624325  
      50A2    24.118058   109A1    24.118062    75B1    24.151406  
      75B2    24.155681   110A1    24.300072    76B1    25.094712  
      76B2    25.099484   111A1    25.469533    77B1    34.490003  
      77B2    34.492506    78B1    35.465960    78B2    35.466097  
     112A1    36.806958    51A2    38.838119   113A1    38.838128  
     114A1    38.999347    79B1    39.371108    79B2    39.376631  
     115A1    40.913176   116A1   287.013523  

    Final Occupation by Irrep:
             A1    A2    B1    B2 
    DOCC [     5,    0,    1,    2 ]
    SOCC [     0,    0,    1,    0 ]

  @UHF Final Energy:  -459.68991339564752

   => Energetics <=

    Nuclear Repulsion Energy =              6.8631636938173655
    One-Electron Energy =                -641.9822298009124779
    Two-Electron Energy =                 175.4291527114476423
    Total Energy =                       -459.6899133956475225

  UHF NO Occupations:
  HONO-2 :    4 A1 1.9995228
  HONO-1 :    5 A1 1.9946722
  HONO-0 :    2 B1 1.0000000
  LUNO+0 :    6 A1 0.0053278
  LUNO+1 :    7 A1 0.0004772
  LUNO+2 :    3 B2 0.0003682
  LUNO+3 :    3 B1 0.0000053


Computation Completed


Properties will be evaluated at   0.000000,   0.000000,   0.000000 [a0]

Properties computed using the SCF density matrix

  Nuclear Dipole Moment: [e a0]
     X:     0.0000      Y:     0.0000      Z:    -1.2280

  Electronic Dipole Moment: [e a0]
     X:     0.0000      Y:     0.0000      Z:     0.5373

  Dipole Moment: [e a0]
     X:     0.0000      Y:     0.0000      Z:    -0.6907     Total:     0.6907

  Dipole Moment: [D]
     X:     0.0000      Y:     0.0000      Z:    -1.7557     Total:     1.7557


*** tstop() called on n412-047.vsc4.prov at Fri Jan 22 23:47:25 2021
Module time:
	user time   =     533.65 seconds =       8.89 minutes
	system time =      35.95 seconds =       0.60 minutes
	total time  =        538 seconds =       8.97 minutes
Total time:
	user time   =     533.65 seconds =       8.89 minutes
	system time =      35.95 seconds =       0.60 minutes
	total time  =        538 seconds =       8.97 minutes

*** tstart() called on n412-047.vsc4.prov
*** at Fri Jan 22 23:47:25 2021


	Wfn Parameters:
	--------------------
	Wavefunction         = CCSD_T
	Number of irreps     = 4
	Number of MOs        = 325
	Number of active MOs = 320
	AO-Basis             = NONE
	Semicanonical        = false
	Reference            = UHF
	Print Level          = 1

	IRREP	# MOs	# FZDC	# DOCC	# SOCC	# VIRT	# FZVR
	-----	-----	------	------	------	------	------
	 A1	   116	    3	    2	    0	    111	    0
	 A2	   51	    0	    0	    0	    51	    0
	 B1	   79	    1	    0	    1	    77	    0
	 B2	   79	    1	    1	    0	    77	    0
	Transforming integrals...
	IWL integrals will be deleted.
	(OO|OO)...
	Presorting SO-basis two-electron integrals.
	Sorting File: SO Ints (nn|nn) nbuckets = 1
	Constructing frozen core operators
	Starting AA/AB first half-transformation.
	Sorting AA/AB half-transformed integrals.
	Starting BB first half-transformation.
	Sorting BB half-transformed integrals.
	First half integral transformation complete.
	Starting AA second half-transformation.
	Starting AB second half-transformation.
	Starting BB second half-transformation.
	Two-electron integral transformation complete.
	(OO|OV)...
	Starting AA second half-transformation.
	Starting AB second half-transformation.
	Starting BB second half-transformation.
	Two-electron integral transformation complete.
	(OO|VV)...
	Starting AA second half-transformation.
	Starting AB second half-transformation.
	Starting BB second half-transformation.
	Two-electron integral transformation complete.
	(OV|OO)...
	Starting AA/AB first half-transformation.
	Sorting AA/AB half-transformed integrals.
	Starting BB first half-transformation.
	Sorting BB half-transformed integrals.
	First half integral transformation complete.
	Starting AA second half-transformation.
	Starting AB second half-transformation.
	Starting BB second half-transformation.
	Two-electron integral transformation complete.
	(OV|OV)...
	Starting AA second half-transformation.
	Starting AB second half-transformation.
	Starting BB second half-transformation.
	Two-electron integral transformation complete.
	(OV|VV)...
	Starting AA second half-transformation.
	Starting AB second half-transformation.
	Starting BB second half-transformation.
	Two-electron integral transformation complete.
	(VV|OO)...
	Starting AA/AB first half-transformation.
	Sorting AA/AB half-transformed integrals.
	Starting BB first half-transformation.
	Sorting BB half-transformed integrals.
	First half integral transformation complete.
	Starting AA second half-transformation.
	Starting AB second half-transformation.
	Starting BB second half-transformation.
	Two-electron integral transformation complete.
	(VV|OV)...
	Starting AA second half-transformation.
	Starting AB second half-transformation.
	Starting BB second half-transformation.
	Two-electron integral transformation complete.
	(VV|VV)...
	Starting AA second half-transformation.
	Starting AB second half-transformation.
	Starting BB second half-transformation.
	Two-electron integral transformation complete.
	Frozen core energy     =   -448.78516016298488

	Size of irrep 0 of <AB|CD> integrals:    175.086 (MW) /   1400.687 (MB)
	Size of irrep 1 of <AB|CD> integrals:    134.328 (MW) /   1074.625 (MB)
	Size of irrep 2 of <AB|CD> integrals:    155.601 (MW) /   1244.805 (MB)
	Size of irrep 3 of <AB|CD> integrals:    155.601 (MW) /   1244.805 (MB)
	Total:                                   620.615 (MW) /   4964.922 (MB)

	Size of irrep 0 of <ab|cd> integrals:    177.129 (MW) /   1417.036 (MB)
	Size of irrep 1 of <ab|cd> integrals:    136.119 (MW) /   1088.951 (MB)
	Size of irrep 2 of <ab|cd> integrals:    158.382 (MW) /   1267.058 (MB)
	Size of irrep 3 of <ab|cd> integrals:    156.876 (MW) /   1255.005 (MB)
	Total:                                   628.506 (MW) /   5028.050 (MB)

	Size of irrep 0 of <Ab|Cd> integrals:    721.298 (MW) /   5770.388 (MB)
	Size of irrep 1 of <Ab|Cd> integrals:    540.888 (MW) /   4327.104 (MB)
	Size of irrep 2 of <Ab|Cd> integrals:    627.953 (MW) /   5023.628 (MB)
	Size of irrep 3 of <Ab|Cd> integrals:    624.950 (MW) /   4999.600 (MB)
	Total:                                  2515.090 (MW) /  20120.720 (MB)

	Size of irrep 0 of <IA|BC> integrals:     10.069 (MW) /     80.554 (MB)
	Size of irrep 1 of <IA|BC> integrals:      5.934 (MW) /     47.473 (MB)
	Size of irrep 2 of <IA|BC> integrals:      7.884 (MW) /     63.069 (MB)
	Size of irrep 3 of <IA|BC> integrals:      7.884 (MW) /     63.069 (MB)
	Total:                                    31.770 (MW) /    254.164 (MB)

	Size of irrep 0 of <ia|bc> integrals:      8.054 (MW) /     64.429 (MB)
	Size of irrep 1 of <ia|bc> integrals:      4.200 (MW) /     33.601 (MB)
	Size of irrep 2 of <ia|bc> integrals:      5.210 (MW) /     41.682 (MB)
	Size of irrep 3 of <ia|bc> integrals:      6.638 (MW) /     53.106 (MB)
	Total:                                    24.102 (MW) /    192.817 (MB)

	Size of irrep 0 of <Ia|Bc> integrals:     10.125 (MW) /     81.001 (MB)
	Size of irrep 1 of <Ia|Bc> integrals:      5.977 (MW) /     47.816 (MB)
	Size of irrep 2 of <Ia|Bc> integrals:      7.969 (MW) /     63.750 (MB)
	Size of irrep 3 of <Ia|Bc> integrals:      7.900 (MW) /     63.197 (MB)
	Total:                                    31.971 (MW) /    255.765 (MB)

	Size of irrep 0 of <iA|bC> integrals:      8.030 (MW) /     64.242 (MB)
	Size of irrep 1 of <iA|bC> integrals:      4.163 (MW) /     33.304 (MB)
	Size of irrep 2 of <iA|bC> integrals:      5.137 (MW) /     41.097 (MB)
	Size of irrep 3 of <iA|bC> integrals:      6.625 (MW) /     52.998 (MB)
	Total:                                    23.955 (MW) /    191.641 (MB)

	Size of irrep 0 of tIjAb amplitudes:       0.134 (MW) /      1.074 (MB)
	Size of irrep 1 of tIjAb amplitudes:       0.023 (MW) /      0.186 (MB)
	Size of irrep 2 of tIjAb amplitudes:       0.050 (MW) /      0.401 (MB)
	Size of irrep 3 of tIjAb amplitudes:       0.100 (MW) /      0.800 (MB)
	Total:                                     0.308 (MW) /      2.461 (MB)

	Nuclear Rep. energy          =      6.86316369381737
	SCF energy                   =   -459.68991339564752
	One-electron energy          =    -27.90722614872134
	Two-electron (AA) energy     =      2.62271302937965
	Two-electron (BB) energy     =      1.25528529520830
	Two-electron (AB) energy     =      6.26131089765232
	Two-electron energy          =     10.13930922224027
	Reference energy             =   -459.68991339564860

*** tstop() called on n412-047.vsc4.prov at Sat Jan 23 00:00:22 2021
Module time:
	user time   =     308.45 seconds =       5.14 minutes
	system time =     176.43 seconds =       2.94 minutes
	total time  =        777 seconds =      12.95 minutes
Total time:
	user time   =     842.10 seconds =      14.03 minutes
	system time =     212.38 seconds =       3.54 minutes
	total time  =       1315 seconds =      21.92 minutes
            **************************
            *                        *
            *        CCENERGY        *
            *                        *
            **************************

    Nuclear Rep. energy (wfn)     =    6.863163693817365
    SCF energy          (wfn)     = -459.689913395647523
    Reference energy    (file100) = -459.689913395648603

    Input parameters:
    -----------------
    Wave function   =     CCSD_T
    Reference wfn   =     UHF
    Brueckner       =     No
    Memory (Mbytes) =     250000.0
    Maxiter         =     50
    R_Convergence   =     1.0e-07
    E_Convergence   =     1.0e-06
    Restart         =     Yes
    DIIS            =     Yes
    AO Basis        =     NONE
    ABCD            =     NEW
    Cache Level     =     2
    Cache Type      =     LRU
    Print Level     =     1
    Num. of threads =     48
    # Amps to Print =     10
    Print MP2 Amps? =     No
    Analyze T2 Amps =     No
    Print Pair Ener =     No
    Local CC        =     No
    SCS-MP2         =     False
    SCSN-MP2        =     False
    SCS-CCSD        =     False

MP2 correlation energy -0.1864208558099291
                Solving CC Amplitude Equations
                ------------------------------
  Iter             Energy              RMS        T1Diag      D1Diag    New D1Diag    D2Diag
  ----     ---------------------    ---------   ----------  ----------  ----------   --------
     0        -0.186420855809929    0.000e+00    0.000000    0.000000    0.000000    0.000000
     1        -0.200811582772110    4.212e-02    0.008294    0.000000    0.000000    0.000000
     2        -0.207039821443716    1.479e-02    0.011900    0.000000    0.000000    0.000000
     3        -0.207246137867836    3.740e-03    0.013068    0.000000    0.000000    0.000000
     4        -0.207268180049539    1.171e-03    0.013395    0.000000    0.000000    0.000000
     5        -0.207264950016789    3.372e-04    0.013444    0.000000    0.000000    0.000000
     6        -0.207263441978952    1.207e-04    0.013457    0.000000    0.000000    0.000000
     7        -0.207264698437437    3.780e-05    0.013456    0.000000    0.000000    0.000000
     8        -0.207264946910586    1.124e-05    0.013455    0.000000    0.000000    0.000000
     9        -0.207264806313027    4.149e-06    0.013455    0.000000    0.000000    0.000000
    10        -0.207264812195651    1.575e-06    0.013455    0.000000    0.000000    0.000000
    11        -0.207264826508776    5.817e-07    0.013455    0.000000    0.000000    0.000000
    12        -0.207264842071498    2.123e-07    0.013455    0.000000    0.000000    0.000000
    13        -0.207264842207156    7.493e-08    0.013455    0.000000    0.000000    0.000000

    Iterations converged.


    Largest TIA Amplitudes:
              1   1         0.0056106661
              2 163         0.0055492246
              1   0        -0.0047891556
              0  10        -0.0045559229
              1  10         0.0045195139
              1  21         0.0045025507
              2 166        -0.0039123407
              1  19        -0.0037221526
              1  11         0.0036839938
              0   1        -0.0034830504

    Largest Tia Amplitudes:
              0  11        -0.0140179747
              0   0         0.0103604475
              0   4        -0.0078226998
              1  11        -0.0068426490
              0   5         0.0066704286
              0   1        -0.0064583184
              0  23        -0.0053340276
              2 242        -0.0052168804
              2 241        -0.0051922245
              1   4        -0.0051905660

    Largest TIJAB Amplitudes:
      3   2 113  10        -0.0171756594
      3   2 113   4         0.0148460848
      3   2 111  10        -0.0143479917
      3   2 111   4         0.0132611938
      2   1 163   0        -0.0109396602
      2   1 163   1         0.0107696418
      3   1 240   0         0.0100423997
      3   2 113   9        -0.0094738112
      2   1 166   1        -0.0092937932
      2   1 166   0         0.0091849980

    Largest Tijab Amplitudes:
      2   0 162 113         0.0144120643
      2   1 241   1        -0.0098755495
      2   0 162 111         0.0094374126
      2   1 241   0         0.0092506801
      2   1 244   1         0.0091860176
      2   1 245   1         0.0085734157
      1   0 169 162         0.0083691282
      2   1 245  10         0.0083674956
      2   1 244   0        -0.0082707961
      2   1 241  10        -0.0077866617

    Largest TIjAb Amplitudes:
      1   1   0   0        -0.0379268789
      1   1   0   1         0.0302934169
      2   0  10 162        -0.0294946311
      3   0 113 162        -0.0279061195
      1   1   1   0         0.0251569581
      1   1   1   1        -0.0233783736
      3   0 111 162        -0.0230586359
      2   0   4 162         0.0226846156
      3   2 113 113        -0.0221532841
      2   0   0 162         0.0216713705

    SCF energy       (wfn)                    = -459.689913395647523
    Reference energy (file100)                = -459.689913395648603

    Opposite-spin MP2 correlation energy      =   -0.149496759043611
    Same-spin MP2 correlation energy          =   -0.036924096766318
    Singles MP2 correlation energy            =   -0.000000000000000
    MP2 correlation energy                    =   -0.186420855809929
      * MP2 total energy                      = -459.876334251458559

    Opposite-spin CCSD correlation energy     =   -0.169983732774173
    Same-spin CCSD correlation energy         =   -0.037281109433000
    Singles CCSD correlation energy           =    0.000000000000017
    CCSD correlation energy                   =   -0.207264842207156
      * CCSD total energy                     = -459.897178237855769

            **************************
            *                        *
            *        CCTRIPLES       *
            *                        *
            **************************


    Wave function   =    CCSD_T
    Reference wfn   =      UHF

    Nuclear Rep. energy (wfn)                =    6.863163693817365
    SCF energy          (wfn)                = -459.689913395647523
    Reference energy    (file100)            = -459.689913395648603
    CCSD energy         (file100)            =   -0.207264842207156
    Total CCSD energy   (file100)            = -459.897178237855769

    Number of ijk index combinations:
    Spin Case AAA:                                   4
    Spin Case BBB:                                   1
    Spin Case AAB:                                  18
    Spin Case ABB:                                  12
    AAA (T) energy                             =   -0.000246637995581
    BBB (T) energy                             =   -0.000038617092160
    AAB (T) energy                             =   -0.004567215177200
    ABB (T) energy                             =   -0.002768450859169
    (T) energy                                   =   -0.007620921124110
      * CCSD(T) total energy                     = -459.904799158979870


    Psi4 stopped on: Saturday, 23 January 2021 12:12AM
    Psi4 wall time for execution: 0:34:19.47

*** Psi4 exiting successfully. Buy a developer a beer!
