
    -----------------------------------------------------------------------
          Psi4: An Open-Source Ab Initio Electronic Structure Package
                               Psi4 1.4a3.dev88 

                         Git: Rev {master} 262e345 


    D. G. A. Smith, L. A. Burns, A. C. Simmonett, R. M. Parrish,
    M. C. Schieber, R. Galvelis, P. Kraus, H. Kruse, R. Di Remigio,
    A. Alenaizan, A. M. James, S. Lehtola, J. P. Misiewicz, M. Scheurer,
    R. A. Shaw, J. B. Schriber, Y. Xie, Z. L. Glick, D. A. Sirianni,
    J. S. O'Brien, J. M. Waldrop, A. Kumar, E. G. Hohenstein,
    B. P. Pritchard, B. R. Brooks, H. F. Schaefer III, A. Yu. Sokolov,
    K. Patkowski, A. E. DePrince III, U. Bozkaya, R. A. King,
    F. A. Evangelista, J. M. Turney, T. D. Crawford, C. D. Sherrill,
    J. Chem. Phys. 152(18) 184108 (2020). https://doi.org/10.1063/5.0006002

                            Additional Code Authors
    E. T. Seidl, C. L. Janssen, E. F. Valeev, M. L. Leininger,
    J. F. Gonthier, R. M. Richard, H. R. McAlexander, M. Saitow, X. Wang,
    P. Verma, and M. H. Lechner

             Previous Authors, Complete List of Code Contributors,
                       and Citations for Specific Modules
    https://github.com/psi4/psi4/blob/master/codemeta.json
    https://github.com/psi4/psi4/graphs/contributors
    http://psicode.org/psi4manual/master/introduction.html#citing-psifour

    -----------------------------------------------------------------------


    Psi4 started on: Tuesday, 26 January 2021 06:32PM

    Process ID: 407718
    Host:       n412-039.vsc4.prov
    PSIDATADIR: /home/fs71337/gallo4/psi4/eri-6/psi4/build/stage/share/psi4
    Memory:     500.0 MiB
    Threads:    48
    
  ==> Input File <==

--------------------------------------------------------------------------
# Any line starting with the # character is a comment line
memory 250000 mb
molecule molecule{
0 2
O          0.0000000000        0.0000000000       -0.0574567159
H          0.0000000000        0.0000000000        0.9120314505
}

set {
  reference uhf
  basis aug-cc-pV(d+d)Z
  scf_type OUT_OF_CORE
  freeze_core true
}

energy('ccsd(t)')
--------------------------------------------------------------------------

  Memory set to 232.831 GiB by Python driver.

Scratch directory: /binfl/lv71337/airmler/temp/

*** tstart() called on n412-039.vsc4.prov
*** at Tue Jan 26 18:32:50 2021

   => Loading Basis Set <=

    Name: AUG-CC-PV(D+D)Z
    Role: ORBITAL
    Keyword: BASIS
    atoms 1 entry O          line   282 file /home/fs71337/gallo4/psi4/eri-6/psi4/build/stage/share/psi4/basis/aug-cc-pv_dpd_z.gbs 
    atoms 2 entry H          line    68 file /home/fs71337/gallo4/psi4/eri-6/psi4/build/stage/share/psi4/basis/aug-cc-pv_dpd_z.gbs 


         ---------------------------------------------------------
                                   SCF
               by Justin Turney, Rob Parrish, Andy Simmonett
                          and Daniel G. A. Smith
                              UHF Reference
                       48 Threads, 238418 MiB Core
         ---------------------------------------------------------

  ==> Geometry <==

    Molecular point group: c2v
    Full point group: C_inf_v

    Geometry (in Angstrom), charge = 0, multiplicity = 2:

       Center              X                  Y                   Z               Mass       
    ------------   -----------------  -----------------  -----------------  -----------------
         O            0.000000000000     0.000000000000    -0.057465706266    15.994914619570
         H            0.000000000000     0.000000000000     0.912022460134     1.007825032230

  Running in c2v symmetry.

  Rotational constants: A = ************  B =     18.91748  C =     18.91748 [cm^-1]
  Rotational constants: A = ************  B = 567131.81634  C = 567131.81634 [MHz]
  Nuclear repulsion =    4.366652252270338

  Charge       = 0
  Multiplicity = 2
  Electrons    = 9
  Nalpha       = 5
  Nbeta        = 4

  ==> Algorithm <==

  SCF Algorithm Type is OUT_OF_CORE.
  DIIS enabled.
  MOM disabled.
  Fractional occupation disabled.
  Guess Type is SAD.
  Energy threshold   = 1.00e-08
  Density threshold  = 1.00e-08
  Integral threshold = 1.00e-12

  ==> Primary Basis <==

  Basis Set: AUG-CC-PV(D+D)Z
    Blend: AUG-CC-PV(D+D)Z
    Number of shells: 14
    Number of basis function: 32
    Number of Cartesian functions: 34
    Spherical Harmonics?: true
    Max angular momentum: 2

  ==> Integral Setup <==

  ==> DiskJK: Disk-Based J/K Matrices <==

    J tasked:                  Yes
    K tasked:                  Yes
    wK tasked:                  No
    Memory [MiB]:           178813
    Schwarz Cutoff:          1E-12

  Minimum eigenvalue in the overlap matrix is 3.4126551626E-03.
  Reciprocal condition number of the overlap matrix is 8.4578758268E-04.
    Using symmetric orthogonalization.

  ==> Pre-Iterations <==

  SCF Guess: Superposition of Atomic Densities via on-the-fly atomic UHF (no occupation information).


 WARNING: Atomic UHF is not converging! Try casting from a smaller basis or call Rob at CCMST.

 WARNING: Atomic UHF is not converging! Try casting from a smaller basis or call Rob at CCMST.
   -------------------------
    Irrep   Nso     Nmo    
   -------------------------
     A1        16      16 
     A2         2       2 
     B1         7       7 
     B2         7       7 
   -------------------------
    Total      32      32
   -------------------------

  ==> Iterations <==

                        Total Energy        Delta E     RMS |[F,P]|

   @UHF iter SAD:   -73.18115639761454   -7.31812e+01   0.00000e+00 
   @UHF iter   1:   -75.31959472976057   -2.13844e+00   2.33557e-02 DIIS
   @UHF iter   2:   -75.38542477458225   -6.58300e-02   1.13379e-02 DIIS
   @UHF iter   3:   -75.40294805812630   -1.75233e-02   1.34399e-03 DIIS
   @UHF iter   4:   -75.40357682368008   -6.28766e-04   3.78125e-04 DIIS
   @UHF iter   5:   -75.40364591624618   -6.90926e-05   1.51346e-04 DIIS
   @UHF iter   6:   -75.40366019655247   -1.42803e-05   5.82576e-05 DIIS
   @UHF iter   7:   -75.40366283240685   -2.63585e-06   1.73306e-05 DIIS
   @UHF iter   8:   -75.40366304077466   -2.08368e-07   4.17441e-06 DIIS
   @UHF iter   9:   -75.40366304991717   -9.14251e-09   1.42163e-06 DIIS
   @UHF iter  10:   -75.40366305113048   -1.21331e-09   2.23001e-07 DIIS
   @UHF iter  11:   -75.40366305115893   -2.84501e-11   3.01096e-08 DIIS
   @UHF iter  12:   -75.40366305115928   -3.55271e-13   6.19681e-09 DIIS
  Energy and wave function converged.


  ==> Post-Iterations <==

   @Spin Contamination Metric:   6.551866029E-03
   @S^2 Expected:                7.500000000E-01
   @S^2 Observed:                7.565518660E-01
   @S   Expected:                5.000000000E-01
   @S   Observed:                5.000000000E-01

    Orbital Energies [Eh]
    ---------------------

    Alpha Occupied:                                                       

       1A1   -20.651374     2A1    -1.393143     3A1    -0.684371  
       1B1    -0.657138     1B2    -0.561616  

    Alpha Virtual:                                                        

       4A1     0.035719     5A1     0.178262     2B1     0.185140  
       2B2     0.198035     6A1     0.225757     7A1     0.316747  
       3B1     0.386475     3B2     0.396827     8A1     0.626165  
       9A1     0.841147     1A2     0.956407    10A1     0.958156  
       4B1     1.086561     4B2     1.117012    11A1     1.316973  
       5B1     1.328596     5B2     1.387459    12A1     1.662650  
       6B1     2.013412     6B2     2.031251    13A1     2.494953  
      14A1     2.760237    15A1     3.484053     2A2     3.484131  
       7B1     3.592349     7B2     3.652595    16A1     4.098223  

    Beta Occupied:                                                        

       1A1   -20.610501     2A1    -1.235341     3A1    -0.640027  
       1B2    -0.511969  

    Beta Virtual:                                                         

       4A1     0.037176     1B1     0.064451     5A1     0.181634  
       2B2     0.201482     6A1     0.232620     2B1     0.257685  
       7A1     0.321856     3B2     0.396418     3B1     0.409700  
       8A1     0.640952     9A1     0.851536     1A2     0.995098  
      10A1     0.996188     4B2     1.119274     4B1     1.132252  
      11A1     1.332057     5B2     1.410666     5B1     1.498999  
      12A1     1.685614     6B1     2.021402     6B2     2.027956  
      13A1     2.527313    14A1     2.776037     2A2     3.584409  
      15A1     3.585122     7B2     3.671253     7B1     3.689032  
      16A1     4.132201  

    Final Occupation by Irrep:
             A1    A2    B1    B2 
    DOCC [     3,    0,    0,    1 ]
    SOCC [     0,    0,    1,    0 ]

  @UHF Final Energy:   -75.40366305115928

   => Energetics <=

    Nuclear Repulsion Energy =              4.3666522522703382
    One-Electron Energy =                -112.5951497685518063
    Two-Electron Energy =                  32.8248344651221799
    Total Energy =                        -75.4036630511592847

  UHF NO Occupations:
  HONO-2 :    2 A1 1.9992611
  HONO-1 :    3 A1 1.9980184
  HONO-0 :    1 B1 1.0000000
  LUNO+0 :    4 A1 0.0019816
  LUNO+1 :    5 A1 0.0007389
  LUNO+2 :    2 B2 0.0005573
  LUNO+3 :    6 A1 0.0000004


Computation Completed


Properties will be evaluated at   0.000000,   0.000000,   0.000000 [a0]

Properties computed using the SCF density matrix

  Nuclear Dipole Moment: [e a0]
     X:     0.0000      Y:     0.0000      Z:     0.8547

  Electronic Dipole Moment: [e a0]
     X:     0.0000      Y:     0.0000      Z:    -0.1582

  Dipole Moment: [e a0]
     X:     0.0000      Y:     0.0000      Z:     0.6965     Total:     0.6965

  Dipole Moment: [D]
     X:     0.0000      Y:     0.0000      Z:     1.7704     Total:     1.7704


*** tstop() called on n412-039.vsc4.prov at Tue Jan 26 18:32:51 2021
Module time:
	user time   =      13.72 seconds =       0.23 minutes
	system time =       0.92 seconds =       0.02 minutes
	total time  =          1 seconds =       0.02 minutes
Total time:
	user time   =      13.72 seconds =       0.23 minutes
	system time =       0.92 seconds =       0.02 minutes
	total time  =          1 seconds =       0.02 minutes

*** tstart() called on n412-039.vsc4.prov
*** at Tue Jan 26 18:32:51 2021


	Wfn Parameters:
	--------------------
	Wavefunction         = CCSD_T
	Number of irreps     = 4
	Number of MOs        = 32
	Number of active MOs = 31
	AO-Basis             = NONE
	Semicanonical        = false
	Reference            = UHF
	Print Level          = 1

	IRREP	# MOs	# FZDC	# DOCC	# SOCC	# VIRT	# FZVR
	-----	-----	------	------	------	------	------
	 A1	   16	    1	    2	    0	    13	    0
	 A2	   2	    0	    0	    0	    2	    0
	 B1	   7	    0	    0	    1	    6	    0
	 B2	   7	    0	    1	    0	    6	    0
	Transforming integrals...
	IWL integrals will be deleted.
	(OO|OO)...
	Presorting SO-basis two-electron integrals.
	Sorting File: SO Ints (nn|nn) nbuckets = 1
	Constructing frozen core operators
	Starting AA/AB first half-transformation.
	Sorting AA/AB half-transformed integrals.
	Starting BB first half-transformation.
	Sorting BB half-transformed integrals.
	First half integral transformation complete.
	Starting AA second half-transformation.
	Starting AB second half-transformation.
	Starting BB second half-transformation.
	Two-electron integral transformation complete.
	(OO|OV)...
	Starting AA second half-transformation.
	Starting AB second half-transformation.
	Starting BB second half-transformation.
	Two-electron integral transformation complete.
	(OO|VV)...
	Starting AA second half-transformation.
	Starting AB second half-transformation.
	Starting BB second half-transformation.
	Two-electron integral transformation complete.
	(OV|OO)...
	Starting AA/AB first half-transformation.
	Sorting AA/AB half-transformed integrals.
	Starting BB first half-transformation.
	Sorting BB half-transformed integrals.
	First half integral transformation complete.
	Starting AA second half-transformation.
	Starting AB second half-transformation.
	Starting BB second half-transformation.
	Two-electron integral transformation complete.
	(OV|OV)...
	Starting AA second half-transformation.
	Starting AB second half-transformation.
	Starting BB second half-transformation.
	Two-electron integral transformation complete.
	(OV|VV)...
	Starting AA second half-transformation.
	Starting AB second half-transformation.
	Starting BB second half-transformation.
	Two-electron integral transformation complete.
	(VV|OO)...
	Starting AA/AB first half-transformation.
	Sorting AA/AB half-transformed integrals.
	Starting BB first half-transformation.
	Sorting BB half-transformed integrals.
	First half integral transformation complete.
	Starting AA second half-transformation.
	Starting AB second half-transformation.
	Starting BB second half-transformation.
	Two-electron integral transformation complete.
	(VV|OV)...
	Starting AA second half-transformation.
	Starting AB second half-transformation.
	Starting BB second half-transformation.
	Two-electron integral transformation complete.
	(VV|VV)...
	Starting AA second half-transformation.
	Starting AB second half-transformation.
	Starting BB second half-transformation.
	Two-electron integral transformation complete.
	Frozen core energy     =    -60.19681904934769

	Size of irrep 0 of <AB|CD> integrals:      0.012 (MW) /      0.095 (MB)
	Size of irrep 1 of <AB|CD> integrals:      0.004 (MW) /      0.031 (MB)
	Size of irrep 2 of <AB|CD> integrals:      0.008 (MW) /      0.065 (MB)
	Size of irrep 3 of <AB|CD> integrals:      0.008 (MW) /      0.065 (MB)
	Total:                                     0.032 (MW) /      0.255 (MB)

	Size of irrep 0 of <ab|cd> integrals:      0.013 (MW) /      0.106 (MB)
	Size of irrep 1 of <ab|cd> integrals:      0.005 (MW) /      0.037 (MB)
	Size of irrep 2 of <ab|cd> integrals:      0.011 (MW) /      0.085 (MB)
	Size of irrep 3 of <ab|cd> integrals:      0.008 (MW) /      0.068 (MB)
	Total:                                     0.037 (MW) /      0.295 (MB)

	Size of irrep 0 of <Ab|Cd> integrals:      0.063 (MW) /      0.504 (MB)
	Size of irrep 1 of <Ab|Cd> integrals:      0.017 (MW) /      0.135 (MB)
	Size of irrep 2 of <Ab|Cd> integrals:      0.037 (MW) /      0.298 (MB)
	Size of irrep 3 of <Ab|Cd> integrals:      0.033 (MW) /      0.265 (MB)
	Total:                                     0.150 (MW) /      1.202 (MB)

	Size of irrep 0 of <IA|BC> integrals:      0.009 (MW) /      0.074 (MB)
	Size of irrep 1 of <IA|BC> integrals:      0.002 (MW) /      0.016 (MB)
	Size of irrep 2 of <IA|BC> integrals:      0.005 (MW) /      0.039 (MB)
	Size of irrep 3 of <IA|BC> integrals:      0.005 (MW) /      0.039 (MB)
	Total:                                     0.021 (MW) /      0.168 (MB)

	Size of irrep 0 of <ia|bc> integrals:      0.008 (MW) /      0.066 (MB)
	Size of irrep 1 of <ia|bc> integrals:      0.001 (MW) /      0.012 (MB)
	Size of irrep 2 of <ia|bc> integrals:      0.003 (MW) /      0.026 (MB)
	Size of irrep 3 of <ia|bc> integrals:      0.005 (MW) /      0.037 (MB)
	Total:                                     0.018 (MW) /      0.141 (MB)

	Size of irrep 0 of <Ia|Bc> integrals:      0.010 (MW) /      0.078 (MB)
	Size of irrep 1 of <Ia|Bc> integrals:      0.002 (MW) /      0.018 (MB)
	Size of irrep 2 of <Ia|Bc> integrals:      0.006 (MW) /      0.045 (MB)
	Size of irrep 3 of <Ia|Bc> integrals:      0.005 (MW) /      0.039 (MB)
	Total:                                     0.023 (MW) /      0.180 (MB)

	Size of irrep 0 of <iA|bC> integrals:      0.008 (MW) /      0.064 (MB)
	Size of irrep 1 of <iA|bC> integrals:      0.001 (MW) /      0.010 (MB)
	Size of irrep 2 of <iA|bC> integrals:      0.003 (MW) /      0.022 (MB)
	Size of irrep 3 of <iA|bC> integrals:      0.005 (MW) /      0.036 (MB)
	Total:                                     0.017 (MW) /      0.133 (MB)

	Size of irrep 0 of tIjAb amplitudes:       0.001 (MW) /      0.010 (MB)
	Size of irrep 1 of tIjAb amplitudes:       0.000 (MW) /      0.001 (MB)
	Size of irrep 2 of tIjAb amplitudes:       0.000 (MW) /      0.003 (MB)
	Size of irrep 3 of tIjAb amplitudes:       0.001 (MW) /      0.006 (MB)
	Total:                                     0.002 (MW) /      0.020 (MB)

	Nuclear Rep. energy          =      4.36665225227034
	SCF energy                   =    -75.40366305115928
	One-electron energy          =    -33.46338652843514
	Two-electron (AA) energy     =      3.68893645834559
	Two-electron (BB) energy     =      1.71670037240488
	Two-electron (AB) energy     =      8.48425344360262
	Two-electron energy          =     13.88989027435309
	Reference energy             =    -75.40366305115940

*** tstop() called on n412-039.vsc4.prov at Tue Jan 26 18:32:52 2021
Module time:
	user time   =       0.06 seconds =       0.00 minutes
	system time =       0.16 seconds =       0.00 minutes
	total time  =          1 seconds =       0.02 minutes
Total time:
	user time   =      13.78 seconds =       0.23 minutes
	system time =       1.08 seconds =       0.02 minutes
	total time  =          2 seconds =       0.03 minutes
            **************************
            *                        *
            *        CCENERGY        *
            *                        *
            **************************

    Nuclear Rep. energy (wfn)     =    4.366652252270338
    SCF energy          (wfn)     =  -75.403663051159285
    Reference energy    (file100) =  -75.403663051159398

    Input parameters:
    -----------------
    Wave function   =     CCSD_T
    Reference wfn   =     UHF
    Brueckner       =     No
    Memory (Mbytes) =     250000.0
    Maxiter         =     50
    R_Convergence   =     1.0e-07
    E_Convergence   =     1.0e-06
    Restart         =     Yes
    DIIS            =     Yes
    AO Basis        =     NONE
    ABCD            =     NEW
    Cache Level     =     2
    Cache Type      =     LRU
    Print Level     =     1
    Num. of threads =     48
    # Amps to Print =     10
    Print MP2 Amps? =     No
    Analyze T2 Amps =     No
    Print Pair Ener =     No
    Local CC        =     No
    SCS-MP2         =     False
    SCSN-MP2        =     False
    SCS-CCSD        =     False

MP2 correlation energy -0.1618790367472083
                Solving CC Amplitude Equations
                ------------------------------
  Iter             Energy              RMS        T1Diag      D1Diag    New D1Diag    D2Diag
  ----     ---------------------    ---------   ----------  ----------  ----------   --------
     0        -0.161879036747208    0.000e+00    0.000000    0.000000    0.000000    0.000000
     1        -0.172023975614559    4.299e-02    0.012731    0.000000    0.000000    0.000000
     2        -0.175849962111706    1.327e-02    0.014486    0.000000    0.000000    0.000000
     3        -0.176954029617617    6.781e-03    0.016862    0.000000    0.000000    0.000000
     4        -0.176937245054269    2.287e-03    0.017298    0.000000    0.000000    0.000000
     5        -0.176943170169414    9.351e-04    0.017300    0.000000    0.000000    0.000000
     6        -0.176966704460124    3.517e-04    0.017280    0.000000    0.000000    0.000000
     7        -0.176969033031715    9.856e-05    0.017265    0.000000    0.000000    0.000000
     8        -0.176968878067382    3.169e-05    0.017263    0.000000    0.000000    0.000000
     9        -0.176968742791031    1.318e-05    0.017264    0.000000    0.000000    0.000000
    10        -0.176968719504352    5.450e-06    0.017264    0.000000    0.000000    0.000000
    11        -0.176968746021572    1.871e-06    0.017264    0.000000    0.000000    0.000000
    12        -0.176968779307478    6.884e-07    0.017264    0.000000    0.000000    0.000000
    13        -0.176968785904577    2.812e-07    0.017264    0.000000    0.000000    0.000000
    14        -0.176968788267625    1.163e-07    0.017264    0.000000    0.000000    0.000000
    15        -0.176968788063386    4.717e-08    0.017264    0.000000    0.000000    0.000000

    Iterations converged.


    Largest TIA Amplitudes:
              3  21        -0.0203371783
              2  15        -0.0181228570
              3  22        -0.0116135740
              2  16        -0.0106132420
              1   3         0.0095875473
              1   1         0.0085231772
              0   2        -0.0063620621
              1   9        -0.0050036395
              2  18        -0.0039285137
              3  24        -0.0033702093

    Largest Tia Amplitudes:
              2  22        -0.0185039261
              2  23        -0.0114032482
              1   3         0.0076417910
              0   6        -0.0055377527
              0   3        -0.0055280251
              1   1         0.0054496329
              1   9        -0.0051949043
              0   9        -0.0050590277
              0   5        -0.0040518991
              1   8         0.0036024078

    Largest TIJAB Amplitudes:
      3   2  24  18        -0.0207853419
      3   2  13   6        -0.0156802444
      2   1  18   7         0.0136445919
      3   1  24   7         0.0131732067
      3   2  21  18        -0.0118131567
      2   1  17   5        -0.0117504749
      3   2  14  11        -0.0116701964
      3   1  23   5        -0.0110093222
      2   1  18   3         0.0109074139
      3   2  24  15        -0.0109000737

    Largest Tijab Amplitudes:
      2   1  25   7         0.0126089811
      2   1  24   5        -0.0126014633
      2   1  25   3         0.0104657220
      2   0  15  13         0.0104102872
      2   1  23   3         0.0095063885
      2   1  23   5         0.0092386517
      2   1  25   1         0.0090920892
      2   1  22   1         0.0090218191
      2   1  22   7         0.0086019768
      1   0  18  15        -0.0083160362

    Largest TIjAb Amplitudes:
      3   2  24  25        -0.0385684417
      1   1   5   5        -0.0287579665
      2   2  18  25        -0.0272802427
      1   1   7   7        -0.0223735686
      3   2  24  22        -0.0213948571
      3   2  21  25        -0.0207964574
      1   1   3   3        -0.0207270825
      3   2  21  22        -0.0190152930
      1   1   3   5        -0.0186834765
      3   0  13  15        -0.0184009811

    SCF energy       (wfn)                    =  -75.403663051159285
    Reference energy (file100)                =  -75.403663051159398

    Opposite-spin MP2 correlation energy      =   -0.122282678013526
    Same-spin MP2 correlation energy          =   -0.039596358733683
    Singles MP2 correlation energy            =   -0.000000000000000
    MP2 correlation energy                    =   -0.161879036747208
      * MP2 total energy                      =  -75.565542087906607

    Opposite-spin CCSD correlation energy     =   -0.139426456968717
    Same-spin CCSD correlation energy         =   -0.037542331094670
    Singles CCSD correlation energy           =    0.000000000000000
    CCSD correlation energy                   =   -0.176968788063386
      * CCSD total energy                     =  -75.580631839222789

            **************************
            *                        *
            *        CCTRIPLES       *
            *                        *
            **************************


    Wave function   =    CCSD_T
    Reference wfn   =      UHF

    Nuclear Rep. energy (wfn)                =    4.366652252270338
    SCF energy          (wfn)                =  -75.403663051159285
    Reference energy    (file100)            =  -75.403663051159398
    CCSD energy         (file100)            =   -0.176968788063386
    Total CCSD energy   (file100)            =  -75.580631839222789

    Number of ijk index combinations:
    Spin Case AAA:                                   4
    Spin Case BBB:                                   1
    Spin Case AAB:                                  18
    Spin Case ABB:                                  12
    AAA (T) energy                             =   -0.000099280091036
    BBB (T) energy                             =   -0.000021571417636
    AAB (T) energy                             =   -0.001949856383868
    ABB (T) energy                             =   -0.001286040322041
    (T) energy                                   =   -0.003356748214581
      * CCSD(T) total energy                     =  -75.583988587437361


    Psi4 stopped on: Tuesday, 26 January 2021 06:32PM
    Psi4 wall time for execution: 0:00:05.79

*** Psi4 exiting successfully. Buy a developer a beer!
