
    -----------------------------------------------------------------------
          Psi4: An Open-Source Ab Initio Electronic Structure Package
                               Psi4 1.2a1.dev939 

                         Git: Rev {HEAD} fa1ec19 dirty


    R. M. Parrish, L. A. Burns, D. G. A. Smith, A. C. Simmonett,
    A. E. DePrince III, E. G. Hohenstein, U. Bozkaya, A. Yu. Sokolov,
    R. Di Remigio, R. M. Richard, J. F. Gonthier, A. M. James,
    H. R. McAlexander, A. Kumar, M. Saitow, X. Wang, B. P. Pritchard,
    P. Verma, H. F. Schaefer III, K. Patkowski, R. A. King, E. F. Valeev,
    F. A. Evangelista, J. M. Turney, T. D. Crawford, and C. D. Sherrill,
    J. Chem. Theory Comput. 13(7) pp 3185--3197 (2017).
    (doi: 10.1021/acs.jctc.7b00174)

    -----------------------------------------------------------------------


    Psi4 started on: Tuesday, 11 August 2020 08:26AM

    Process ID: 322311
    PSIDATADIR: /home/fs71337/airmler/src/psi4new/build/stage/usr/local/psi4/share/psi4
    Memory:     500.0 MiB
    Threads:    48
    
  ==> Input File <==

--------------------------------------------------------------------------
# Any line starting with the # character is a comment line
memory 250000 mb
molecule molecule{
-1 1
C          0.0000000000        0.0000000000        0.6411129114
N          0.0000000000        0.0000000000       -0.5497659819

}

set {
  reference rhf
  basis aug-cc-pv(6+d)z
  scf_type OUT_OF_CORE
  freeze_core true
}

energy('ccsd')
--------------------------------------------------------------------------

  Memory set to 232.831 GiB by Python driver.

*** tstart() called on n412-071.vsc4.prov
*** at Tue Aug 11 08:26:12 2020

   => Loading Basis Set <=

    Name: AUG-CC-PV(6+D)Z
    Role: ORBITAL
    Keyword: BASIS
    atoms 1 entry C          line   267 file /home/fs71337/airmler/src/psi4new/build/stage/usr/local/psi4/share/psi4/basis/aug-cc-pv_6pd_z.gbs 
    atoms 2 entry N          line   363 file /home/fs71337/airmler/src/psi4new/build/stage/usr/local/psi4/share/psi4/basis/aug-cc-pv_6pd_z.gbs 


         ---------------------------------------------------------
                                   SCF
            by Justin Turney, Rob Parrish, Andy Simmonett
                             and Daniel Smith
                              RHF Reference
                       48 Threads, 238418 MiB Core
         ---------------------------------------------------------

  ==> Geometry <==

    Molecular point group: c2v
    Full point group: C_inf_v

    Geometry (in Angstrom), charge = -1, multiplicity = 1:

       Center              X                  Y                   Z               Mass       
    ------------   -----------------  -----------------  -----------------  -----------------
           C          0.000000000000     0.000000000000     0.641307457362    12.000000000000
           N          0.000000000000     0.000000000000    -0.549571435938    14.003074004780

  Running in c2v symmetry.

  Rotational constants: A = ************  B =      1.83942  C =      1.83942 [cm^-1]
  Rotational constants: A = ************  B =  55144.48204  C =  55144.48204 [MHz]
  Nuclear repulsion =   18.663058759226058

  Charge       = -1
  Multiplicity = 1
  Electrons    = 14
  Nalpha       = 7
  Nbeta        = 7

  ==> Algorithm <==

  SCF Algorithm Type is OUT_OF_CORE.
  DIIS enabled.
  MOM disabled.
  Fractional occupation disabled.
  Guess Type is SAD.
  Energy threshold   = 1.00e-08
  Density threshold  = 1.00e-08
  Integral threshold = 0.00e+00

  ==> Primary Basis <==

  Basis Set: AUG-CC-PV(6+D)Z
    Blend: AUG-CC-PV(6+D)Z
    Number of shells: 70
    Number of basis function: 378
    Number of Cartesian functions: 588
    Spherical Harmonics?: true
    Max angular momentum: 6

  ==> Pre-Iterations <==

   -------------------------------------------------------
    Irrep   Nso     Nmo     Nalpha   Nbeta   Ndocc  Nsocc
   -------------------------------------------------------
     A1       132     132       0       0       0       0
     A2        62      62       0       0       0       0
     B1        92      92       0       0       0       0
     B2        92      92       0       0       0       0
   -------------------------------------------------------
    Total     378     378       7       7       7       0
   -------------------------------------------------------

  ==> Integral Setup <==

  ==> DiskJK: Disk-Based J/K Matrices <==

    J tasked:                  Yes
    K tasked:                  Yes
    wK tasked:                  No
    Memory (MB):            178813
    Schwarz Cutoff:          1E-12

  Minimum eigenvalue in the overlap matrix is 1.2813057250E-06.
  Using Symmetric Orthogonalization.

  SCF Guess: Superposition of Atomic Densities via on-the-fly atomic UHF.

  ==> Iterations <==

                        Total Energy        Delta E     RMS |[F,P]|

   @RHF iter   0:   -96.86751253171056   -9.68675e+01   4.47924e-02 
   @RHF iter   1:   -91.93158609754671    4.93593e+00   1.42819e-02 
   @RHF iter   2:   -92.19965778790402   -2.68072e-01   1.07673e-02 DIIS
   @RHF iter   3:   -92.33567875201162   -1.36021e-01   2.21880e-03 DIIS
   @RHF iter   4:   -92.34355674169227   -7.87799e-03   8.92688e-04 DIIS
   @RHF iter   5:   -92.34577474948232   -2.21801e-03   3.14524e-04 DIIS
   @RHF iter   6:   -92.34625991336544   -4.85164e-04   1.12789e-04 DIIS
   @RHF iter   7:   -92.34640248231408   -1.42569e-04   4.74235e-05 DIIS
   @RHF iter   8:   -92.34642215037545   -1.96681e-05   8.60285e-06 DIIS
   @RHF iter   9:   -92.34642275523808   -6.04863e-07   2.07192e-06 DIIS
   @RHF iter  10:   -92.34642277006107   -1.48230e-08   2.05455e-07 DIIS
   @RHF iter  11:   -92.34642277021298   -1.51914e-10   3.91031e-08 DIIS
   @RHF iter  12:   -92.34642277021661   -3.62377e-12   7.90665e-09 DIIS

  ==> Post-Iterations <==

    Orbital Energies (a.u.)
    -----------------------

    Doubly Occupied:                                                      

       1A1   -15.290287     2A1   -10.975558     3A1    -0.918446  
       4A1    -0.344652     5A1    -0.193954     1B2    -0.189411  
       1B1    -0.189411  

    Virtual:                                                              

       6A1     0.154922     2B2     0.167854     2B1     0.167854  
       7A1     0.172985     3B2     0.209371     3B1     0.209371  
       8A1     0.215547     9A1     0.300452    10A1     0.350429  
       1A2     0.350429     4B2     0.356772     4B1     0.356772  
       5B2     0.370751     5B1     0.370751    11A1     0.371885  
      12A1     0.396943     6B2     0.445650     6B1     0.445650  
      13A1     0.466191    14A1     0.478152     2A2     0.478152  
      15A1     0.548500     7B2     0.565915     7B1     0.565915  
       8B2     0.660422     8B1     0.660422     9B1     0.670484  
       9B2     0.670484    16A1     0.676552    10B2     0.721824  
      10B1     0.721824    17A1     0.723598     3A2     0.740101  
      18A1     0.740101    19A1     0.828872    20A1     0.829859  
       4A2     0.829859    11B2     0.886573    11B1     0.886573  
      21A1     0.887012    12B2     0.897883    12B1     0.897883  
       5A2     0.908630    22A1     0.908630    23A1     0.967950  
      13B2     1.002652    13B1     1.002652    24A1     1.073382  
      14B2     1.080558    14B1     1.080558    25A1     1.257463  
      26A1     1.271995     6A2     1.271995    15B2     1.317171  
      15B1     1.317171    27A1     1.358424    28A1     1.488508  
       7A2     1.488508    16B2     1.532293    16B1     1.532293  
      29A1     1.580387    17B2     1.581853    17B1     1.581853  
       8A2     1.616815    30A1     1.616815    18B2     1.616819  
      18B1     1.616819    31A1     1.621320    19B2     1.633448  
      19B1     1.633448     9A2     1.677276    32A1     1.677276  
      33A1     1.760144    20B2     1.795486    20B1     1.795486  
      10A2     1.850425    34A1     1.850425    35A1     1.872811  
      36A1     2.007022    11A2     2.007022    37A1     2.011059  
      21B2     2.027392    21B1     2.027392    22B1     2.044329  
      22B2     2.044329    12A2     2.156228    38A1     2.156228  
      23B2     2.173172    23B1     2.173172    39A1     2.192860  
      13A2     2.388200    40A1     2.388200    24B2     2.418162  
      24B1     2.418162    25B2     2.422484    25B1     2.422484  
      41A1     2.586718    42A1     2.658086    26B2     2.749951  
      26B1     2.749951    27B1     2.873001    27B2     2.873001  
      28B2     2.904158    28B1     2.904158    43A1     2.939202  
      14A2     2.977940    44A1     2.977940    15A2     3.104201  
      45A1     3.104201    46A1     3.139957    29B2     3.298033  
      29B1     3.298033    30B2     3.310868    30B1     3.310868  
      16A2     3.316163    47A1     3.316163    31B2     3.377674  
      31B1     3.377674    48A1     3.382989    32B2     3.398337  
      32B1     3.398337    49A1     3.485763    17A2     3.485763  
      50A1     3.580083    18A2     3.584871    51A1     3.584871  
      19A2     3.648818    52A1     3.648818    53A1     3.783598  
      33B1     3.824502    33B2     3.824502    34B2     3.831744  
      34B1     3.831744    35B2     3.847030    35B1     3.847030  
      54A1     4.105182    20A2     4.183645    55A1     4.183645  
      36B1     4.208039    36B2     4.208039    56A1     4.311767  
      21A2     4.311767    37B2     4.350902    37B1     4.350902  
      57A1     4.453378    38B2     4.459823    38B1     4.459823  
      22A2     4.553352    58A1     4.553352    59A1     4.614647  
      39B2     4.679568    39B1     4.679568    40B1     4.693721  
      40B2     4.693721    23A2     4.755626    60A1     4.755626  
      41B1     5.038982    41B2     5.038982    24A2     5.216271  
      61A1     5.216271    62A1     5.365562    42B1     5.494944  
      42B2     5.494944    63A1     5.511146    64A1     5.539477  
      25A2     5.546592    65A1     5.546592    66A1     5.606720  
      26A2     5.606720    67A1     5.779032    43B2     5.791710  
      43B1     5.791710    44B2     5.813895    44B1     5.813895  
      45B1     6.097394    45B2     6.097394    27A2     6.415002  
      68A1     6.415002    28A2     6.451291    69A1     6.451291  
      46B1     6.472469    46B2     6.472469    70A1     6.535549  
      47B2     6.600744    47B1     6.600744    29A2     6.629643  
      71A1     6.629643    48B1     6.639894    48B2     6.639894  
      72A1     6.667314    30A2     6.667314    49B1     6.913032  
      49B2     6.913032    50B2     6.957012    50B1     6.957012  
      73A1     7.008258    31A2     7.136184    74A1     7.136184  
      51B1     7.255928    51B2     7.255928    75A1     7.479869  
      52B2     7.510846    52B1     7.510846    32A2     7.569561  
      76A1     7.569561    77A1     7.649327    33A2     7.649327  
      53B1     7.714882    53B2     7.714882    78A1     7.720657  
      34A2     7.925631    79A1     7.925631    54B2     7.950572  
      54B1     7.950572    35A2     8.033943    80A1     8.033943  
      81A1     8.066496    55B1     8.076243    55B2     8.076243  
      56B1     8.151277    56B2     8.151277    82A1     8.554796  
      57B2     8.737478    57B1     8.737478    83A1     8.853887  
      36A2     8.853887    58B2     8.886741    58B1     8.886741  
      84A1     8.963240    37A2     9.000526    85A1     9.000526  
      59B1     9.003722    59B2     9.003722    86A1     9.349594  
      38A2     9.349594    60B1     9.517372    60B2     9.517372  
      61B1     9.641691    61B2     9.641691    39A2     9.704877  
      87A1     9.704877    88A1     9.715022    62B1    10.224545  
      62B2    10.224545    40A2    10.303320    89A1    10.303320  
      63B1    10.378777    63B2    10.378777    90A1    10.475146  
      41A2    10.675170    91A1    10.675170    64B1    10.836894  
      64B2    10.836894    42A2    11.218073    92A1    11.218073  
      93A1    11.342527    65B1    11.689437    65B2    11.689437  
      94A1    11.736168    66B2    11.897714    66B1    11.897714  
      95A1    11.906072    43A2    12.364624    96A1    12.364624  
      97A1    12.801211    44A2    12.801211    67B2    12.890387  
      67B1    12.890387    45A2    13.052622    98A1    13.052622  
      99A1    13.090452    68B1    13.107161    68B2    13.107161  
      46A2    13.318771   100A1    13.318771    69B2    13.911616  
      69B1    13.911616   101A1    14.017588    70B1    14.025043  
      70B2    14.025043    71B1    14.276236    71B2    14.276236  
      47A2    14.311229   102A1    14.311229    72B1    14.684744  
      72B2    14.684744    73B1    14.853158    73B2    14.853158  
     103A1    14.940714    48A2    14.940714    74B2    15.005982  
      74B1    15.005982    49A2    15.038261   104A1    15.038261  
     105A1    15.269885    75B2    15.319102    75B1    15.319102  
     106A1    15.504839    76B1    15.856504    76B2    15.856504  
      50A2    16.811002   107A1    16.811002   108A1    16.932923  
     109A1    17.167803    51A2    17.167803    77B1    17.618565  
      77B2    17.618565   110A1    17.650797    52A2    17.650797  
     111A1    17.760649    78B1    17.855352    78B2    17.855352  
      79B2    17.861399    79B1    17.861399    53A2    18.448997  
     112A1    18.448997    54A2    18.536190   113A1    18.536190  
      80B1    18.738138    80B2    18.738138   114A1    18.920504  
      81B2    18.955787    81B1    18.955787    82B1    19.567451  
      82B2    19.567451    55A2    19.826588   115A1    19.826588  
     116A1    19.945041    83B1    20.137837    83B2    20.137837  
     117A1    20.572716    84B1    20.581485    84B2    20.581485  
      56A2    20.777078   118A1    20.777078   119A1    20.799185  
      57A2    20.799185    85B1    21.035798    85B2    21.035798  
     120A1    21.377069    58A2    21.435879   121A1    21.435879  
      86B1    21.824305    86B2    21.824305    87B1    21.892751  
      87B2    21.892751   122A1    22.285926    88B1    22.502491  
      88B2    22.502491    59A2    23.265675   123A1    23.265675  
     124A1    23.497963   125A1    24.347814    60A2    24.347814  
      89B2    25.050000    89B1    25.050000    90B1    25.416019  
      90B2    25.416019    61A2    25.774722   126A1    25.774722  
     127A1    26.391095    91B1    26.626598    91B2    26.626598  
     128A1    27.301367   129A1    29.210471    62A2    29.210471  
      92B1    31.461045    92B2    31.461045   130A1    32.253966  
     131A1    60.724361   132A1    82.502548  

    Final Occupation by Irrep:
             A1    A2    B1    B2 
    DOCC [     5,    0,    1,    1 ]

  Energy converged.

  @RHF Final Energy:   -92.34642277021661

   => Energetics <=

    Nuclear Repulsion Energy =             18.6630587592260575
    One-Electron Energy =                -165.8155259633488186
    Two-Electron Energy =                  54.8060444339061519
    Total Energy =                        -92.3464227702166056



Properties will be evaluated at   0.000000,   0.000000,   0.000000 Bohr

Properties computed using the SCF density matrix

  Nuclear Dipole Moment: (a.u.)
     X:     0.0000      Y:     0.0000      Z:     0.0016

  Electronic Dipole Moment: (a.u.)
     X:     0.0000      Y:     0.0000      Z:    -0.1416

  Dipole Moment: (a.u.)
     X:     0.0000      Y:     0.0000      Z:    -0.1400     Total:     0.1400

  Dipole Moment: (Debye)
     X:     0.0000      Y:     0.0000      Z:    -0.3559     Total:     0.3559


*** tstop() called on n412-071.vsc4.prov at Tue Aug 11 08:37:17 2020
Module time:
	user time   =     896.36 seconds =      14.94 minutes
	system time =      68.27 seconds =       1.14 minutes
	total time  =        665 seconds =      11.08 minutes
Total time:
	user time   =     896.36 seconds =      14.94 minutes
	system time =      68.27 seconds =       1.14 minutes
	total time  =        665 seconds =      11.08 minutes

*** tstart() called on n412-071.vsc4.prov
*** at Tue Aug 11 08:37:17 2020


	Wfn Parameters:
	--------------------
	Wavefunction         = CCSD
	Number of irreps     = 4
	Number of MOs        = 378
	Number of active MOs = 376
	AO-Basis             = NONE
	Semicanonical        = false
	Reference            = RHF
	Print Level          = 1

	IRREP	# MOs	# FZDC	# DOCC	# SOCC	# VIRT	# FZVR
	-----	-----	------	------	------	------	------
	 A1	   132	    2	    3	    0	    127	    0
	 A2	   62	    0	    0	    0	    62	    0
	 B1	   92	    0	    1	    0	    91	    0
	 B2	   92	    0	    1	    0	    91	    0
	Transforming integrals...
	IWL integrals will be deleted.
	(OO|OO)...
	Presorting SO-basis two-electron integrals.
	Sorting File: SO Ints (nn|nn) nbuckets = 1
	Transforming the one-electron integrals and constructing Fock matrices
	Starting first half-transformation.
	Sorting half-transformed integrals.
	First half integral transformation complete.
	Starting second half-transformation.
	Two-electron integral transformation complete.
	(OO|OV)...
	Starting second half-transformation.
	Two-electron integral transformation complete.
	(OO|VV)...
	Starting second half-transformation.
	Two-electron integral transformation complete.
	(OV|OO)...
	Starting first half-transformation.
	Sorting half-transformed integrals.
	First half integral transformation complete.
	Starting second half-transformation.
	Two-electron integral transformation complete.
	(OV|OV)...
	Starting second half-transformation.
	Two-electron integral transformation complete.
	(OV|VV)...
	Starting second half-transformation.
	Two-electron integral transformation complete.
	(VV|OO)...
	Starting first half-transformation.
	Sorting half-transformed integrals.
	First half integral transformation complete.
	Starting second half-transformation.
	Two-electron integral transformation complete.
	(VV|OV)...
	Starting second half-transformation.
	Two-electron integral transformation complete.
	(VV|VV)...
	Starting second half-transformation.
	Two-electron integral transformation complete.
	Frozen core energy     =    -86.87024327370646

	Size of irrep 0 of <ab|cd> integrals:   1334.806 (MW) /  10678.450 (MB)
	Size of irrep 1 of <ab|cd> integrals:   1043.936 (MW) /   8351.489 (MB)
	Size of irrep 2 of <ab|cd> integrals:   1183.222 (MW) /   9465.779 (MB)
	Size of irrep 3 of <ab|cd> integrals:   1183.222 (MW) /   9465.779 (MB)
	Total:                                  4745.187 (MW) /  37961.497 (MB)

	Size of irrep 0 of <ia|bc> integrals:     20.569 (MW) /    164.554 (MB)
	Size of irrep 1 of <ia|bc> integrals:     11.890 (MW) /     95.121 (MB)
	Size of irrep 2 of <ia|bc> integrals:     15.892 (MW) /    127.135 (MB)
	Size of irrep 3 of <ia|bc> integrals:     15.892 (MW) /    127.135 (MB)
	Total:                                    64.243 (MW) /    513.944 (MB)

	Size of irrep 0 of tijab amplitudes:       0.402 (MW) /      3.215 (MB)
	Size of irrep 1 of tijab amplitudes:       0.065 (MW) /      0.517 (MB)
	Size of irrep 2 of tijab amplitudes:       0.206 (MW) /      1.651 (MB)
	Size of irrep 3 of tijab amplitudes:       0.206 (MW) /      1.651 (MB)
	Total:                                     0.879 (MW) /      7.034 (MB)

	Nuclear Rep. energy          =     18.66305875922606
	SCF energy                   =    -92.34642277021661
	One-electron energy          =    -44.60672997242719
	Two-electron energy          =     20.46749171669027
	Reference energy             =    -92.34642277021732

*** tstop() called on n412-071.vsc4.prov at Tue Aug 11 08:50:10 2020
Module time:
	user time   =    1979.91 seconds =      33.00 minutes
	system time =     167.92 seconds =       2.80 minutes
	total time  =        773 seconds =      12.88 minutes
Total time:
	user time   =    2876.29 seconds =      47.94 minutes
	system time =     236.19 seconds =       3.94 minutes
	total time  =       1438 seconds =      23.97 minutes

*** tstart() called on n412-071.vsc4.prov
*** at Tue Aug 11 08:50:10 2020

            **************************
            *                        *
            *        CCENERGY        *
            *                        *
            **************************

    Nuclear Rep. energy (wfn)     =   18.663058759226058
    SCF energy          (wfn)     =  -92.346422770216606
    Reference energy    (file100) =  -92.346422770217316

    Input parameters:
    -----------------
    Wave function   =     CCSD
    Reference wfn   =     RHF
    Brueckner       =     No
    Memory (Mbytes) =     250000.0
    Maxiter         =     50
    R_Convergence   =     1.0e-07
    E_Convergence   =     1.0e-06
    Restart         =     Yes
    DIIS            =     Yes
    AO Basis        =     NONE
    ABCD            =     NEW
    Cache Level     =     2
    Cache Type      =     LOW
    Print Level     =     1
    Num. of threads =     48
    # Amps to Print =     10
    Print MP2 Amps? =     No
    Analyze T2 Amps =     No
    Print Pair Ener =     No
    Local CC        =     No
    SCS-MP2         =     False
    SCSN-MP2        =     False
    SCS-CCSD        =     False

MP2 correlation energy -0.3845458538693548
                Solving CC Amplitude Equations
                ------------------------------
  Iter             Energy              RMS        T1Diag      D1Diag    New D1Diag    D2Diag
  ----     ---------------------    ---------   ----------  ----------  ----------   --------
     0        -0.384545853869318    0.000e+00    0.000000    0.000000    0.000000    0.168486
     1        -0.373819213549661    3.193e-01    0.029026    0.057084    0.057084    0.176859
     2        -0.385030937735536    5.703e-02    0.017672    0.032156    0.032156    0.180131
     3        -0.376244201990447    1.562e-02    0.018527    0.034180    0.034180    0.173934
     4        -0.375887585277250    3.755e-03    0.017972    0.032895    0.032895    0.173469
     5        -0.375915971726475    1.086e-03    0.017887    0.032650    0.032650    0.173280
     6        -0.375831431204897    4.015e-04    0.017859    0.032579    0.032579    0.173136
     7        -0.375823319872707    1.379e-04    0.017852    0.032554    0.032554    0.173094
     8        -0.375829353160189    5.241e-05    0.017853    0.032553    0.032553    0.173089
     9        -0.375828470068289    1.835e-05    0.017854    0.032551    0.032551    0.173084
    10        -0.375827962948436    6.609e-06    0.017854    0.032550    0.032550    0.173083
    11        -0.375828034281073    2.111e-06    0.017854    0.032550    0.032550    0.173083
    12        -0.375828111278742    9.821e-07    0.017854    0.032550    0.032550    0.173083
    13        -0.375828125298317    3.844e-07    0.017854    0.032550    0.032550    0.173083
    14        -0.375828141151193    1.392e-07    0.017854    0.032551    0.032551    0.173083
    15        -0.375828142608473    5.040e-08    0.017854    0.032551    0.032551    0.173083
    15        -0.375828142608473    5.040e-08    0.017854    0.032551    0.032551    0.173083

    Iterations converged.


    CCSD corr. energy   =   -0.375828142608473
    PPL corr. energy    =    0.107462225834916
    OS PPL corr. energy =    0.090087692920385
    SS PPL corr. energy =    0.017374532914530
    Largest TIA Amplitudes:
              2   3        -0.0160558048
              2   1         0.0141304547
              4 286         0.0133160570
              3 195         0.0133160064
              3 192         0.0114255588
              4 283         0.0114255496
              3 193         0.0112981131
              4 284         0.0112980974
              3 194         0.0111597517
              4 285         0.0111597262

    Largest TIjAb Amplitudes:
      4   4 285 285        -0.0662680052
      3   3 194 194        -0.0662680000
      4   4 284 285        -0.0420636954
      4   4 285 284        -0.0420636954
      3   3 193 194        -0.0420636936
      3   3 194 193        -0.0420636936
      3   4 194 285        -0.0411402826
      4   3 285 194        -0.0411402826
      3   3 191 194         0.0324289585
      3   3 194 191         0.0324289585

    SCF energy       (wfn)                    =  -92.346422770216606
    Reference energy (file100)                =  -92.346422770217316

    Opposite-spin MP2 correlation energy      =   -0.291239155289623
    Same-spin MP2 correlation energy          =   -0.093306698579695
    MP2 correlation energy                    =   -0.384545853869355
      * MP2 total energy                      =  -92.730968624086671

    Opposite-spin CCSD correlation energy     =   -0.297796997573784
    Same-spin CCSD correlation energy         =   -0.078031139894079
    CCSD correlation energy                   =   -0.375828142608473
      * CCSD total energy                     =  -92.722250912825785


*** tstop() called on n412-071.vsc4.prov at Tue Aug 11 08:56:54 2020
Module time:
	user time   =    3031.77 seconds =      50.53 minutes
	system time =     268.66 seconds =       4.48 minutes
	total time  =        404 seconds =       6.73 minutes
Total time:
	user time   =    5908.06 seconds =      98.47 minutes
	system time =     504.85 seconds =       8.41 minutes
	total time  =       1842 seconds =      30.70 minutes

*** Psi4 exiting successfully. Buy a developer a beer!
