
    -----------------------------------------------------------------------
          Psi4: An Open-Source Ab Initio Electronic Structure Package
                               Psi4 1.2a1.dev939 

                         Git: Rev {HEAD} fa1ec19 


    R. M. Parrish, L. A. Burns, D. G. A. Smith, A. C. Simmonett,
    A. E. DePrince III, E. G. Hohenstein, U. Bozkaya, A. Yu. Sokolov,
    R. Di Remigio, R. M. Richard, J. F. Gonthier, A. M. James,
    H. R. McAlexander, A. Kumar, M. Saitow, X. Wang, B. P. Pritchard,
    P. Verma, H. F. Schaefer III, K. Patkowski, R. A. King, E. F. Valeev,
    F. A. Evangelista, J. M. Turney, T. D. Crawford, and C. D. Sherrill,
    J. Chem. Theory Comput. 13(7) pp 3185--3197 (2017).
    (doi: 10.1021/acs.jctc.7b00174)

    -----------------------------------------------------------------------


    Psi4 started on: Wednesday, 01 May 2019 06:38AM

    Process ID:   2475
    PSIDATADIR: /home/grueneis/src/psi4/objdir/stage/usr/local/psi4/share/psi4
    Memory:     500.0 MiB
    Threads:    1
    
  ==> Input File <==

--------------------------------------------------------------------------
# Any line starting with the # character is a comment line

memory 32000 mb

molecule molecule {
-1 1
C          0.0000000000        0.0000000000        0.6411129114
N          0.0000000000        0.0000000000       -0.5497659819
}

set {
  reference rhf


  basis aug-cc-pv(5+d)z
  scf_type OUT_OF_CORE
  freeze_core true
}

energy('ccsd')
--------------------------------------------------------------------------

  Memory set to  29.802 GiB by Python driver.

*** tstart() called on cqc01
*** at Wed May  1 06:38:45 2019

   => Loading Basis Set <=

    Name: AUG-CC-PV(5+D)Z
    Role: ORBITAL
    Keyword: BASIS
    atoms 1 entry C          line   223 file /home/grueneis/src/psi4/objdir/stage/usr/local/psi4/share/psi4/basis/aug-cc-pv_5pd_z.gbs 
    atoms 2 entry N          line   300 file /home/grueneis/src/psi4/objdir/stage/usr/local/psi4/share/psi4/basis/aug-cc-pv_5pd_z.gbs 


         ---------------------------------------------------------
                                   SCF
            by Justin Turney, Rob Parrish, Andy Simmonett
                             and Daniel Smith
                              RHF Reference
                        1 Threads,  30517 MiB Core
         ---------------------------------------------------------

  ==> Geometry <==

    Molecular point group: c2v
    Full point group: C_inf_v

    Geometry (in Angstrom), charge = -1, multiplicity = 1:

       Center              X                  Y                   Z               Mass       
    ------------   -----------------  -----------------  -----------------  -----------------
           C          0.000000000000     0.000000000000     0.641307457362    12.000000000000
           N          0.000000000000     0.000000000000    -0.549571435938    14.003074004780

  Running in c2v symmetry.

  Rotational constants: A = ************  B =      1.83942  C =      1.83942 [cm^-1]
  Rotational constants: A = ************  B =  55144.48204  C =  55144.48204 [MHz]
  Nuclear repulsion =   18.663058759226058

  Charge       = -1
  Multiplicity = 1
  Electrons    = 14
  Nalpha       = 7
  Nbeta        = 7

  ==> Algorithm <==

  SCF Algorithm Type is OUT_OF_CORE.
  DIIS enabled.
  MOM disabled.
  Fractional occupation disabled.
  Guess Type is SAD.
  Energy threshold   = 1.00e-08
  Density threshold  = 1.00e-08
  Integral threshold = 0.00e+00

  ==> Primary Basis <==

  Basis Set: AUG-CC-PV(5+D)Z
    Blend: AUG-CC-PV(5+D)Z
    Number of shells: 54
    Number of basis function: 254
    Number of Cartesian functions: 364
    Spherical Harmonics?: true
    Max angular momentum: 5

  ==> Pre-Iterations <==

   -------------------------------------------------------
    Irrep   Nso     Nmo     Nalpha   Nbeta   Ndocc  Nsocc
   -------------------------------------------------------
     A1        92      92       0       0       0       0
     A2        38      38       0       0       0       0
     B1        62      62       0       0       0       0
     B2        62      62       0       0       0       0
   -------------------------------------------------------
    Total     254     254       7       7       7       0
   -------------------------------------------------------

  ==> Integral Setup <==

  ==> DiskJK: Disk-Based J/K Matrices <==

    J tasked:                  Yes
    K tasked:                  Yes
    wK tasked:                  No
    Memory (MB):             22888
    Schwarz Cutoff:          1E-12

  Minimum eigenvalue in the overlap matrix is 8.9480383285E-06.
  Using Symmetric Orthogonalization.

  SCF Guess: Superposition of Atomic Densities via on-the-fly atomic UHF.

  ==> Iterations <==

                        Total Energy        Delta E     RMS |[F,P]|

   @RHF iter   0:   -96.87331587071473   -9.68733e+01   1.66746e-02 
   @RHF iter   1:   -91.98683715852874    4.88648e+00   5.91569e-03 
   @RHF iter   2:   -92.22373598629288   -2.36899e-01   4.12811e-03 DIIS
   @RHF iter   3:   -92.33697542488171   -1.13239e-01   8.43327e-04 DIIS
   @RHF iter   4:   -92.34365640891023   -6.68098e-03   3.29814e-04 DIIS
   @RHF iter   5:   -92.34564341168903   -1.98700e-03   1.14379e-04 DIIS
   @RHF iter   6:   -92.34613742559002   -4.94014e-04   4.67228e-05 DIIS
   @RHF iter   7:   -92.34627515525440   -1.37730e-04   1.55344e-05 DIIS
   @RHF iter   8:   -92.34629054906664   -1.53938e-05   3.18583e-06 DIIS
   @RHF iter   9:   -92.34629098653558   -4.37469e-07   6.16290e-07 DIIS
   @RHF iter  10:   -92.34629099621696   -9.68139e-09   6.41096e-08 DIIS
   @RHF iter  11:   -92.34629099630021   -8.32472e-11   1.33524e-08 DIIS
   @RHF iter  12:   -92.34629099630318   -2.97007e-12   2.45916e-09 DIIS

  ==> Post-Iterations <==

    Orbital Energies (a.u.)
    -----------------------

    Doubly Occupied:                                                      

       1A1   -15.290314     2A1   -10.975575     3A1    -0.918458  
       4A1    -0.344651     5A1    -0.193947     1B1    -0.189410  
       1B2    -0.189410  

    Virtual:                                                              

       6A1     0.171902     2B1     0.187151     2B2     0.187151  
       7A1     0.192710     3B1     0.234186     3B2     0.234186  
       8A1     0.242693     9A1     0.345360    10A1     0.386507  
       1A2     0.386507     4B2     0.392295     4B1     0.392295  
      11A1     0.414590     5B1     0.431214     5B2     0.431214  
      12A1     0.475743     6B1     0.494116     6B2     0.494116  
      13A1     0.522572    14A1     0.530863     2A2     0.530863  
       7B1     0.627840     7B2     0.627840    15A1     0.677128  
       8B1     0.772888     8B2     0.772888    16A1     0.797092  
       9B1     0.799578     9B2     0.799578    17A1     0.843627  
      10B1     0.848080    10B2     0.848080     3A2     0.855484  
      18A1     0.855484    19A1     0.914299     4A2     0.914299  
      20A1     0.935207    11B1     1.065817    11B2     1.065817  
      21A1     1.086273    12B1     1.108718    12B2     1.108718  
       5A2     1.138767    22A1     1.138767    13B1     1.191026  
      13B2     1.191026    23A1     1.243849    24A1     1.328295  
      14B1     1.389225    14B2     1.389225    25A1     1.448173  
       6A2     1.448173    26A1     1.488697    15B1     1.577565  
      15B2     1.577565    27A1     1.629960    28A1     1.827010  
       7A2     1.827010    16B1     1.908690    16B2     1.908690  
      17B1     1.925523    17B2     1.925523    29A1     1.957370  
       8A2     1.958510    30A1     1.958510    18B1     1.962118  
      18B2     1.962118    31A1     1.984142     9A2     1.984142  
      19B2     2.002044    19B1     2.002044    32A1     2.153067  
      33A1     2.244689    20B1     2.259191    20B2     2.259191  
      34A1     2.315688    10A2     2.326419    35A1     2.326419  
      36A1     2.560462    11A2     2.560462    21B2     2.647587  
      21B1     2.647587    37A1     2.677223    22B1     2.697710  
      22B2     2.697710    12A2     2.727781    38A1     2.727781  
      23B1     2.794119    23B2     2.794119    39A1     2.878296  
      13A2     2.976308    40A1     2.976308    24B1     3.039897  
      24B2     3.039897    25B1     3.047625    25B2     3.047625  
      41A1     3.154609    26B2     3.477654    26B1     3.477654  
      14A2     3.646786    42A1     3.646786    43A1     3.674794  
      27B2     3.774388    27B1     3.774388    44A1     4.009474  
      28B2     4.010318    28B1     4.010318    15A2     4.011187  
      45A1     4.011187    46A1     4.317293    16A2     4.323158  
      47A1     4.323158    29B1     4.331547    29B2     4.331547  
      48A1     4.371418    17A2     4.371418    30B1     4.385955  
      30B2     4.385955    31B2     4.389080    31B1     4.389080  
      49A1     4.460905    32B2     4.463174    32B1     4.463174  
      18A2     4.575684    50A1     4.575684    33B1     4.764761  
      33B2     4.764761    51A1     4.788094    19A2     4.794315  
      52A1     4.794315    34B2     4.817313    34B1     4.817313  
      35B2     5.125082    35B1     5.125082    53A1     5.129846  
      54A1     5.447888    36B2     5.580540    36B1     5.580540  
      20A2     5.598234    55A1     5.598234    21A2     5.678841  
      56A1     5.678841    37B2     5.896804    37B1     5.896804  
      38B2     6.004427    38B1     6.004427    57A1     6.045121  
      22A2     6.045121    23A2     6.066832    58A1     6.066832  
      59A1     6.126256    39B2     6.226777    39B1     6.226777  
      40B1     6.346109    40B2     6.346109    60A1     6.467540  
      24A2     6.687162    61A1     6.687162    41B2     6.849080  
      41B1     6.849080    42B1     6.962863    42B2     6.962863  
      62A1     7.013116    25A2     7.117629    63A1     7.117629  
      64A1     7.548571    43B2     8.236391    43B1     8.236391  
      65A1     8.271627    26A2     8.449555    66A1     8.449555  
      44B2     8.673316    44B1     8.673316    67A1     8.960322  
      45B2     9.258104    45B1     9.258104    27A2     9.356057  
      68A1     9.356057    46B2     9.595995    46B1     9.595995  
      69A1     9.817897    47B2     9.822604    47B1     9.822604  
      28A2     9.936838    70A1     9.936838    48B2    10.026960  
      48B1    10.026960    49B1    10.545735    49B2    10.545735  
      29A2    10.701585    71A1    10.701585    50B1    10.756468  
      50B2    10.756468    30A2    10.844169    72A1    10.844169  
      73A1    11.060183    74A1    11.197645    51B2    11.254370  
      51B1    11.254370    75A1    11.771008    31A2    11.814884  
      76A1    11.814884    52B2    12.217112    52B1    12.217112  
      77A1    12.316899    32A2    12.734330    78A1    12.734330  
      53B2    12.743610    53B1    12.743610    33A2    13.003535  
      79A1    13.003535    54B2    13.305225    54B1    13.305225  
      55B2    13.595733    55B1    13.595733    56B2    13.943563  
      56B1    13.943563    34A2    14.018601    80A1    14.018601  
      81A1    14.116301    82A1    14.602125    57B2    14.618124  
      57B1    14.618124    83A1    15.006880    35A2    15.006880  
      58B1    15.021073    58B2    15.021073    59B2    15.286912  
      59B1    15.286912    84A1    15.296668    36A2    15.503047  
      85A1    15.503047    37A2    16.122161    86A1    16.122161  
      60B2    16.139638    60B1    16.139638    87A1    16.332891  
      61B2    18.429650    61B1    18.429650    38A2    18.654764  
      88A1    18.654764    89A1    19.520225    62B2    19.525655  
      62B1    19.525655    90A1    20.654356    91A1    39.263610  
      92A1    52.035257  

    Final Occupation by Irrep:
             A1    A2    B1    B2 
    DOCC [     5,    0,    1,    1 ]

  Energy converged.

  @RHF Final Energy:   -92.34629099630318

   => Energetics <=

    Nuclear Repulsion Energy =             18.6630587592260575
    One-Electron Energy =                -165.8151686629529991
    Two-Electron Energy =                  54.8058189074237632
    Total Energy =                        -92.3462909963031677



Properties will be evaluated at   0.000000,   0.000000,   0.000000 Bohr

Properties computed using the SCF density matrix

  Nuclear Dipole Moment: (a.u.)
     X:     0.0000      Y:     0.0000      Z:     0.0016

  Electronic Dipole Moment: (a.u.)
     X:     0.0000      Y:     0.0000      Z:    -0.1415

  Dipole Moment: (a.u.)
     X:     0.0000      Y:     0.0000      Z:    -0.1399     Total:     0.1399

  Dipole Moment: (Debye)
     X:     0.0000      Y:     0.0000      Z:    -0.3556     Total:     0.3556


*** tstop() called on cqc01 at Wed May  1 06:41:57 2019
Module time:
	user time   =      64.53 seconds =       1.08 minutes
	system time =       9.29 seconds =       0.15 minutes
	total time  =        192 seconds =       3.20 minutes
Total time:
	user time   =      64.53 seconds =       1.08 minutes
	system time =       9.29 seconds =       0.15 minutes
	total time  =        192 seconds =       3.20 minutes

*** tstart() called on cqc01
*** at Wed May  1 06:41:57 2019


	Wfn Parameters:
	--------------------
	Wavefunction         = CCSD
	Number of irreps     = 4
	Number of MOs        = 254
	Number of active MOs = 252
	AO-Basis             = NONE
	Semicanonical        = false
	Reference            = RHF
	Print Level          = 1

	IRREP	# MOs	# FZDC	# DOCC	# SOCC	# VIRT	# FZVR
	-----	-----	------	------	------	------	------
	 A1	   92	    2	    3	    0	    87	    0
	 A2	   38	    0	    0	    0	    38	    0
	 B1	   62	    0	    1	    0	    61	    0
	 B2	   62	    0	    1	    0	    61	    0
	Transforming integrals...
	IWL integrals will be deleted.
	(OO|OO)...
	Presorting SO-basis two-electron integrals.
	Sorting File: SO Ints (nn|nn) nbuckets = 1
	Transforming the one-electron integrals and constructing Fock matrices
	Starting first half-transformation.
	Sorting half-transformed integrals.
	First half integral transformation complete.
	Starting second half-transformation.
	Two-electron integral transformation complete.
	(OO|OV)...
	Starting second half-transformation.
	Two-electron integral transformation complete.
	(OO|VV)...
	Starting second half-transformation.
	Two-electron integral transformation complete.
	(OV|OO)...
	Starting first half-transformation.
	Sorting half-transformed integrals.
	First half integral transformation complete.
	Starting second half-transformation.
	Two-electron integral transformation complete.
	(OV|OV)...
	Starting second half-transformation.
	Two-electron integral transformation complete.
	(OV|VV)...
	Starting second half-transformation.
	Two-electron integral transformation complete.
	(VV|OO)...
	Starting first half-transformation.
	Sorting half-transformed integrals.
	First half integral transformation complete.
	Starting second half-transformation.
	Two-electron integral transformation complete.
	(VV|OV)...
	Starting second half-transformation.
	Two-electron integral transformation complete.
	(VV|VV)...
	Starting second half-transformation.
	Two-electron integral transformation complete.
	Frozen core energy     =    -86.87020725788990

	Size of irrep 0 of <ab|cd> integrals:    270.767 (MW) /   2166.136 (MB)
	Size of irrep 1 of <ab|cd> integrals:    197.515 (MW) /   1580.119 (MB)
	Size of irrep 2 of <ab|cd> integrals:    232.562 (MW) /   1860.500 (MB)
	Size of irrep 3 of <ab|cd> integrals:    232.562 (MW) /   1860.500 (MB)
	Total:                                   933.407 (MW) /   7467.256 (MB)

	Size of irrep 0 of <ia|bc> integrals:      6.302 (MW) /     50.418 (MB)
	Size of irrep 1 of <ia|bc> integrals:      3.317 (MW) /     26.534 (MB)
	Size of irrep 2 of <ia|bc> integrals:      4.697 (MW) /     37.576 (MB)
	Size of irrep 3 of <ia|bc> integrals:      4.697 (MW) /     37.576 (MB)
	Total:                                    19.013 (MW) /    152.104 (MB)

	Size of irrep 0 of tijab amplitudes:       0.181 (MW) /      1.448 (MB)
	Size of irrep 1 of tijab amplitudes:       0.028 (MW) /      0.225 (MB)
	Size of irrep 2 of tijab amplitudes:       0.091 (MW) /      0.732 (MB)
	Size of irrep 3 of tijab amplitudes:       0.091 (MW) /      0.732 (MB)
	Total:                                     0.392 (MW) /      3.137 (MB)

	Nuclear Rep. energy          =     18.66305875922606
	SCF energy                   =    -92.34629099630318
	One-electron energy          =    -44.60653194762477
	Two-electron energy          =     20.46738944998556
	Reference energy             =    -92.34629099630305

*** tstop() called on cqc01 at Wed May  1 06:53:40 2019
Module time:
	user time   =      83.94 seconds =       1.40 minutes
	system time =      68.01 seconds =       1.13 minutes
	total time  =        703 seconds =      11.72 minutes
Total time:
	user time   =     148.47 seconds =       2.47 minutes
	system time =      77.30 seconds =       1.29 minutes
	total time  =        895 seconds =      14.92 minutes

*** tstart() called on cqc01
*** at Wed May  1 06:53:40 2019

            **************************
            *                        *
            *        CCENERGY        *
            *                        *
            **************************

    Nuclear Rep. energy (wfn)     =   18.663058759226058
    SCF energy          (wfn)     =  -92.346290996303182
    Reference energy    (file100) =  -92.346290996303054

    Input parameters:
    -----------------
    Wave function   =     CCSD
    Reference wfn   =     RHF
    Brueckner       =     No
    Memory (Mbytes) =     32000.0
    Maxiter         =     50
    R_Convergence   =     1.0e-07
    E_Convergence   =     1.0e-06
    Restart         =     Yes
    DIIS            =     Yes
    AO Basis        =     NONE
    ABCD            =     NEW
    Cache Level     =     2
    Cache Type      =     LOW
    Print Level     =     1
    Num. of threads =     1
    # Amps to Print =     10
    Print MP2 Amps? =     No
    Analyze T2 Amps =     No
    Print Pair Ener =     No
    Local CC        =     No
    SCS-MP2         =     False
    SCSN-MP2        =     False
    SCS-CCSD        =     False

MP2 correlation energy -0.3809252193706132
                Solving CC Amplitude Equations
                ------------------------------
  Iter             Energy              RMS        T1Diag      D1Diag    New D1Diag    D2Diag
  ----     ---------------------    ---------   ----------  ----------  ----------   --------
     0        -0.380925219370579    0.000e+00    0.000000    0.000000    0.000000    0.168368
     1        -0.373646612685965    3.173e-01    0.028940    0.056779    0.056779    0.177571
     2        -0.382705151458915    5.638e-02    0.017669    0.032049    0.032049    0.180236
     3        -0.374031990590169    1.537e-02    0.018516    0.034054    0.034054    0.174148
     4        -0.373753473276308    3.699e-03    0.017972    0.032786    0.032786    0.173719
     5        -0.373766434840454    1.058e-03    0.017887    0.032545    0.032545    0.173524
     6        -0.373677918944510    3.842e-04    0.017858    0.032475    0.032475    0.173380
     7        -0.373674331910463    1.236e-04    0.017852    0.032452    0.032452    0.173343
     8        -0.373679974074427    4.536e-05    0.017853    0.032451    0.032451    0.173338
     9        -0.373678484708649    1.615e-05    0.017853    0.032449    0.032449    0.173333
    10        -0.373678078855045    4.989e-06    0.017853    0.032449    0.032449    0.173332
    11        -0.373678182155280    1.550e-06    0.017853    0.032449    0.032449    0.173332
    12        -0.373678214987936    7.383e-07    0.017853    0.032449    0.032449    0.173332
    13        -0.373678228203143    2.652e-07    0.017853    0.032449    0.032449    0.173332
    14        -0.373678240960425    1.045e-07    0.017853    0.032449    0.032449    0.173332
    15        -0.373678239863668    3.313e-08    0.017853    0.032449    0.032449    0.173332
    15        -0.373678239863668    3.313e-08    0.017853    0.032449    0.032449    0.173332

    Iterations converged.


    CCSD corr. energy   =   -0.373678239863668
    PPL corr. energy    =    0.105915556219034
    OS PPL corr. energy =    0.088611067859559
    SS PPL corr. energy =    0.017304488359474
    Largest TIA Amplitudes:
              2   3         0.0164782058
              2   1        -0.0146670236
              3 132         0.0129404592
              4 193         0.0129404124
              2   0        -0.0119760920
              3 129         0.0119177417
              4 190         0.0119177321
              4 191         0.0111879838
              3 130         0.0111879787
              3 137         0.0111685905

    Largest TIjAb Amplitudes:
      3   3 130 130        -0.0499998224
      4   4 191 191        -0.0499998169
      4   4 188 188        -0.0468810023
      3   3 127 127        -0.0468809950
      3   3 127 130        -0.0448263833
      3   3 130 127        -0.0448263833
      4   4 188 191        -0.0448263821
      4   4 191 188        -0.0448263821
      3   3 129 130        -0.0370046454
      3   3 130 129        -0.0370046454

    SCF energy       (wfn)                    =  -92.346290996303182
    Reference energy (file100)                =  -92.346290996303054

    Opposite-spin MP2 correlation energy      =   -0.287833896782225
    Same-spin MP2 correlation energy          =   -0.093091322588354
    MP2 correlation energy                    =   -0.380925219370613
      * MP2 total energy                      =  -92.727216215673664

    Opposite-spin CCSD correlation energy     =   -0.295810587839297
    Same-spin CCSD correlation energy         =   -0.077867647010000
    CCSD correlation energy                   =   -0.373678239863668
      * CCSD total energy                     =  -92.719969236166719


*** tstop() called on cqc01 at Wed May  1 07:01:41 2019
Module time:
	user time   =      23.78 seconds =       0.40 minutes
	system time =      41.60 seconds =       0.69 minutes
	total time  =        481 seconds =       8.02 minutes
Total time:
	user time   =     172.25 seconds =       2.87 minutes
	system time =     118.90 seconds =       1.98 minutes
	total time  =       1376 seconds =      22.93 minutes

*** Psi4 exiting successfully. Buy a developer a beer!
