
    -----------------------------------------------------------------------
          Psi4: An Open-Source Ab Initio Electronic Structure Package
                               Psi4 1.2a1.dev939 

                         Git: Rev {HEAD} fa1ec19 


    R. M. Parrish, L. A. Burns, D. G. A. Smith, A. C. Simmonett,
    A. E. DePrince III, E. G. Hohenstein, U. Bozkaya, A. Yu. Sokolov,
    R. Di Remigio, R. M. Richard, J. F. Gonthier, A. M. James,
    H. R. McAlexander, A. Kumar, M. Saitow, X. Wang, B. P. Pritchard,
    P. Verma, H. F. Schaefer III, K. Patkowski, R. A. King, E. F. Valeev,
    F. A. Evangelista, J. M. Turney, T. D. Crawford, and C. D. Sherrill,
    J. Chem. Theory Comput. 13(7) pp 3185--3197 (2017).
    (doi: 10.1021/acs.jctc.7b00174)

    -----------------------------------------------------------------------


    Psi4 started on: Friday, 26 April 2019 06:25PM

    Process ID:  27636
    PSIDATADIR: /home/grueneis/src/psi4/objdir/stage/usr/local/psi4/share/psi4
    Memory:     500.0 MiB
    Threads:    1
    
  ==> Input File <==

--------------------------------------------------------------------------
# Any line starting with the # character is a comment line

memory 32000 mb

molecule molecule {
-1 1
C          0.0000000000        0.0000000000        0.6411129114
N          0.0000000000        0.0000000000       -0.5497659819
}

set {
  reference rhf
  basis aug-cc-pv(T+d)z
  scf_type OUT_OF_CORE
  freeze_core true
}

energy('ccsd')
--------------------------------------------------------------------------

  Memory set to  29.802 GiB by Python driver.

*** tstart() called on cqc01
*** at Fri Apr 26 18:25:09 2019

   => Loading Basis Set <=

    Name: AUG-CC-PV(T+D)Z
    Role: ORBITAL
    Keyword: BASIS
    atoms 1 entry C          line   255 file /home/grueneis/src/psi4/objdir/stage/usr/local/psi4/share/psi4/basis/aug-cc-pv_tpd_z.gbs 
    atoms 2 entry N          line   301 file /home/grueneis/src/psi4/objdir/stage/usr/local/psi4/share/psi4/basis/aug-cc-pv_tpd_z.gbs 


         ---------------------------------------------------------
                                   SCF
            by Justin Turney, Rob Parrish, Andy Simmonett
                             and Daniel Smith
                              RHF Reference
                        1 Threads,  30517 MiB Core
         ---------------------------------------------------------

  ==> Geometry <==

    Molecular point group: c2v
    Full point group: C_inf_v

    Geometry (in Angstrom), charge = -1, multiplicity = 1:

       Center              X                  Y                   Z               Mass       
    ------------   -----------------  -----------------  -----------------  -----------------
           C          0.000000000000     0.000000000000     0.641307457362    12.000000000000
           N          0.000000000000     0.000000000000    -0.549571435938    14.003074004780

  Running in c2v symmetry.

  Rotational constants: A = ************  B =      1.83942  C =      1.83942 [cm^-1]
  Rotational constants: A = ************  B =  55144.48204  C =  55144.48204 [MHz]
  Nuclear repulsion =   18.663058759226058

  Charge       = -1
  Multiplicity = 1
  Electrons    = 14
  Nalpha       = 7
  Nbeta        = 7

  ==> Algorithm <==

  SCF Algorithm Type is OUT_OF_CORE.
  DIIS enabled.
  MOM disabled.
  Fractional occupation disabled.
  Guess Type is SAD.
  Energy threshold   = 1.00e-08
  Density threshold  = 1.00e-08
  Integral threshold = 0.00e+00

  ==> Primary Basis <==

  Basis Set: AUG-CC-PV(T+D)Z
    Blend: AUG-CC-PV(T+D)Z
    Number of shells: 28
    Number of basis function: 92
    Number of Cartesian functions: 110
    Spherical Harmonics?: true
    Max angular momentum: 3

  ==> Pre-Iterations <==

   -------------------------------------------------------
    Irrep   Nso     Nmo     Nalpha   Nbeta   Ndocc  Nsocc
   -------------------------------------------------------
     A1        38      38       0       0       0       0
     A2        10      10       0       0       0       0
     B1        22      22       0       0       0       0
     B2        22      22       0       0       0       0
   -------------------------------------------------------
    Total      92      92       7       7       7       0
   -------------------------------------------------------

  ==> Integral Setup <==

  ==> DiskJK: Disk-Based J/K Matrices <==

    J tasked:                  Yes
    K tasked:                  Yes
    wK tasked:                  No
    Memory (MB):             22888
    Schwarz Cutoff:          1E-12

  Minimum eigenvalue in the overlap matrix is 2.6086524476E-04.
  Using Symmetric Orthogonalization.

  SCF Guess: Superposition of Atomic Densities via on-the-fly atomic UHF.

  ==> Iterations <==

                        Total Energy        Delta E     RMS |[F,P]|

   @RHF iter   0:   -96.82628214835094   -9.68263e+01   4.27831e-02 
   @RHF iter   1:   -92.04635910521228    4.77992e+00   1.43934e-02 
   @RHF iter   2:   -92.24751860437354   -2.01159e-01   9.48313e-03 DIIS
   @RHF iter   3:   -92.33281111480160   -8.52925e-02   1.97534e-03 DIIS
   @RHF iter   4:   -92.33794843575370   -5.13732e-03   7.38821e-04 DIIS
   @RHF iter   5:   -92.33951135946653   -1.56292e-03   2.65373e-04 DIIS
   @RHF iter   6:   -92.33993160236392   -4.20243e-04   1.08925e-04 DIIS
   @RHF iter   7:   -92.34004235459452   -1.10752e-04   3.06513e-05 DIIS
   @RHF iter   8:   -92.34005062522041   -8.27063e-06   6.42154e-06 DIIS
   @RHF iter   9:   -92.34005085630265   -2.31082e-07   1.22399e-06 DIIS
   @RHF iter  10:   -92.34005086036164   -4.05899e-09   1.11353e-07 DIIS
   @RHF iter  11:   -92.34005086039298   -3.13349e-11   2.47473e-08 DIIS
   @RHF iter  12:   -92.34005086039457   -1.59162e-12   4.57224e-09 DIIS

  ==> Post-Iterations <==

    Orbital Energies (a.u.)
    -----------------------

    Doubly Occupied:                                                      

       1A1   -15.292556     2A1   -10.976855     3A1    -0.919271  
       4A1    -0.344839     5A1    -0.193871     1B1    -0.189417  
       1B2    -0.189417  

    Virtual:                                                              

       6A1     0.209309     2B1     0.233459     2B2     0.233459  
       7A1     0.245340     3B1     0.312614     3B2     0.312614  
       8A1     0.318312     9A1     0.443016     4B2     0.454806  
       4B1     0.454806    10A1     0.513173     1A2     0.513173  
      11A1     0.577295     5B1     0.621299     5B2     0.621299  
       6B1     0.716036     6B2     0.716036    12A1     0.725072  
      13A1     0.762973     2A2     0.773517    14A1     0.773517  
       7B1     0.918995     7B2     0.918995    15A1     0.988593  
      16A1     1.238217     8B1     1.273717     8B2     1.273717  
      17A1     1.319767     3A2     1.319767     9B1     1.348683  
       9B2     1.348683    18A1     1.376509    10B1     1.425639  
      10B2     1.425639     4A2     1.493251    19A1     1.493251  
      20A1     1.521570    21A1     1.641183    11B1     1.715007  
      11B2     1.715007    12B2     1.900089    12B1     1.900089  
       5A2     1.929862    22A1     1.929862    23A1     2.135222  
      13B1     2.147791    13B2     2.147791     6A2     2.369072  
      24A1     2.369072    14B1     2.396454    14B2     2.396454  
      25A1     2.544296    26A1     2.825331    15B1     3.107605  
      15B2     3.107605    27A1     3.637057    28A1     3.713092  
       7A2     3.713092    16B1     3.755837    16B2     3.755837  
      17B2     3.829825    17B1     3.829825    29A1     3.908849  
       8A2     3.908849    18B2     3.944981    18B1     3.944981  
      30A1     3.953712    31A1     4.021174    19B2     4.739209  
      19B1     4.739209    32A1     4.835176    20B2     5.247595  
      20B1     5.247595     9A2     5.460860    33A1     5.460860  
      10A2     5.636344    34A1     5.636344    21B2     5.843786  
      21B1     5.843786    22B2     6.253938    22B1     6.253938  
      35A1     6.264142    36A1     6.341286    37A1    11.295088  
      38A1    15.311815  

    Final Occupation by Irrep:
             A1    A2    B1    B2 
    DOCC [     5,    0,    1,    1 ]

  Energy converged.

  @RHF Final Energy:   -92.34005086039457

   => Energetics <=

    Nuclear Repulsion Energy =             18.6630587592260575
    One-Electron Energy =                -165.7937638924142334
    Two-Electron Energy =                  54.7906542727936099
    Total Energy =                        -92.3400508603945696



Properties will be evaluated at   0.000000,   0.000000,   0.000000 Bohr

Properties computed using the SCF density matrix

  Nuclear Dipole Moment: (a.u.)
     X:     0.0000      Y:     0.0000      Z:     0.0016

  Electronic Dipole Moment: (a.u.)
     X:     0.0000      Y:     0.0000      Z:    -0.1398

  Dipole Moment: (a.u.)
     X:     0.0000      Y:     0.0000      Z:    -0.1382     Total:     0.1382

  Dipole Moment: (Debye)
     X:     0.0000      Y:     0.0000      Z:    -0.3512     Total:     0.3512


*** tstop() called on cqc01 at Fri Apr 26 18:25:11 2019
Module time:
	user time   =       1.69 seconds =       0.03 minutes
	system time =       1.55 seconds =       0.03 minutes
	total time  =          2 seconds =       0.03 minutes
Total time:
	user time   =       1.69 seconds =       0.03 minutes
	system time =       1.55 seconds =       0.03 minutes
	total time  =          2 seconds =       0.03 minutes

*** tstart() called on cqc01
*** at Fri Apr 26 18:25:11 2019


	Wfn Parameters:
	--------------------
	Wavefunction         = CCSD
	Number of irreps     = 4
	Number of MOs        = 92
	Number of active MOs = 90
	AO-Basis             = NONE
	Semicanonical        = false
	Reference            = RHF
	Print Level          = 1

	IRREP	# MOs	# FZDC	# DOCC	# SOCC	# VIRT	# FZVR
	-----	-----	------	------	------	------	------
	 A1	   38	    2	    3	    0	    33	    0
	 A2	   10	    0	    0	    0	    10	    0
	 B1	   22	    0	    1	    0	    21	    0
	 B2	   22	    0	    1	    0	    21	    0
	Transforming integrals...
	IWL integrals will be deleted.
	(OO|OO)...
	Presorting SO-basis two-electron integrals.
	Sorting File: SO Ints (nn|nn) nbuckets = 1
	Transforming the one-electron integrals and constructing Fock matrices
	Starting first half-transformation.
	Sorting half-transformed integrals.
	First half integral transformation complete.
	Starting second half-transformation.
	Two-electron integral transformation complete.
	(OO|OV)...
	Starting second half-transformation.
	Two-electron integral transformation complete.
	(OO|VV)...
	Starting second half-transformation.
	Two-electron integral transformation complete.
	(OV|OO)...
	Starting first half-transformation.
	Sorting half-transformed integrals.
	First half integral transformation complete.
	Starting second half-transformation.
	Two-electron integral transformation complete.
	(OV|OV)...
	Starting second half-transformation.
	Two-electron integral transformation complete.
	(OV|VV)...
	Starting second half-transformation.
	Two-electron integral transformation complete.
	(VV|OO)...
	Starting first half-transformation.
	Sorting half-transformed integrals.
	First half integral transformation complete.
	Starting second half-transformation.
	Two-electron integral transformation complete.
	(VV|OV)...
	Starting second half-transformation.
	Two-electron integral transformation complete.
	(VV|VV)...
	Starting second half-transformation.
	Two-electron integral transformation complete.
	Frozen core energy     =    -86.86839302789431

	Size of irrep 0 of <ab|cd> integrals:      4.289 (MW) /     34.312 (MB)
	Size of irrep 1 of <ab|cd> integrals:      2.378 (MW) /     19.022 (MB)
	Size of irrep 2 of <ab|cd> integrals:      3.262 (MW) /     26.093 (MB)
	Size of irrep 3 of <ab|cd> integrals:      3.262 (MW) /     26.093 (MB)
	Total:                                    13.190 (MW) /    105.521 (MB)

	Size of irrep 0 of <ia|bc> integrals:      0.292 (MW) /      2.336 (MB)
	Size of irrep 1 of <ia|bc> integrals:      0.111 (MW) /      0.888 (MB)
	Size of irrep 2 of <ia|bc> integrals:      0.191 (MW) /      1.531 (MB)
	Size of irrep 3 of <ia|bc> integrals:      0.191 (MW) /      1.531 (MB)
	Total:                                     0.786 (MW) /      6.287 (MB)

	Size of irrep 0 of tijab amplitudes:       0.023 (MW) /      0.182 (MB)
	Size of irrep 1 of tijab amplitudes:       0.003 (MW) /      0.025 (MB)
	Size of irrep 2 of tijab amplitudes:       0.011 (MW) /      0.087 (MB)
	Size of irrep 3 of tijab amplitudes:       0.011 (MW) /      0.087 (MB)
	Total:                                     0.048 (MW) /      0.380 (MB)

	Nuclear Rep. energy          =     18.66305875922606
	SCF energy                   =    -92.34005086039457
	One-electron energy          =    -44.59580103046647
	Two-electron energy          =     20.46108443874017
	Reference energy             =    -92.34005086039456

*** tstop() called on cqc01 at Fri Apr 26 18:25:18 2019
Module time:
	user time   =       0.85 seconds =       0.01 minutes
	system time =       0.46 seconds =       0.01 minutes
	total time  =          7 seconds =       0.12 minutes
Total time:
	user time   =       2.54 seconds =       0.04 minutes
	system time =       2.01 seconds =       0.03 minutes
	total time  =          9 seconds =       0.15 minutes

*** tstart() called on cqc01
*** at Fri Apr 26 18:25:18 2019

            **************************
            *                        *
            *        CCENERGY        *
            *                        *
            **************************

    Nuclear Rep. energy (wfn)     =   18.663058759226058
    SCF energy          (wfn)     =  -92.340050860394570
    Reference energy    (file100) =  -92.340050860394555

    Input parameters:
    -----------------
    Wave function   =     CCSD
    Reference wfn   =     RHF
    Brueckner       =     No
    Memory (Mbytes) =     32000.0
    Maxiter         =     50
    R_Convergence   =     1.0e-07
    E_Convergence   =     1.0e-06
    Restart         =     Yes
    DIIS            =     Yes
    AO Basis        =     NONE
    ABCD            =     NEW
    Cache Level     =     2
    Cache Type      =     LOW
    Print Level     =     1
    Num. of threads =     1
    # Amps to Print =     10
    Print MP2 Amps? =     No
    Analyze T2 Amps =     No
    Print Pair Ener =     No
    Local CC        =     No
    SCS-MP2         =     False
    SCSN-MP2        =     False
    SCS-CCSD        =     False

MP2 correlation energy -0.3530325285624727
                Solving CC Amplitude Equations
                ------------------------------
  Iter             Energy              RMS        T1Diag      D1Diag    New D1Diag    D2Diag
  ----     ---------------------    ---------   ----------  ----------  ----------   --------
     0        -0.353032528562453    0.000e+00    0.000000    0.000000    0.000000    0.166917
     1        -0.360279146079913    3.043e-01    0.028266    0.054059    0.054059    0.181171
     2        -0.360683296697266    5.239e-02    0.017891    0.031340    0.031340    0.180797
     3        -0.352681000708226    1.395e-02    0.018621    0.032951    0.032951    0.175233
     4        -0.352609741060235    3.520e-03    0.018133    0.031960    0.031960    0.174961
     5        -0.352587297839007    9.606e-04    0.018063    0.032116    0.032116    0.174770
     6        -0.352494985162359    3.319e-04    0.018044    0.032144    0.032144    0.174638
     7        -0.352504138154649    9.771e-05    0.018042    0.032175    0.032175    0.174618
     8        -0.352508413508263    3.372e-05    0.018045    0.032184    0.032184    0.174615
     9        -0.352506243077183    1.303e-05    0.018046    0.032192    0.032192    0.174611
    10        -0.352506264866569    3.739e-06    0.018046    0.032195    0.032195    0.174610
    11        -0.352506401385916    1.298e-06    0.018046    0.032196    0.032196    0.174610
    12        -0.352506415544656    5.909e-07    0.018047    0.032196    0.032196    0.174610
    13        -0.352506449653609    1.883e-07    0.018047    0.032197    0.032197    0.174610
    14        -0.352506449175506    7.035e-08    0.018047    0.032197    0.032197    0.174610
    14        -0.352506449175506    7.035e-08    0.018047    0.032197    0.032197    0.174610

    Iterations converged.


    CCSD corr. energy   =   -0.352506449175506
    PPL corr. energy    =    0.095333943475436
    OS PPL corr. energy =    0.078880654283450
    SS PPL corr. energy =    0.016453289191984
    Largest TIA Amplitudes:
              2   1         0.0208722096
              2   0         0.0148841342
              2   3        -0.0148684772
              3  49         0.0143885630
              4  70         0.0143885409
              4  66         0.0138708601
              3  45         0.0138708104
              3  47         0.0129154101
              4  68         0.0129153785
              3  44         0.0127176102

    Largest TIjAb Amplitudes:
      4   4  66  66        -0.0938426841
      3   3  45  45        -0.0938426799
      3   4  45  66        -0.0581618785
      4   3  66  45        -0.0581618785
      2   2  45  45        -0.0459766794
      2   2  66  66        -0.0459766773
      3   3  45  46        -0.0436387849
      3   3  46  45        -0.0436387849
      4   4  66  67        -0.0436387847
      4   4  67  66        -0.0436387847

    SCF energy       (wfn)                    =  -92.340050860394570
    Reference energy (file100)                =  -92.340050860394555

    Opposite-spin MP2 correlation energy      =   -0.263060601237908
    Same-spin MP2 correlation energy          =   -0.089971927324545
    MP2 correlation energy                    =   -0.353032528562473
      * MP2 total energy                      =  -92.693083388957035

    Opposite-spin CCSD correlation energy     =   -0.277262442989791
    Same-spin CCSD correlation energy         =   -0.075244001247380
    CCSD correlation energy                   =   -0.352506449175506
      * CCSD total energy                     =  -92.692557309570063


*** tstop() called on cqc01 at Fri Apr 26 18:25:26 2019
Module time:
	user time   =       1.81 seconds =       0.03 minutes
	system time =       4.38 seconds =       0.07 minutes
	total time  =          8 seconds =       0.13 minutes
Total time:
	user time   =       4.35 seconds =       0.07 minutes
	system time =       6.39 seconds =       0.11 minutes
	total time  =         17 seconds =       0.28 minutes

*** Psi4 exiting successfully. Buy a developer a beer!
