
    -----------------------------------------------------------------------
          Psi4: An Open-Source Ab Initio Electronic Structure Package
                               Psi4 1.2a1.dev939 

                         Git: Rev {HEAD} fa1ec19 


    R. M. Parrish, L. A. Burns, D. G. A. Smith, A. C. Simmonett,
    A. E. DePrince III, E. G. Hohenstein, U. Bozkaya, A. Yu. Sokolov,
    R. Di Remigio, R. M. Richard, J. F. Gonthier, A. M. James,
    H. R. McAlexander, A. Kumar, M. Saitow, X. Wang, B. P. Pritchard,
    P. Verma, H. F. Schaefer III, K. Patkowski, R. A. King, E. F. Valeev,
    F. A. Evangelista, J. M. Turney, T. D. Crawford, and C. D. Sherrill,
    J. Chem. Theory Comput. 13(7) pp 3185--3197 (2017).
    (doi: 10.1021/acs.jctc.7b00174)

    -----------------------------------------------------------------------


    Psi4 started on: Sunday, 28 April 2019 03:21AM

    Process ID:   9007
    PSIDATADIR: /home/grueneis/src/psi4/objdir/stage/usr/local/psi4/share/psi4
    Memory:     500.0 MiB
    Threads:    1
    
  ==> Input File <==

--------------------------------------------------------------------------
# Any line starting with the # character is a comment line

memory 32000 mb

molecule molecule {
-1 1
C          0.0000000000        0.0000000000        0.6411129114
N          0.0000000000        0.0000000000       -0.5497659819
}

set {
  reference rhf
  basis aug-cc-pv(Q+d)z
  scf_type OUT_OF_CORE
  freeze_core true
}

energy('ccsd')
--------------------------------------------------------------------------

  Memory set to  29.802 GiB by Python driver.

*** tstart() called on cqc01
*** at Sun Apr 28 03:21:56 2019

   => Loading Basis Set <=

    Name: AUG-CC-PV(Q+D)Z
    Role: ORBITAL
    Keyword: BASIS
    atoms 1 entry C          line   319 file /home/grueneis/src/psi4/objdir/stage/usr/local/psi4/share/psi4/basis/aug-cc-pv_qpd_z.gbs 
    atoms 2 entry N          line   379 file /home/grueneis/src/psi4/objdir/stage/usr/local/psi4/share/psi4/basis/aug-cc-pv_qpd_z.gbs 


         ---------------------------------------------------------
                                   SCF
            by Justin Turney, Rob Parrish, Andy Simmonett
                             and Daniel Smith
                              RHF Reference
                        1 Threads,  30517 MiB Core
         ---------------------------------------------------------

  ==> Geometry <==

    Molecular point group: c2v
    Full point group: C_inf_v

    Geometry (in Angstrom), charge = -1, multiplicity = 1:

       Center              X                  Y                   Z               Mass       
    ------------   -----------------  -----------------  -----------------  -----------------
           C          0.000000000000     0.000000000000     0.641307457362    12.000000000000
           N          0.000000000000     0.000000000000    -0.549571435938    14.003074004780

  Running in c2v symmetry.

  Rotational constants: A = ************  B =      1.83942  C =      1.83942 [cm^-1]
  Rotational constants: A = ************  B =  55144.48204  C =  55144.48204 [MHz]
  Nuclear repulsion =   18.663058759226058

  Charge       = -1
  Multiplicity = 1
  Electrons    = 14
  Nalpha       = 7
  Nbeta        = 7

  ==> Algorithm <==

  SCF Algorithm Type is OUT_OF_CORE.
  DIIS enabled.
  MOM disabled.
  Fractional occupation disabled.
  Guess Type is SAD.
  Energy threshold   = 1.00e-08
  Density threshold  = 1.00e-08
  Integral threshold = 0.00e+00

  ==> Primary Basis <==

  Basis Set: AUG-CC-PV(Q+D)Z
    Blend: AUG-CC-PV(Q+D)Z
    Number of shells: 40
    Number of basis function: 160
    Number of Cartesian functions: 210
    Spherical Harmonics?: true
    Max angular momentum: 4

  ==> Pre-Iterations <==

   -------------------------------------------------------
    Irrep   Nso     Nmo     Nalpha   Nbeta   Ndocc  Nsocc
   -------------------------------------------------------
     A1        62      62       0       0       0       0
     A2        22      22       0       0       0       0
     B1        38      38       0       0       0       0
     B2        38      38       0       0       0       0
   -------------------------------------------------------
    Total     160     160       7       7       7       0
   -------------------------------------------------------

  ==> Integral Setup <==

  ==> DiskJK: Disk-Based J/K Matrices <==

    J tasked:                  Yes
    K tasked:                  Yes
    wK tasked:                  No
    Memory (MB):             22888
    Schwarz Cutoff:          1E-12

  Minimum eigenvalue in the overlap matrix is 6.4234294792E-05.
  Using Symmetric Orthogonalization.

  SCF Guess: Superposition of Atomic Densities via on-the-fly atomic UHF.

  ==> Iterations <==

                        Total Energy        Delta E     RMS |[F,P]|

   @RHF iter   0:   -96.81809093067820   -9.68181e+01   2.54732e-02 
   @RHF iter   1:   -92.03359560298028    4.78450e+00   8.78227e-03 
   @RHF iter   2:   -92.24530212021369   -2.11707e-01   5.83320e-03 DIIS
   @RHF iter   3:   -92.33768624199091   -9.23841e-02   1.20683e-03 DIIS
   @RHF iter   4:   -92.34314186286632   -5.45562e-03   4.62075e-04 DIIS
   @RHF iter   5:   -92.34474294694441   -1.60108e-03   1.56557e-04 DIIS
   @RHF iter   6:   -92.34514319181281   -4.00245e-04   6.50145e-05 DIIS
   @RHF iter   7:   -92.34525393946574   -1.10748e-04   2.06287e-05 DIIS
   @RHF iter   8:   -92.34526504889006   -1.11094e-05   4.15132e-06 DIIS
   @RHF iter   9:   -92.34526534420279   -2.95313e-07   8.81772e-07 DIIS
   @RHF iter  10:   -92.34526535087153   -6.66874e-09   8.49708e-08 DIIS
   @RHF iter  11:   -92.34526535092645   -5.49250e-11   1.86954e-08 DIIS
   @RHF iter  12:   -92.34526535092911   -2.65743e-12   3.48713e-09 DIIS

  ==> Post-Iterations <==

    Orbital Energies (a.u.)
    -----------------------

    Doubly Occupied:                                                      

       1A1   -15.290741     2A1   -10.975819     3A1    -0.918618  
       4A1    -0.344694     5A1    -0.193914     1B1    -0.189405  
       1B2    -0.189405  

    Virtual:                                                              

       6A1     0.191462     2B1     0.211126     2B2     0.211126  
       7A1     0.216901     3B1     0.273494     3B2     0.273494  
       8A1     0.281872     9A1     0.391819     4B2     0.417676  
       4B1     0.417676    10A1     0.420744     1A2     0.420744  
      11A1     0.469644     5B1     0.521170     5B2     0.521170  
       6B1     0.578695     6B2     0.578695    12A1     0.585489  
      13A1     0.602552     2A2     0.602552    14A1     0.617878  
       7B1     0.729975     7B2     0.729975    15A1     0.821947  
      16A1     0.959793     8B1     0.997952     8B2     0.997952  
       9B1     1.019167     9B2     1.019167    17A1     1.030322  
       3A2     1.030322    18A1     1.043761    10B1     1.069816  
      10B2     1.069816    19A1     1.095055     4A2     1.095055  
      20A1     1.161010    21A1     1.281966    11B1     1.316384  
      11B2     1.316384    12B1     1.374355    12B2     1.374355  
       5A2     1.399119    22A1     1.399119    13B1     1.504966  
      13B2     1.504966    23A1     1.556638    24A1     1.668831  
       6A2     1.782134    25A1     1.782134    14B1     1.820936  
      14B2     1.820936    26A1     1.868480    15B1     2.110892  
      15B2     2.110892    27A1     2.341998    28A1     2.398561  
       7A2     2.398561    29A1     2.477409     8A2     2.477409  
      16B1     2.560404    16B2     2.560404    30A1     2.572307  
      17B2     2.584066    17B1     2.584066    18B1     2.611365  
      18B2     2.611365     9A2     2.637514    31A1     2.637514  
      32A1     2.720114    19B1     2.737572    19B2     2.737572  
      33A1     2.913604    20B2     2.999971    20B1     2.999971  
      10A2     3.028754    34A1     3.028754    35A1     3.247627  
      11A2     3.247627    21B1     3.353284    21B2     3.353284  
      36A1     3.384804    37A1     3.477152    22B2     3.483554  
      22B1     3.483554    12A2     3.549878    38A1     3.549878  
      23B1     3.641238    23B2     3.641238    39A1     3.709743  
      24B1     3.856586    24B2     3.856586    13A2     3.868015  
      40A1     3.868015    25B2     4.494479    25B1     4.494479  
      41A1     4.632245    14A2     4.756689    42A1     4.756689  
      43A1     4.781274    26B2     4.990690    26B1     4.990690  
      44A1     5.406114    45A1     6.254071    15A2     6.254071  
      27B2     6.349474    27B1     6.349474    28B2     6.406281  
      28B1     6.406281    16A2     6.561928    46A1     6.561928  
      29B2     6.564192    29B1     6.564192    47A1     6.737303  
      30B1     6.812401    30B2     6.812401    17A2     6.844041  
      48A1     6.844041    49A1     7.136519    18A2     7.266863  
      50A1     7.266863    31B2     7.392432    31B1     7.392432  
      51A1     7.863168    52A1     8.252270    32B2     8.361489  
      32B1     8.361489    19A2     8.580518    53A1     8.580518  
      33B1     8.886124    33B2     8.886124    34B2     9.082370  
      34B1     9.082370    20A2     9.232222    54A1     9.232222  
      55A1     9.370541    35B2     9.440532    35B1     9.440532  
      36B2     9.535248    36B1     9.535248    21A2    10.093784  
      56A1    10.093784    57A1    10.112344    22A2    10.224644  
      58A1    10.224644    37B2    10.659385    37B1    10.659385  
      59A1    11.855512    38B2    11.927269    38B1    11.927269  
      60A1    12.317714    61A1    24.666381    62A1    32.706818  

    Final Occupation by Irrep:
             A1    A2    B1    B2 
    DOCC [     5,    0,    1,    1 ]

  Energy converged.

  @RHF Final Energy:   -92.34526535092911

   => Energetics <=

    Nuclear Repulsion Energy =             18.6630587592260575
    One-Electron Energy =                -165.8114558058818773
    Two-Electron Energy =                  54.8031316957267123
    Total Energy =                        -92.3452653509291110



Properties will be evaluated at   0.000000,   0.000000,   0.000000 Bohr

Properties computed using the SCF density matrix

  Nuclear Dipole Moment: (a.u.)
     X:     0.0000      Y:     0.0000      Z:     0.0016

  Electronic Dipole Moment: (a.u.)
     X:     0.0000      Y:     0.0000      Z:    -0.1408

  Dipole Moment: (a.u.)
     X:     0.0000      Y:     0.0000      Z:    -0.1392     Total:     0.1392

  Dipole Moment: (Debye)
     X:     0.0000      Y:     0.0000      Z:    -0.3538     Total:     0.3538


*** tstop() called on cqc01 at Sun Apr 28 03:22:49 2019
Module time:
	user time   =      10.11 seconds =       0.17 minutes
	system time =       4.43 seconds =       0.07 minutes
	total time  =         53 seconds =       0.88 minutes
Total time:
	user time   =      10.11 seconds =       0.17 minutes
	system time =       4.43 seconds =       0.07 minutes
	total time  =         53 seconds =       0.88 minutes

*** tstart() called on cqc01
*** at Sun Apr 28 03:22:49 2019


	Wfn Parameters:
	--------------------
	Wavefunction         = CCSD
	Number of irreps     = 4
	Number of MOs        = 160
	Number of active MOs = 158
	AO-Basis             = NONE
	Semicanonical        = false
	Reference            = RHF
	Print Level          = 1

	IRREP	# MOs	# FZDC	# DOCC	# SOCC	# VIRT	# FZVR
	-----	-----	------	------	------	------	------
	 A1	   62	    2	    3	    0	    57	    0
	 A2	   22	    0	    0	    0	    22	    0
	 B1	   38	    0	    1	    0	    37	    0
	 B2	   38	    0	    1	    0	    37	    0
	Transforming integrals...
	IWL integrals will be deleted.
	(OO|OO)...
	Presorting SO-basis two-electron integrals.
	Sorting File: SO Ints (nn|nn) nbuckets = 1
	Transforming the one-electron integrals and constructing Fock matrices
	Starting first half-transformation.
	Sorting half-transformed integrals.
	First half integral transformation complete.
	Starting second half-transformation.
	Two-electron integral transformation complete.
	(OO|OV)...
	Starting second half-transformation.
	Two-electron integral transformation complete.
	(OO|VV)...
	Starting second half-transformation.
	Two-electron integral transformation complete.
	(OV|OO)...
	Starting first half-transformation.
	Sorting half-transformed integrals.
	First half integral transformation complete.
	Starting second half-transformation.
	Two-electron integral transformation complete.
	(OV|OV)...
	Starting second half-transformation.
	Two-electron integral transformation complete.
	(OV|VV)...
	Starting second half-transformation.
	Two-electron integral transformation complete.
	(VV|OO)...
	Starting first half-transformation.
	Sorting half-transformed integrals.
	First half integral transformation complete.
	Starting second half-transformation.
	Two-electron integral transformation complete.
	(VV|OV)...
	Starting second half-transformation.
	Two-electron integral transformation complete.
	(VV|VV)...
	Starting second half-transformation.
	Two-electron integral transformation complete.
	Frozen core energy     =    -86.87003574899113

	Size of irrep 0 of <ab|cd> integrals:     41.874 (MW) /    334.991 (MB)
	Size of irrep 1 of <ab|cd> integrals:     27.521 (MW) /    220.164 (MB)
	Size of irrep 2 of <ab|cd> integrals:     34.176 (MW) /    273.406 (MB)
	Size of irrep 3 of <ab|cd> integrals:     34.176 (MW) /    273.406 (MB)
	Total:                                   137.746 (MW) /   1101.966 (MB)

	Size of irrep 0 of <ia|bc> integrals:      1.585 (MW) /     12.683 (MB)
	Size of irrep 1 of <ia|bc> integrals:      0.734 (MW) /      5.876 (MB)
	Size of irrep 2 of <ia|bc> integrals:      1.111 (MW) /      8.886 (MB)
	Size of irrep 3 of <ia|bc> integrals:      1.111 (MW) /      8.886 (MB)
	Total:                                     4.541 (MW) /     36.331 (MB)

	Size of irrep 0 of tijab amplitudes:       0.071 (MW) /      0.569 (MB)
	Size of irrep 1 of tijab amplitudes:       0.010 (MW) /      0.084 (MB)
	Size of irrep 2 of tijab amplitudes:       0.035 (MW) /      0.281 (MB)
	Size of irrep 3 of tijab amplitudes:       0.035 (MW) /      0.281 (MB)
	Total:                                     0.152 (MW) /      1.215 (MB)

	Nuclear Rep. energy          =     18.66305875922606
	SCF energy                   =    -92.34526535092911
	One-electron energy          =    -44.60450397038045
	Two-electron energy          =     20.46621560921642
	Reference energy             =    -92.34526535092910

*** tstop() called on cqc01 at Sun Apr 28 03:25:03 2019
Module time:
	user time   =       8.13 seconds =       0.14 minutes
	system time =       4.17 seconds =       0.07 minutes
	total time  =        134 seconds =       2.23 minutes
Total time:
	user time   =      18.24 seconds =       0.30 minutes
	system time =       8.60 seconds =       0.14 minutes
	total time  =        187 seconds =       3.12 minutes

*** tstart() called on cqc01
*** at Sun Apr 28 03:25:03 2019

            **************************
            *                        *
            *        CCENERGY        *
            *                        *
            **************************

    Nuclear Rep. energy (wfn)     =   18.663058759226058
    SCF energy          (wfn)     =  -92.345265350929111
    Reference energy    (file100) =  -92.345265350929097

    Input parameters:
    -----------------
    Wave function   =     CCSD
    Reference wfn   =     RHF
    Brueckner       =     No
    Memory (Mbytes) =     32000.0
    Maxiter         =     50
    R_Convergence   =     1.0e-07
    E_Convergence   =     1.0e-06
    Restart         =     Yes
    DIIS            =     Yes
    AO Basis        =     NONE
    ABCD            =     NEW
    Cache Level     =     2
    Cache Type      =     LOW
    Print Level     =     1
    Num. of threads =     1
    # Amps to Print =     10
    Print MP2 Amps? =     No
    Analyze T2 Amps =     No
    Print Pair Ener =     No
    Local CC        =     No
    SCS-MP2         =     False
    SCSN-MP2        =     False
    SCS-CCSD        =     False

MP2 correlation energy -0.3728713489486454
                Solving CC Amplitude Equations
                ------------------------------
  Iter             Energy              RMS        T1Diag      D1Diag    New D1Diag    D2Diag
  ----     ---------------------    ---------   ----------  ----------  ----------   --------
     0        -0.372871348948613    0.000e+00    0.000000    0.000000    0.000000    0.168028
     1        -0.371558464285172    3.131e-01    0.028721    0.055998    0.055998    0.178909
     2        -0.377037272966722    5.508e-02    0.017692    0.031826    0.031826    0.180457
     3        -0.368549924067731    1.489e-02    0.018508    0.033731    0.033731    0.174546
     4        -0.368379574247279    3.625e-03    0.017983    0.032501    0.032501    0.174184
     5        -0.368376333402589    1.016e-03    0.017899    0.032264    0.032264    0.173985
     6        -0.368283128871524    3.610e-04    0.017872    0.032197    0.032197    0.173844
     7        -0.368285726977376    1.078e-04    0.017867    0.032177    0.032177    0.173814
     8        -0.368290534136907    3.795e-05    0.017868    0.032177    0.032177    0.173809
     9        -0.368288509215348    1.409e-05    0.017868    0.032175    0.032175    0.173804
    10        -0.368288267839856    3.854e-06    0.017868    0.032175    0.032175    0.173803
    11        -0.368288369665979    1.210e-06    0.017868    0.032175    0.032175    0.173804
    12        -0.368288377786685    5.547e-07    0.017868    0.032175    0.032175    0.173804
    13        -0.368288396028999    1.846e-07    0.017868    0.032175    0.032175    0.173804
    14        -0.368288400386439    7.778e-08    0.017868    0.032175    0.032175    0.173804
    14        -0.368288400386439    7.778e-08    0.017868    0.032175    0.032175    0.173804

    Iterations converged.


    CCSD corr. energy   =   -0.368288400386439
    PPL corr. energy    =    0.102657729274983
    OS PPL corr. energy =    0.085564952771729
    SS PPL corr. energy =    0.017092776503251
    Largest TIA Amplitudes:
              2   1        -0.0171606233
              2   3        -0.0147153771
              3  86         0.0133148500
              4 123         0.0133148221
              3  83         0.0129226877
              4 120         0.0129226505
              2   0         0.0127974081
              4 118         0.0127661135
              3  81         0.0127660793
              3  84         0.0123270101

    Largest TIjAb Amplitudes:
      4   4 118 118        -0.0632459743
      3   3  81  81        -0.0632459689
      4   4 118 119        -0.0473637363
      4   4 119 118        -0.0473637363
      3   3  81  82        -0.0473637347
      3   3  82  81        -0.0473637347
      3   3  81  84        -0.0427258748
      3   3  84  81        -0.0427258748
      4   4 118 121        -0.0427258724
      4   4 121 118        -0.0427258724

    SCF energy       (wfn)                    =  -92.345265350929111
    Reference energy (file100)                =  -92.345265350929097

    Opposite-spin MP2 correlation energy      =   -0.280487317190550
    Same-spin MP2 correlation energy          =   -0.092384031758063
    MP2 correlation energy                    =   -0.372871348948645
      * MP2 total energy                      =  -92.718136699877746

    Opposite-spin CCSD correlation energy     =   -0.290985399714567
    Same-spin CCSD correlation energy         =   -0.077302994434204
    CCSD correlation energy                   =   -0.368288400386439
      * CCSD total energy                     =  -92.713553751315530


*** tstop() called on cqc01 at Sun Apr 28 03:35:25 2019
Module time:
	user time   =       7.44 seconds =       0.12 minutes
	system time =      14.98 seconds =       0.25 minutes
	total time  =        622 seconds =      10.37 minutes
Total time:
	user time   =      25.68 seconds =       0.43 minutes
	system time =      23.58 seconds =       0.39 minutes
	total time  =        809 seconds =      13.48 minutes

*** Psi4 exiting successfully. Buy a developer a beer!
