
    -----------------------------------------------------------------------
          Psi4: An Open-Source Ab Initio Electronic Structure Package
                               Psi4 1.2a1.dev939 

                         Git: Rev {HEAD} fa1ec19 dirty


    R. M. Parrish, L. A. Burns, D. G. A. Smith, A. C. Simmonett,
    A. E. DePrince III, E. G. Hohenstein, U. Bozkaya, A. Yu. Sokolov,
    R. Di Remigio, R. M. Richard, J. F. Gonthier, A. M. James,
    H. R. McAlexander, A. Kumar, M. Saitow, X. Wang, B. P. Pritchard,
    P. Verma, H. F. Schaefer III, K. Patkowski, R. A. King, E. F. Valeev,
    F. A. Evangelista, J. M. Turney, T. D. Crawford, and C. D. Sherrill,
    J. Chem. Theory Comput. 13(7) pp 3185--3197 (2017).
    (doi: 10.1021/acs.jctc.7b00174)

    -----------------------------------------------------------------------


    Psi4 started on: Sunday, 09 August 2020 12:35AM

    Process ID: 151416
    PSIDATADIR: /home/fs71337/airmler/src/psi4new/build/stage/usr/local/psi4/share/psi4
    Memory:     500.0 MiB
    Threads:    48
    
  ==> Input File <==

--------------------------------------------------------------------------
# Any line starting with the # character is a comment line

memory 250000 mb

molecule molecule {
0 1
S          0.0000000956        0.0000000000        0.0000000000
O          0.7168981180       -1.2417042476        0.0000000000
O          0.7168981180        1.2417042476        0.0000000000
O         -1.4337962317        0.0000000000        0.0000000000
}

set {
  reference rhf


  basis aug-cc-pv(6+d)z
  scf_type OUT_OF_CORE
  freeze_core true
}

energy('ccsd')
--------------------------------------------------------------------------

  Memory set to 232.831 GiB by Python driver.

*** tstart() called on n411-012.vsc4.prov
*** at Sun Aug  9 00:35:46 2020

   => Loading Basis Set <=

    Name: AUG-CC-PV(6+D)Z
    Role: ORBITAL
    Keyword: BASIS
    atoms 1   entry S          line  1164 file /home/fs71337/airmler/src/psi4new/build/stage/usr/local/psi4/share/psi4/basis/aug-cc-pv_6pd_z.gbs 
    atoms 2-4 entry O          line   459 file /home/fs71337/airmler/src/psi4new/build/stage/usr/local/psi4/share/psi4/basis/aug-cc-pv_6pd_z.gbs 


         ---------------------------------------------------------
                                   SCF
            by Justin Turney, Rob Parrish, Andy Simmonett
                             and Daniel Smith
                              RHF Reference
                       48 Threads, 238418 MiB Core
         ---------------------------------------------------------

  ==> Geometry <==

    Molecular point group: c2v
    Full point group: C2v

    Geometry (in Angstrom), charge = 0, multiplicity = 1:

       Center              X                  Y                   Z               Mass       
    ------------   -----------------  -----------------  -----------------  -----------------
           S         -0.000000000000     0.000000000000     0.000000056513    31.972070999000
           O         -0.000000000000     1.241704247600     0.716898078913    15.994914619560
           O          0.000000000000    -1.241704247600     0.716898078913    15.994914619560
           O         -0.000000000000     0.000000000000    -1.433796270787    15.994914619560

  Running in c2v symmetry.

  Rotational constants: A =      0.34178  B =      0.34178  C =      0.17089 [cm^-1]
  Rotational constants: A =  10246.34891  B =  10246.34420  C =   5123.17328 [MHz]
  Nuclear repulsion =  182.636812567951267

  Charge       = 0
  Multiplicity = 1
  Electrons    = 40
  Nalpha       = 20
  Nbeta        = 20

  ==> Algorithm <==

  SCF Algorithm Type is OUT_OF_CORE.
  DIIS enabled.
  MOM disabled.
  Fractional occupation disabled.
  Guess Type is SAD.
  Energy threshold   = 1.00e-08
  Density threshold  = 1.00e-08
  Integral threshold = 0.00e+00

  ==> Primary Basis <==

  Basis Set: AUG-CC-PV(6+D)Z
    Blend: AUG-CC-PV(6+D)Z
    Number of shells: 143
    Number of basis function: 765
    Number of Cartesian functions: 1186
    Spherical Harmonics?: true
    Max angular momentum: 6

  ==> Pre-Iterations <==

   -------------------------------------------------------
    Irrep   Nso     Nmo     Nalpha   Nbeta   Ndocc  Nsocc
   -------------------------------------------------------
     A1       248     248       0       0       0       0
     A2       140     140       0       0       0       0
     B1       171     171       0       0       0       0
     B2       206     206       0       0       0       0
   -------------------------------------------------------
    Total     765     765      20      20      20       0
   -------------------------------------------------------

  ==> Integral Setup <==

  ==> DiskJK: Disk-Based J/K Matrices <==

    J tasked:                  Yes
    K tasked:                  Yes
    wK tasked:                  No
    Memory (MB):            178813
    Schwarz Cutoff:          1E-12

  Minimum eigenvalue in the overlap matrix is 1.8093719685E-06.
  Using Symmetric Orthogonalization.

  SCF Guess: Superposition of Atomic Densities via on-the-fly atomic UHF.

  ==> Iterations <==

                        Total Energy        Delta E     RMS |[F,P]|

   @RHF iter   0:  -623.50214455915579   -6.23502e+02   5.45369e-02 
   @RHF iter   1:  -622.03768242961905    1.46446e+00   6.61515e-03 
   @RHF iter   2:  -622.12000549941558   -8.23231e-02   5.01024e-03 DIIS
   @RHF iter   3:  -622.19205729686996   -7.20518e-02   6.29260e-04 DIIS
   @RHF iter   4:  -622.19384651936741   -1.78922e-03   2.38118e-04 DIIS
   @RHF iter   5:  -622.19420788890204   -3.61370e-04   1.01367e-04 DIIS
   @RHF iter   6:  -622.19426184187910   -5.39530e-05   3.68016e-05 DIIS
   @RHF iter   7:  -622.19427121730018   -9.37542e-06   8.57062e-06 DIIS
   @RHF iter   8:  -622.19427175506405   -5.37764e-07   2.04892e-06 DIIS
   @RHF iter   9:  -622.19427179494460   -3.98805e-08   5.12970e-07 DIIS
   @RHF iter  10:  -622.19427179855927   -3.61467e-09   2.04318e-07 DIIS
   @RHF iter  11:  -622.19427179920342   -6.44150e-10   4.68456e-08 DIIS
   @RHF iter  12:  -622.19427179925060   -4.71800e-11   1.33836e-08 DIIS
   @RHF iter  13:  -622.19427179925538   -4.77485e-12   5.97058e-09 DIIS

  ==> Post-Iterations <==

    Orbital Energies (a.u.)
    -----------------------

    Doubly Occupied:                                                      

       1A1   -92.268065     2A1   -20.654516     1B2   -20.654516  
       3A1   -20.654467     4A1    -9.236702     1B1    -6.925488  
       5A1    -6.920057     2B2    -6.920057     6A1    -1.574330  
       7A1    -1.433071     3B2    -1.433071     8A1    -0.870630  
       4B2    -0.744921     9A1    -0.744921     2B1    -0.743642  
       5B2    -0.620411    10A1    -0.620411     1A2    -0.571551  
       3B1    -0.571551     6B2    -0.540663  

    Virtual:                                                              

      11A1     0.014955     4B1     0.045471    12A1     0.050157  
       7B2     0.050157     5B1     0.052631    13A1     0.070861  
      14A1     0.084638     8B2     0.084638     2A2     0.092297  
       6B1     0.092297    15A1     0.117797     9B2     0.127948  
      10B2     0.128794    16A1     0.128794     7B1     0.136267  
      17A1     0.174207    11B2     0.174207    18A1     0.178383  
       8B1     0.192577     9B1     0.206578     3A2     0.206578  
      19A1     0.220683    20A1     0.242910    12B2     0.242910  
      21A1     0.294247    13B2     0.294247    22A1     0.327459  
       4A2     0.346408    10B1     0.346408    23A1     0.351273  
      14B2     0.351273    15B2     0.362232    24A1     0.405855  
       5A2     0.417344    11B1     0.426744     6A2     0.426744  
      16B2     0.427007    25A1     0.427007    26A1     0.427900  
      27A1     0.439973    17B2     0.439973     7A2     0.440321  
      12B1     0.440321    13B1     0.440832    14B1     0.466266  
      15B1     0.479111    28A1     0.481331    29A1     0.491202  
      18B2     0.491202    30A1     0.523694    19B2     0.523694  
      31A1     0.542103    20B2     0.542103    21B2     0.550968  
      32A1     0.556930    22B2     0.556930    16B1     0.590771  
       8A2     0.590771    33A1     0.600643    17B1     0.667453  
       9A2     0.667453    23B2     0.767889    34A1     0.772155  
      24B2     0.809888    35A1     0.809888    25B2     0.858838  
      36A1     0.858838    18B1     0.873783    10A2     0.874260  
      37A1     0.879238    11A2     0.895520    19B1     0.895520  
      12A2     0.916506    20B1     0.916506    26B2     0.924995  
      38A1     0.924995    39A1     0.949203    21B1     0.950912  
      40A1     0.956107    27B2     0.976691    28B2     0.990028  
      41A1     0.990028    22B1     1.006368    23B1     1.007241  
      13A2     1.007241    42A1     1.024557    29B2     1.024557  
      43A1     1.035659    30B2     1.057977    44A1     1.057977  
      14A2     1.071353    24B1     1.071353    15A2     1.079580  
      25B1     1.079580    31B2     1.085897    32B2     1.092777  
      45A1     1.092777    16A2     1.132621    46A1     1.133554  
      26B1     1.136468    47A1     1.142183    33B2     1.142183  
      48A1     1.189520    34B2     1.196905    49A1     1.196905  
      27B1     1.229038    17A2     1.271271    28B1     1.271271  
      35B2     1.278688    50A1     1.278688    29B1     1.326259  
      18A2     1.326259    36B2     1.420731    51A1     1.462281  
      37B2     1.462281    52A1     1.475197    30B1     1.488357  
      53A1     1.568641    38B2     1.568641    39B2     1.605544  
      31B1     1.625726    19A2     1.625727    20A2     1.632929  
      40B2     1.647773    54A1     1.647773    55A1     1.739701  
      41B2     1.789009    56A1     1.789009    57A1     1.805386  
      32B1     1.805952    33B1     1.813328    21A2     1.813328  
      42B2     1.846193    58A1     1.846193    43B2     1.882039  
      59A1     1.882039    60A1     1.919649    44B2     1.960299  
      61A1     1.960677    45B2     1.960677    22A2     1.993054  
      34B1     1.993054    62A1     2.009484    35B1     2.017693  
      23A2     2.076765    24A2     2.077281    36B1     2.077281  
      46B2     2.135079    63A1     2.135079    64A1     2.137127  
      47B2     2.167070    48B2     2.179096    65A1     2.179096  
      37B1     2.181095    25A2     2.210588    38B1     2.210588  
      26A2     2.219792    39B1     2.255584    27A2     2.262211  
      40B1     2.262211    49B2     2.276482    66A1     2.276482  
      67A1     2.293966    50B2     2.315973    51B2     2.332403  
      68A1     2.332403    69A1     2.372458    28A2     2.375440  
      41B1     2.375440    29A2     2.404580    42B1     2.404580  
      52B2     2.405451    70A1     2.405451    43B1     2.471942  
      71A1     2.580475    53B2     2.580475    44B1     2.590800  
      72A1     2.608534    54B2     2.608534    73A1     2.635120  
      55B2     2.647140    74A1     2.686998    56B2     2.686998  
      75A1     2.730358    30A2     2.744793    45B1     2.744793  
      46B1     2.757247    31A2     2.757248    32A2     2.781046  
      57B2     2.791169    47B1     2.807666    33A2     2.807666  
      76A1     2.848270    58B2     2.848270    77A1     2.938954  
      59B2     2.938955    34A2     2.962744    48B1     2.962744  
      78A1     2.969876    49B1     2.977738    60B2     3.019729  
      79A1     3.019729    80A1     3.115599    61B2     3.115599  
      50B1     3.138421    35A2     3.138421    36A2     3.153758  
      51B1     3.198624    81A1     3.227246    82A1     3.262315  
      62B2     3.262315    83A1     3.269814    52B1     3.278647  
      63B2     3.314452    37A2     3.380911    53B1     3.380911  
      64B2     3.407031    84A1     3.407031    65B2     3.437764  
      66B2     3.454062    85A1     3.454062    54B1     3.478193  
      38A2     3.478193    86A1     3.504673    55B1     3.517126  
      87A1     3.543277    88A1     3.564395    67B2     3.564395  
      39A2     3.634263    89A1     3.811661    56B1     3.819939  
      40A2     3.819939    68B2     3.840391    90A1     3.858761  
      69B2     3.858761    91A1     3.917665    41A2     3.967862  
      57B1     3.967862    92A1     4.004283    70B2     4.004283  
      58B1     4.082608    71B2     4.116018    93A1     4.116018  
      94A1     4.254334    72B2     4.254334    95A1     4.294093  
      73B2     4.312672    74B2     4.320401    96A1     4.320401  
      59B1     4.385949    60B1     4.398387    42A2     4.398387  
      43A2     4.416191    61B1     4.465871    44A2     4.488185  
      62B1     4.488185    75B2     4.531168    76B2     4.538507  
      97A1     4.538507    98A1     4.552743    45A2     4.575650  
      63B1     4.575651    99A1     4.603381    77B2     4.603381  
      78B2     4.639405    46A2     4.719899    64B1     4.719899  
      79B2     4.796162   100A1     4.796162    47A2     4.807964  
     101A1     4.811843    65B1     4.825301    48A2     4.825301  
      66B1     4.829152   102A1     4.936136    80B2     4.936137  
      67B1     5.056926   103A1     5.115962    81B2     5.129317  
     104A1     5.129318    82B2     5.146719    83B2     5.176011  
     105A1     5.176011    49A2     5.209916    68B1     5.209916  
      50A2     5.272349   106A1     5.273305    84B2     5.273305  
      69B1     5.321007    51A2     5.321007    70B1     5.366899  
     107A1     5.384130    85B2     5.408880   108A1     5.408880  
     109A1     5.438684    86B2     5.438684    71B1     5.455568  
      52A2     5.455568    53A2     5.524411    72B1     5.524411  
      54A2     5.553602    73B1     5.568117   110A1     5.576254  
      87B2     5.593992   111A1     5.594404    88B2     5.594404  
      74B1     5.606168    55A2     5.606168    89B2     5.669472  
     112A1     5.685385    90B2     5.685385    75B1     5.692486  
      56A2     5.692486    76B1     5.736467   113A1     5.747163  
      77B1     5.795746    57A2     5.795746   114A1     5.809059  
      91B2     5.809059   115A1     5.862860   116A1     5.910386  
      92B2     5.910387    78B1     5.927571    58A2     5.927572  
     117A1     5.957498    79B1     6.032629    59A2     6.032629  
     118A1     6.039010    93B2     6.039010    60A2     6.044644  
      94B2     6.092892   119A1     6.092892    95B2     6.116984  
      80B1     6.231811   120A1     6.232889   121A1     6.319305  
      81B1     6.326638    96B2     6.359929   122A1     6.359929  
      97B2     6.390377   123A1     6.402948    98B2     6.480343  
     124A1     6.480343    61A2     6.485902    82B1     6.485903  
     125A1     6.589139    62A2     6.634041    63A2     6.665771  
      83B1     6.712909    99B2     6.731933    64A2     6.793994  
      84B1     6.793995   126A1     6.804696   100B2     6.804696  
     101B2     6.857737   127A1     6.857737    85B1     6.893644  
      86B1     6.974058    65A2     6.974058   102B2     7.083626  
     128A1     7.083626   103B2     7.134723   129A1     7.134724  
     104B2     7.223452   130A1     7.223452    66A2     7.367928  
      87B1     7.367928   131A1     7.457504   105B2     7.486472  
      88B1     7.544961    67A2     7.544961   132A1     7.556863  
     133A1     7.719902   106B2     7.719903   134A1     7.798000  
     135A1     7.837443   107B2     7.837443   108B2     7.858990  
      68A2     7.925909    89B1     7.935251    69A2     7.988869  
      90B1     7.988869    70A2     8.208620    91B1     8.208620  
     136A1     8.285512   109B2     8.301774   137A1     8.301775  
      92B1     8.355468   110B2     8.511875   138A1     8.550493  
     111B2     8.550493   112B2     8.651639   139A1     8.651639  
      93B1     8.695133   140A1     8.697742    71A2     8.740377  
      94B1     8.740377    72A2     8.844926    95B1     8.844926  
     113B2     8.907948   141A1     8.907948    73A2     8.935930  
     114B2     9.001649   142A1     9.006628    96B1     9.034466  
      97B1     9.098487    74A2     9.098487   143A1     9.124541  
     115B2     9.124541   116B2     9.313032   144A1     9.313032  
      75A2     9.319605   145A1     9.373176    76A2     9.397217  
      98B1     9.397217   146A1     9.419712   117B2     9.419712  
     118B2     9.489182   119B2     9.495072   147A1     9.495072  
      77A2     9.517503    99B1     9.517503   148A1     9.522875  
     149A1     9.547165   120B2     9.547165    78A2     9.583056  
      79A2     9.640523   100B1     9.640523   101B1     9.715962  
     102B1     9.728079   150A1     9.759129   121B2     9.759129  
     122B2     9.808785   151A1     9.864044   103B1     9.901875  
      80A2     9.901876   123B2     9.925799   152A1     9.925800  
     153A1    10.131816   124B2    10.131816   104B1    10.222718  
      81A2    10.222719   154A1    10.266403   105B1    10.426716  
     155A1    10.438617   125B2    10.443847   156A1    10.443847  
     106B1    10.454532    82A2    10.454533   107B1    10.680412  
     157A1    10.690183   126B2    10.690184    83A2    10.703322  
      84A2    10.838439   108B1    10.838439   158A1    10.863206  
     127B2    10.883292   159A1    10.888912   128B2    10.888912  
     109B1    10.907378   110B1    10.919507    85A2    10.919507  
     129B2    10.970141   160A1    10.970141   130B2    11.012560  
     131B2    11.195948   161A1    11.195948    86A2    11.214377  
     111B1    11.264704    87A2    11.280736   112B1    11.280736  
      88A2    11.313763   113B1    11.313763   162A1    11.386938  
     163A1    11.430901   164A1    11.435935   132B2    11.435935  
     133B2    11.461053   165A1    11.461053    89A2    11.529872  
     114B1    11.529872   134B2    11.561078    90A2    11.578229  
     135B2    11.579722   136B2    11.589558   166A1    11.589558  
     115B1    11.641268   116B1    11.673819    91A2    11.673819  
     137B2    11.708557   167A1    11.715574   138B2    11.718220  
     168A1    11.718221   117B1    11.725129    92A2    11.818551  
     139B2    11.843689   169A1    11.843689   170A1    11.979813  
      93A2    12.099567   118B1    12.099568   140B2    12.108034  
     171A1    12.108034   141B2    12.165091   172A1    12.401284  
      94A2    12.465747   119B1    12.465747    95A2    12.592291  
     120B1    12.592291   142B2    12.604206   173A1    12.604207  
     143B2    12.761901   174A1    12.761901   121B1    12.851661  
      96A2    12.867323   122B1    12.867323   144B2    12.875833  
     175A1    12.875833   145B2    12.942859   176A1    12.990883  
     146B2    13.092300   177A1    13.092300    97A2    13.101083  
     123B1    13.101083   124B1    13.140452   178A1    13.155963  
      98A2    13.204981   147B2    13.257893   179A1    13.257893  
     180A1    13.401208   125B1    13.555744    99A2    13.555744  
     148B2    13.571051   181A1    13.571051   100A2    13.597310  
     126B1    13.613219   149B2    13.621925   182A1    13.621926  
     150B2    13.703091   127B1    13.892270   101A2    13.892271  
     183A1    14.108037   102A2    14.302943   128B1    14.302943  
     184A1    14.309025   151B2    14.309026   103A2    14.385548  
     185A1    14.397473   152B2    14.545489   186A1    14.545489  
     129B1    14.563899   104A2    14.577437   130B1    14.577437  
     131B1    14.675568   105A2    14.675568   153B2    14.686720  
     154B2    14.918019   187A1    14.918019   155B2    15.041755  
     188A1    15.041755   132B1    15.171543   189A1    15.280317  
     156B2    15.405187   190A1    15.427160   157B2    15.427161  
     106A2    15.431027   133B1    15.431028   107A2    15.897794  
     134B1    15.897794   191A1    15.902484   108A2    15.967047  
     158B2    16.037927   192A1    16.037928   159B2    16.221467  
     193A1    16.221468   194A1    16.474810   135B1    16.665120  
     195A1    16.832541   160B2    16.850180   109A2    17.018920  
     136B1    17.018920   161B2    17.188821   196A1    17.375258  
     162B2    17.375258   163B2    17.947784   197A1    17.947785  
     198A1    18.102584   199A1    22.410198   200A1    22.599888  
     164B2    22.599888   110A2    22.714344   201A1    22.716118  
     165B2    22.716118   111A2    22.720954   137B1    22.720954  
     202A1    22.725610   166B2    22.746047   112A2    22.783758  
     138B1    22.783759   203A1    22.850742   167B2    22.850742  
     139B1    22.914374   113A2    23.132623   140B1    23.144674  
     114A2    23.144675   204A1    23.160171   168B2    23.160171  
     141B1    23.230435   205A1    23.264413   142B1    23.332662  
     115A2    23.332663   143B1    23.408275   206A1    23.447769  
     169B2    23.447769   170B2    23.448736   144B1    23.458221  
     116A2    23.458221   207A1    23.472800   171B2    23.472800  
     208A1    23.474246   117A2    23.524198   145B1    23.555617  
     118A2    23.555617   209A1    23.568709   172B2    23.568709  
     146B1    23.607870   119A2    23.619299   147B1    23.619299  
     210A1    23.634181   173B2    23.634182   211A1    23.673781  
     174B2    23.673781   212A1    23.682619   175B2    23.872465  
     176B2    24.221687   177B2    25.750151   213A1    25.750152  
     214A1    26.043849   148B1    26.837213   120A2    26.837874  
     149B1    26.837874   178B2    26.842292   179B2    26.843376  
     215A1    26.843376   121A2    26.970149   180B2    27.004744  
     216A1    27.004744   122A2    27.046471   150B1    27.046471  
     217A1    27.084673   151B1    27.192644   181B2    27.204587  
     218A1    27.204587   123A2    27.236785   152B1    27.236785  
     124A2    27.246177   182B2    27.302341   183B2    27.316735  
     219A1    27.316735   220A1    27.373036   153B1    27.419233  
     125A2    27.419233   154B1    27.466033   126A2    27.502059  
     155B1    27.502059   184B2    27.545346   221A1    27.545346  
     222A1    27.725476   185B2    27.725477   186B2    27.758480  
     223A1    27.785875   127A2    28.776018   156B1    28.776018  
     224A1    28.813578   187B2    28.813578   157B1    28.839369  
     188B2    28.867501   128A2    29.430101   189B2    29.580340  
     225A1    29.580340   158B1    29.699001   129A2    29.699001  
     226A1    30.330636   159B1    30.383742   190B2    30.399529  
     227A1    30.399529   130A2    30.656950   160B1    30.656951  
     228A1    31.042212   229A1    31.157204   191B2    31.157204  
     192B2    31.361851   161B1    31.565768   131A2    31.565768  
     132A2    31.576196   230A1    31.598896   231A1    31.603733  
     193B2    31.603733   162B1    31.618024   133A2    31.618024  
     163B1    31.768816   232A1    31.973189   194B2    31.999447  
     164B1    32.076735   233A1    32.122275   195B2    32.122275  
     134A2    32.221446   165B1    32.221446   135A2    32.356460  
     166B1    32.356460   136A2    32.387649   167B1    32.387650  
     234A1    32.418080   196B2    32.469984   235A1    32.469984  
     137A2    32.478543   236A1    32.555373   197B2    32.555373  
     198B2    32.800022   237A1    32.800023   168B1    32.845018  
     238A1    32.897775   199B2    32.909547   200B2    33.116850  
     239A1    33.116851   240A1    35.136805   138A2    35.230742  
     169B1    35.230743   139A2    35.367151   201B2    35.463639  
     241A1    35.463640   140A2    35.898462   170B1    35.898462  
     171B1    35.902533   202B2    36.020381   242A1    36.020381  
     203B2    36.309950   204B2    36.395507   243A1    36.395508  
     244A1    36.595368   245A1    39.060480   205B2    39.060480  
     246A1   103.838874   206B2   104.950280   247A1   104.950281  
     248A1   250.837315  

    Final Occupation by Irrep:
             A1    A2    B1    B2 
    DOCC [    10,    1,    3,    6 ]

  Energy converged.

  @RHF Final Energy:  -622.19427179925538

   => Energetics <=

    Nuclear Repulsion Energy =            182.6368125679512673
    One-Electron Energy =               -1220.2560880931475822
    Two-Electron Energy =                 415.4250037259409964
    Total Energy =                       -622.1942717992553753



Properties will be evaluated at   0.000000,   0.000000,   0.000000 Bohr

Properties computed using the SCF density matrix

  Nuclear Dipole Moment: (a.u.)
     X:    -0.0000      Y:     0.0000      Z:     0.0000

  Electronic Dipole Moment: (a.u.)
     X:     0.0000      Y:     0.0000      Z:     0.0000

  Dipole Moment: (a.u.)
     X:    -0.0000      Y:     0.0000      Z:     0.0000     Total:     0.0000

  Dipole Moment: (Debye)
     X:    -0.0000      Y:     0.0000      Z:     0.0000     Total:     0.0000


*** tstop() called on n411-012.vsc4.prov at Sun Aug  9 03:51:31 2020
Module time:
	user time   =    8899.59 seconds =     148.33 minutes
	system time =    3140.34 seconds =      52.34 minutes
	total time  =      11745 seconds =     195.75 minutes
Total time:
	user time   =    8899.59 seconds =     148.33 minutes
	system time =    3140.34 seconds =      52.34 minutes
	total time  =      11745 seconds =     195.75 minutes

*** tstart() called on n411-012.vsc4.prov
*** at Sun Aug  9 03:51:31 2020


	Wfn Parameters:
	--------------------
	Wavefunction         = CCSD
	Number of irreps     = 4
	Number of MOs        = 765
	Number of active MOs = 757
	AO-Basis             = NONE
	Semicanonical        = false
	Reference            = RHF
	Print Level          = 1

	IRREP	# MOs	# FZDC	# DOCC	# SOCC	# VIRT	# FZVR
	-----	-----	------	------	------	------	------
	 A1	   248	    5	    5	    0	    238	    0
	 A2	   140	    0	    1	    0	    139	    0
	 B1	   171	    1	    2	    0	    168	    0
	 B2	   206	    2	    4	    0	    200	    0
	Transforming integrals...
	IWL integrals will be deleted.
	(OO|OO)...
	Presorting SO-basis two-electron integrals.
	Sorting File: SO Ints (nn|nn) nbuckets = 1
	Transforming the one-electron integrals and constructing Fock matrices
	Starting first half-transformation.
	Sorting half-transformed integrals.
	First half integral transformation complete.
	Starting second half-transformation.
	Two-electron integral transformation complete.
	(OO|OV)...
	Starting second half-transformation.
	Two-electron integral transformation complete.
	(OO|VV)...
	Starting second half-transformation.
	Two-electron integral transformation complete.
	(OV|OO)...
	Starting first half-transformation.
	Sorting half-transformed integrals.
	First half integral transformation complete.
	Starting second half-transformation.
	Two-electron integral transformation complete.
	(OV|OV)...
	Starting second half-transformation.
	Two-electron integral transformation complete.
	(OV|VV)...
	Starting second half-transformation.
	Two-electron integral transformation complete.
	(VV|OO)...
	Starting first half-transformation.
	Sorting half-transformed integrals.
	First half integral transformation complete.
	Starting second half-transformation.
	Two-electron integral transformation complete.
	(VV|OV)...
	Starting second half-transformation.
	Two-electron integral transformation complete.
	(VV|VV)...
	Starting second half-transformation.
	Two-electron integral transformation complete.
	Frozen core energy     =   -684.64039432223797

	Size of irrep 0 of <ab|cd> integrals:  20790.468 (MW) / 166323.742 (MB)
	Size of irrep 1 of <ab|cd> integrals:  17785.956 (MW) / 142287.652 (MB)
	Size of irrep 2 of <ab|cd> integrals:  18378.683 (MW) / 147029.461 (MB)
	Size of irrep 3 of <ab|cd> integrals:  20136.745 (MW) / 161093.962 (MB)
	Total:                                 77091.852 (MW) / 616734.816 (MB)

	Size of irrep 0 of <ia|bc> integrals:    355.426 (MW) /   2843.407 (MB)
	Size of irrep 1 of <ia|bc> integrals:    267.395 (MW) /   2139.159 (MB)
	Size of irrep 2 of <ia|bc> integrals:    280.897 (MW) /   2247.175 (MB)
	Size of irrep 3 of <ia|bc> integrals:    340.286 (MW) /   2722.286 (MB)
	Total:                                  1244.003 (MW) /   9952.027 (MB)

	Size of irrep 0 of tijab amplitudes:       6.633 (MW) /     53.062 (MB)
	Size of irrep 1 of tijab amplitudes:       3.467 (MW) /     27.740 (MB)
	Size of irrep 2 of tijab amplitudes:       3.796 (MW) /     30.367 (MB)
	Size of irrep 3 of tijab amplitudes:       6.244 (MW) /     49.950 (MB)
	Total:                                    20.140 (MW) /    161.119 (MB)

	Nuclear Rep. energy          =    182.63681256795127
	SCF energy                   =   -622.19427179925538
	One-electron energy          =   -219.44303482216077
	Two-electron energy          =     99.25234477718637
	Reference energy             =   -622.19427179926106

*** tstop() called on n411-012.vsc4.prov at Sun Aug  9 09:10:52 2020
Module time:
	user time   =   32269.86 seconds =     537.83 minutes
	system time =    3608.66 seconds =      60.14 minutes
	total time  =      19161 seconds =     319.35 minutes
Total time:
	user time   =   41169.52 seconds =     686.16 minutes
	system time =    6749.00 seconds =     112.48 minutes
	total time  =      30906 seconds =     515.10 minutes

*** tstart() called on n411-012.vsc4.prov
*** at Sun Aug  9 09:10:52 2020

            **************************
            *                        *
            *        CCENERGY        *
            *                        *
            **************************

    Nuclear Rep. energy (wfn)     =  182.636812567951267
    SCF energy          (wfn)     = -622.194271799255375
    Reference energy    (file100) = -622.194271799261060

    Input parameters:
    -----------------
    Wave function   =     CCSD
    Reference wfn   =     RHF
    Brueckner       =     No
    Memory (Mbytes) =     250000.0
    Maxiter         =     50
    R_Convergence   =     1.0e-07
    E_Convergence   =     1.0e-06
    Restart         =     Yes
    DIIS            =     Yes
    AO Basis        =     NONE
    ABCD            =     NEW
    Cache Level     =     2
    Cache Type      =     LOW
    Print Level     =     1
    Num. of threads =     48
    # Amps to Print =     10
    Print MP2 Amps? =     No
    Analyze T2 Amps =     No
    Print Pair Ener =     No
    Local CC        =     No
    SCS-MP2         =     False
    SCSN-MP2        =     False
    SCS-CCSD        =     False

MP2 correlation energy -1.0172677773195478
                Solving CC Amplitude Equations
                ------------------------------
  Iter             Energy              RMS        T1Diag      D1Diag    New D1Diag    D2Diag
  ----     ---------------------    ---------   ----------  ----------  ----------   --------
     0        -1.017267777319366    0.000e+00    0.000000    0.000000    0.000000    0.176398
     1        -0.957081105223728    4.825e-01    0.033172    0.098410    0.098410    0.164245
     2        -1.003961658413312    1.251e-01    0.017459    0.051136    0.051136    0.188031
     3        -0.984895883794219    3.547e-02    0.019247    0.058740    0.058740    0.176015
     4        -0.981209107150242    5.987e-03    0.018531    0.056200    0.056200    0.174765
     5        -0.981567182358308    1.600e-03    0.018261    0.055510    0.055510    0.174424
     6        -0.981479448707384    5.250e-04    0.018187    0.055270    0.055270    0.174251
     7        -0.981422361106570    1.740e-04    0.018152    0.055147    0.055147    0.174171
     8        -0.981439548093157    5.214e-05    0.018149    0.055133    0.055133    0.174173
     9        -0.981437432026430    1.766e-05    0.018146    0.055119    0.055119    0.174170
    10        -0.981436722886648    5.202e-06    0.018145    0.055116    0.055116    0.174169
    11        -0.981437014043253    1.644e-06    0.018145    0.055115    0.055115    0.174169
    12        -0.981437132208722    4.839e-07    0.018145    0.055115    0.055115    0.174169
    13        -0.981437121202635    1.800e-07    0.018145    0.055114    0.055114    0.174169
    14        -0.981437126021623    6.794e-08    0.018145    0.055114    0.055114    0.174169
    14        -0.981437126021623    6.794e-08    0.018145    0.055114    0.055114    0.174169

    Iterations converged.


    CCSD corr. energy   =   -0.981437126021623
    PPL corr. energy    =    0.227311537417212
    OS PPL corr. energy =    0.186106344511955
    SS PPL corr. energy =    0.041205192905255
    Largest TIA Amplitudes:
              6 378        -0.0522592572
              4  12        -0.0236004968
             10 552        -0.0236002893
              2   2        -0.0167113540
              2   8         0.0152385389
              2   0         0.0146851318
              3  12        -0.0143804006
              9 552        -0.0143803354
              4  18         0.0136900306
             10 556         0.0136899121

    Largest TIjAb Amplitudes:
      7   7 378 378        -0.0709753223
      5   5 378 378        -0.0709751444
      6   6 378 378        -0.0537173978
      2   2 378 378        -0.0270624216
      5  11 378  12        -0.0243466807
     11   5  12 378        -0.0243466807
      7  11 378 552         0.0243466726
     11   7 552 378         0.0243466726
      6   6   0   0        -0.0195457244
      6   7 378 390         0.0190505739

    SCF energy       (wfn)                    = -622.194271799255375
    Reference energy (file100)                = -622.194271799261060

    Opposite-spin MP2 correlation energy      =   -0.757734733152933
    Same-spin MP2 correlation energy          =   -0.259533044166433
    MP2 correlation energy                    =   -1.017267777319548
      * MP2 total energy                      = -623.211539576580662

    Opposite-spin CCSD correlation energy     =   -0.758563237856835
    Same-spin CCSD correlation energy         =   -0.222873889226478
    CCSD correlation energy                   =   -0.981437126021623
      * CCSD total energy                     = -623.175708925282720


*** tstop() called on n411-012.vsc4.prov at Sun Aug  9 12:14:55 2020
Module time:
	user time   =   28706.26 seconds =     478.44 minutes
	system time =    2965.85 seconds =      49.43 minutes
	total time  =      11043 seconds =     184.05 minutes
Total time:
	user time   =   69875.78 seconds =    1164.60 minutes
	system time =    9714.85 seconds =     161.91 minutes
	total time  =      41949 seconds =     699.15 minutes

*** Psi4 exiting successfully. Buy a developer a beer!
