
    -----------------------------------------------------------------------
          Psi4: An Open-Source Ab Initio Electronic Structure Package
                               Psi4 1.2a1.dev939 

                         Git: Rev {HEAD} fa1ec19 


    R. M. Parrish, L. A. Burns, D. G. A. Smith, A. C. Simmonett,
    A. E. DePrince III, E. G. Hohenstein, U. Bozkaya, A. Yu. Sokolov,
    R. Di Remigio, R. M. Richard, J. F. Gonthier, A. M. James,
    H. R. McAlexander, A. Kumar, M. Saitow, X. Wang, B. P. Pritchard,
    P. Verma, H. F. Schaefer III, K. Patkowski, R. A. King, E. F. Valeev,
    F. A. Evangelista, J. M. Turney, T. D. Crawford, and C. D. Sherrill,
    J. Chem. Theory Comput. 13(7) pp 3185--3197 (2017).
    (doi: 10.1021/acs.jctc.7b00174)

    -----------------------------------------------------------------------


    Psi4 started on: Monday, 06 May 2019 01:04AM

    Process ID:  18228
    PSIDATADIR: /home/grueneis/src/psi4/objdir/stage/usr/local/psi4/share/psi4
    Memory:     500.0 MiB
    Threads:    1
    
  ==> Input File <==

--------------------------------------------------------------------------
# Any line starting with the # character is a comment line

memory 32000 mb

molecule molecule {
0 1
S          0.0000000956        0.0000000000        0.0000000000
O          0.7168981180       -1.2417042476        0.0000000000
O          0.7168981180        1.2417042476        0.0000000000
O         -1.4337962317        0.0000000000        0.0000000000
}

set {
  reference rhf


  basis aug-cc-pv(5+d)z
  scf_type OUT_OF_CORE
  freeze_core true
}

energy('ccsd')
--------------------------------------------------------------------------

  Memory set to  29.802 GiB by Python driver.

*** tstart() called on cqc01
*** at Mon May  6 01:04:29 2019

   => Loading Basis Set <=

    Name: AUG-CC-PV(5+D)Z
    Role: ORBITAL
    Keyword: BASIS
    atoms 1   entry S          line   971 file /home/grueneis/src/psi4/objdir/stage/usr/local/psi4/share/psi4/basis/aug-cc-pv_5pd_z.gbs 
    atoms 2-4 entry O          line   377 file /home/grueneis/src/psi4/objdir/stage/usr/local/psi4/share/psi4/basis/aug-cc-pv_5pd_z.gbs 


         ---------------------------------------------------------
                                   SCF
            by Justin Turney, Rob Parrish, Andy Simmonett
                             and Daniel Smith
                              RHF Reference
                        1 Threads,  30517 MiB Core
         ---------------------------------------------------------

  ==> Geometry <==

    Molecular point group: c2v
    Full point group: C2v

    Geometry (in Angstrom), charge = 0, multiplicity = 1:

       Center              X                  Y                   Z               Mass       
    ------------   -----------------  -----------------  -----------------  -----------------
           S         -0.000000000000     0.000000000000     0.000000056513    31.972070999000
           O         -0.000000000000     1.241704247600     0.716898078913    15.994914619560
           O          0.000000000000    -1.241704247600     0.716898078913    15.994914619560
           O         -0.000000000000     0.000000000000    -1.433796270787    15.994914619560

  Running in c2v symmetry.

  Rotational constants: A =      0.34178  B =      0.34178  C =      0.17089 [cm^-1]
  Rotational constants: A =  10246.34891  B =  10246.34420  C =   5123.17328 [MHz]
  Nuclear repulsion =  182.636812567951267

  Charge       = 0
  Multiplicity = 1
  Electrons    = 40
  Nalpha       = 20
  Nbeta        = 20

  ==> Algorithm <==

  SCF Algorithm Type is OUT_OF_CORE.
  DIIS enabled.
  MOM disabled.
  Fractional occupation disabled.
  Guess Type is SAD.
  Energy threshold   = 1.00e-08
  Density threshold  = 1.00e-08
  Integral threshold = 0.00e+00

  ==> Primary Basis <==

  Basis Set: AUG-CC-PV(5+D)Z
    Blend: AUG-CC-PV(5+D)Z
    Number of shells: 111
    Number of basis function: 517
    Number of Cartesian functions: 738
    Spherical Harmonics?: true
    Max angular momentum: 5

  ==> Pre-Iterations <==

   -------------------------------------------------------
    Irrep   Nso     Nmo     Nalpha   Nbeta   Ndocc  Nsocc
   -------------------------------------------------------
     A1       173     173       0       0       0       0
     A2        89      89       0       0       0       0
     B1       114     114       0       0       0       0
     B2       141     141       0       0       0       0
   -------------------------------------------------------
    Total     517     517      20      20      20       0
   -------------------------------------------------------

  ==> Integral Setup <==

  ==> DiskJK: Disk-Based J/K Matrices <==

    J tasked:                  Yes
    K tasked:                  Yes
    wK tasked:                  No
    Memory (MB):             22888
    Schwarz Cutoff:          1E-12

  Minimum eigenvalue in the overlap matrix is 8.8935633962E-06.
  Using Symmetric Orthogonalization.

  SCF Guess: Superposition of Atomic Densities via on-the-fly atomic UHF.

  ==> Iterations <==

                        Total Energy        Delta E     RMS |[F,P]|

   @RHF iter   0:  -624.02669456238038   -6.24027e+02   1.71046e-02 
   @RHF iter   1:  -622.02915112661606    1.99754e+00   2.35006e-03 
   @RHF iter   2:  -622.12628683361413   -9.71357e-02   1.60106e-03 DIIS
   @RHF iter   3:  -622.18926301817874   -6.29762e-02   2.92194e-04 DIIS
   @RHF iter   4:  -622.19230209379452   -3.03908e-03   9.45425e-05 DIIS
   @RHF iter   5:  -622.19295600557712   -6.53912e-04   4.18490e-05 DIIS
   @RHF iter   6:  -622.19304414217072   -8.81366e-05   1.70463e-05 DIIS
   @RHF iter   7:  -622.19306151998444   -1.73778e-05   4.03369e-06 DIIS
   @RHF iter   8:  -622.19306264936745   -1.12938e-06   1.02807e-06 DIIS
   @RHF iter   9:  -622.19306274826499   -9.88975e-08   3.20213e-07 DIIS
   @RHF iter  10:  -622.19306276386965   -1.56047e-08   1.22439e-07 DIIS
   @RHF iter  11:  -622.19306276636485   -2.49520e-09   2.55174e-08 DIIS
   @RHF iter  12:  -622.19306276643113   -6.62794e-11   6.87928e-09 DIIS

  ==> Post-Iterations <==

    Orbital Energies (a.u.)
    -----------------------

    Doubly Occupied:                                                      

       1A1   -92.268833     2A1   -20.654552     1B2   -20.654552  
       3A1   -20.654503     4A1    -9.237240     1B1    -6.926094  
       2B2    -6.920556     5A1    -6.920556     6A1    -1.574427  
       7A1    -1.433123     3B2    -1.433122     8A1    -0.870696  
       4B2    -0.744956     9A1    -0.744956     2B1    -0.743739  
      10A1    -0.620345     5B2    -0.620345     3B1    -0.571503  
       1A2    -0.571503     6B2    -0.540688  

    Virtual:                                                              

      11A1     0.017083     4B1     0.050496     5B1     0.054725  
      12A1     0.058763     7B2     0.058763    13A1     0.084608  
       8B2     0.106237    14A1     0.106237     6B1     0.119618  
       2A2     0.119618    15A1     0.143206     9B2     0.165114  
      16A1     0.165114    10B2     0.166513     7B1     0.166812  
      17A1     0.206529    18A1     0.210367    11B2     0.210367  
       8B1     0.235136     3A2     0.235136    19A1     0.246732  
       9B1     0.251133    12B2     0.297407    20A1     0.297407  
      21A1     0.362395    13B2     0.362395    22A1     0.384693  
      14B2     0.384693    23A1     0.393678    10B1     0.415940  
       4A2     0.415940    15B2     0.462565    24A1     0.469882  
       5A2     0.487891    16B2     0.495543    25A1     0.495543  
       6A2     0.509226    11B1     0.509226    12B1     0.519126  
       7A2     0.519126    26A1     0.522629    13B1     0.525549  
      14B1     0.538154    27A1     0.546480    17B2     0.546480  
      28A1     0.566812    18B2     0.566812    29A1     0.568413  
      30A1     0.616110    19B2     0.616110    15B1     0.624468  
      31A1     0.642711    20B2     0.642711    16B1     0.671700  
       8A2     0.671700    32A1     0.694715    21B2     0.710908  
      33A1     0.710908    22B2     0.715078    17B1     0.716221  
       9A2     0.716221    23B2     0.843028    34A1     0.889521  
      24B2     0.951683    35A1     0.951683    25B2     0.972083  
      36A1     0.972083    37A1     1.033597    10A2     1.038796  
      18B1     1.071514    11A2     1.072881    19B1     1.072881  
      12A2     1.091226    20B1     1.091226    21B1     1.127143  
      38A1     1.128789    26B2     1.167994    39A1     1.167994  
      27B2     1.180198    40A1     1.180198    41A1     1.185915  
      28B2     1.216352    42A1     1.216352    29B2     1.220182  
      22B1     1.257054    13A2     1.257054    43A1     1.267936  
      30B2     1.273982    44A1     1.273982    23B1     1.289119  
      14A2     1.289119    45A1     1.311137    31B2     1.311137  
      46A1     1.312653    24B1     1.322878    25B1     1.324909  
      15A2     1.324909    16A2     1.379384    47A1     1.406819  
      32B2     1.406819    26B1     1.407146    33B2     1.416767  
      27B1     1.426046    17A2     1.426046    28B1     1.469277  
      48A1     1.475027    34B2     1.475858    49A1     1.475858  
      35B2     1.530346    50A1     1.530346    36B2     1.539248  
      29B1     1.666710    18A2     1.666710    37B2     1.705703  
      51A1     1.710514    38B2     1.710514    52A1     1.747164  
      30B1     1.800971    53A1     1.847077    39B2     1.847077  
      31B1     1.864608    19A2     1.864608    20A2     1.995546  
      40B2     2.041857    54A1     2.041857    55A1     2.132231  
      41B2     2.132231    56A1     2.136544    32B1     2.257309  
      21A2     2.257309    42B2     2.341643    57A1     2.341643  
      58A1     2.346178    33B1     2.429854    43B2     2.465364  
      22A2     2.476350    34B1     2.476350    59A1     2.503058  
      44B2     2.503058    60A1     2.504523    61A1     2.543847  
      23A2     2.548622    35B1     2.548622    36B1     2.566851  
      45B2     2.617023    62A1     2.617023    63A1     2.619305  
      24A2     2.651651    46B2     2.664020    64A1     2.664020  
      47B2     2.699279    37B1     2.725765    25A2     2.749695  
      48B2     2.773559    65A1     2.773559    26A2     2.791151  
      38B1     2.791151    27A2     2.856665    39B1     2.856665  
      66A1     2.895683    49B2     2.902541    67A1     2.902541  
      68A1     2.905720    50B2     2.905720    40B1     2.911508  
      28A2     2.911508    69A1     2.974377    41B1     3.005433  
      29A2     3.032478    42B1     3.032478    51B2     3.035533  
      52B2     3.049790    70A1     3.049790    71A1     3.091136  
      53B2     3.091136    43B1     3.119335    72A1     3.168011  
      54B2     3.212801    30A2     3.230071    44B1     3.230071  
      55B2     3.254085    73A1     3.254086    45B1     3.289149  
      31A2     3.332035    56B2     3.335855    46B1     3.346010  
      32A2     3.346010    74A1     3.372271    75A1     3.433295  
      57B2     3.433295    47B1     3.458455    33A2     3.458455  
      48B1     3.483124    49B1     3.491716    34A2     3.491716  
      76A1     3.532111    77A1     3.554388    58B2     3.554388  
      78A1     3.626304    59B2     3.626305    79A1     3.813581  
      60B2     3.813581    80A1     3.887539    61B2     3.887539  
      62B2     3.947773    50B1     3.952708    81A1     3.954196  
      35A2     3.976176    82A1     4.017060    63B2     4.017060  
      36A2     4.100802    51B1     4.100802    64B2     4.223354  
      83A1     4.223354    84A1     4.229559    65B2     4.263428  
      52B1     4.266749    37A2     4.266750    85A1     4.351527  
      53B1     4.387185    86A1     4.530756    66B2     4.530756  
      38A2     4.598405    54B1     4.598406    39A2     4.692659  
      67B2     4.741491    87A1     4.741491    88A1     4.744406  
      40A2     4.811646    55B1     4.811646    89A1     4.873391  
      68B2     4.878145    90A1     4.878146    69B2     5.215581  
      56B1     5.256594    70B2     5.314360    91A1     5.314360  
      92A1     5.430983    71B2     5.430983    57B1     5.545783  
      41A2     5.545783    58B1     5.546454    72B2     5.582664  
      42A2     5.639901    59B1     5.660915    43A2     5.660915  
      60B1     5.699476    93A1     5.712409    73B2     5.712410  
      94A1     5.722507    95A1     5.796117    74B2     5.948699  
      96A1     5.948699    75B2     5.969413    44A2     6.089273  
      61B1     6.089273    97A1     6.110498    45A2     6.143026  
      62B1     6.143026    63B1     6.145431    76B2     6.158470  
      98A1     6.158471    77B2     6.206777    78B2     6.240352  
      99A1     6.240352    64B1     6.274422    65B1     6.320398  
      46A2     6.320398    79B2     6.380291   100A1     6.380291  
      47A2     6.396102    80B2     6.452016   101A1     6.452016  
      48A2     6.457927    66B1     6.457927    81B2     6.555216  
     102A1     6.629468    82B2     6.629468   103A1     6.657949  
      67B1     6.734881    49A2     6.734881    68B1     6.751460  
     104A1     6.819817   105A1     6.857238    83B2     6.857238  
      50A2     7.020707    69B1     7.020707   106A1     7.025451  
      84B2     7.025451   107A1     7.087449    51A2     7.136655  
      70B1     7.151322    52A2     7.151322   108A1     7.180790  
      85B2     7.180790    71B1     7.198224    53A2     7.198225  
     109A1     7.216311    72B1     7.314845   110A1     7.355750  
      86B2     7.355750    54A2     7.359277    73B1     7.359277  
      74B1     7.365889   111A1     7.391310   112A1     7.423116  
      87B2     7.423116    55A2     7.470394    75B1     7.470394  
      88B2     7.475736    76B1     7.530239    56A2     7.530239  
     113A1     7.538811    89B2     7.538811    57A2     7.554053  
      90B2     7.556635   114A1     7.593154    77B1     7.594082  
      91B2     7.597948   115A1     7.597948   116A1     7.717331  
      92B2     7.717332    78B1     7.814735    58A2     7.814736  
      93B2     7.829841    94B2     7.904500   117A1     7.904500  
     118A1     7.971112    95B2     8.035203   119A1     8.102541  
      96B2     8.102541    79B1     8.125863    97B2     8.171579  
     120A1     8.171579    59A2     8.237005   121A1     8.312811  
      60A2     8.321159    80B1     8.321160    81B1     8.356822  
      98B2     8.380985   122A1     8.497573    99B2     8.568755  
     123A1     8.568755    82B1     8.733652    61A2     8.733653  
     100B2     8.748350   124A1     8.748350    62A2     8.849802  
      63A2     8.918784    83B1     8.918784    84B1     9.031221  
     125A1     9.036024    85B1     9.164360    64A2     9.164360  
     126A1     9.168944   101B2     9.168944    65A2     9.251544  
     127A1     9.318957   102B2     9.415205   128A1     9.568828  
     103B2     9.668959   129A1     9.668960    66A2     9.839840  
      86B1     9.839841   104B2     9.920906   130A1     9.920907  
     105B2    10.154451   131A1    10.154451    87B1    10.427103  
      88B1    10.543097    67A2    10.543097   106B2    10.658706  
     132A1    11.048255   133A1    11.079708   107B2    11.079708  
     134A1    11.266663   108B2    11.266663   135A1    12.698191  
     109B2    12.839921   136A1    12.839921   110B2    16.220719  
      68A2    16.222273    89B1    16.222273   111B2    16.228183  
     137A1    16.228183    90B1    16.237355    91B1    16.238757  
      69A2    16.238758    70A2    16.314916   112B2    16.343202  
     138A1    16.343202    92B1    16.429924    71A2    16.499997  
      93B1    16.499997   139A1    16.512581   113B2    16.597314  
     140A1    16.606203   114B2    16.606203   115B2    16.674298  
      72A2    16.690957   141A1    16.693132    94B1    16.705627  
      73A2    16.705627    95B1    16.705633   142A1    16.772335  
     116B2    16.772335    96B1    16.784465    74A2    16.784465  
     143A1    16.825356   117B2    16.825357   144A1    16.825940  
     118B2    16.866229    97B1    16.874785    75A2    16.874785  
      98B1    16.886387   145A1    16.955962   146A1    17.015563  
     119B2    17.015563    99B1    17.026932    76A2    17.026932  
     147A1    17.223891   120B2    17.223892   148A1    17.711491  
     121B2    17.711492   149A1    18.108310   150A1    18.338863  
     122B2    18.338863    77A2    19.119426   151A1    19.123709  
      78A2    19.125140   100B1    19.125140   152A1    19.126977  
     123B2    19.126977   101B1    19.224804    79A2    19.224804  
     102B1    19.264395   124B2    19.276322   153A1    19.276322  
     103B1    19.314513    80A2    19.314513   125B2    19.328059  
     126B2    19.329009   154A1    19.329009   155A1    19.343330  
     127B2    19.406404    81A2    19.421570   104B1    19.442036  
      82A2    19.523131   105B1    19.523132   156A1    19.525291  
     128B2    19.525291   106B1    19.636881   129B2    19.649650  
     107B1    19.701454    83A2    19.701454   130B2    19.742514  
     157A1    19.742514   158A1    19.833380   159A1    19.870699  
     131B2    19.870699    84A2    19.957630   108B1    20.029865  
      85A2    20.029865   109B1    20.063974   160A1    20.140964  
     132B2    20.140964   161A1    20.187673   133B2    20.245583  
     110B1    20.275225    86A2    20.275226   162A1    20.667408  
     163A1    20.669193   134B2    20.669194   135B2    21.397188  
     164A1    21.397189   165A1    22.475437    87A2    22.513860  
      88A2    22.538935   111B1    22.538935   136B2    22.689320  
     166A1    22.689320   112B1    22.914962    89A2    23.314960  
     113B1    23.314960   137B2    23.673132   138B2    23.694139  
     167A1    23.694139   168A1    23.721951   169A1    23.927080  
     139B2    23.927080   114B1    26.820060   140B2    30.084782  
     170A1    30.084783   171A1    63.278388   141B2    64.000609  
     172A1    64.000610   173A1    79.057251  

    Final Occupation by Irrep:
             A1    A2    B1    B2 
    DOCC [    10,    1,    3,    6 ]

  Energy converged.

  @RHF Final Energy:  -622.19306276643113

   => Energetics <=

    Nuclear Repulsion Energy =            182.6368125679512673
    One-Electron Energy =               -1220.2471680007745363
    Two-Electron Energy =                 415.4172926663922567
    Total Energy =                       -622.1930627664310123



Properties will be evaluated at   0.000000,   0.000000,   0.000000 Bohr

Properties computed using the SCF density matrix

  Nuclear Dipole Moment: (a.u.)
     X:    -0.0000      Y:     0.0000      Z:     0.0000

  Electronic Dipole Moment: (a.u.)
     X:     0.0000      Y:     0.0000      Z:    -0.0000

  Dipole Moment: (a.u.)
     X:    -0.0000      Y:     0.0000      Z:    -0.0000     Total:     0.0000

  Dipole Moment: (Debye)
     X:    -0.0000      Y:     0.0000      Z:    -0.0000     Total:     0.0000


*** tstop() called on cqc01 at Mon May  6 01:36:35 2019
Module time:
	user time   =    1081.65 seconds =      18.03 minutes
	system time =     250.03 seconds =       4.17 minutes
	total time  =       1926 seconds =      32.10 minutes
Total time:
	user time   =    1081.65 seconds =      18.03 minutes
	system time =     250.03 seconds =       4.17 minutes
	total time  =       1926 seconds =      32.10 minutes

*** tstart() called on cqc01
*** at Mon May  6 01:36:35 2019


	Wfn Parameters:
	--------------------
	Wavefunction         = CCSD
	Number of irreps     = 4
	Number of MOs        = 517
	Number of active MOs = 509
	AO-Basis             = NONE
	Semicanonical        = false
	Reference            = RHF
	Print Level          = 1

	IRREP	# MOs	# FZDC	# DOCC	# SOCC	# VIRT	# FZVR
	-----	-----	------	------	------	------	------
	 A1	   173	    5	    5	    0	    163	    0
	 A2	   89	    0	    1	    0	    88	    0
	 B1	   114	    1	    2	    0	    111	    0
	 B2	   141	    2	    4	    0	    135	    0
	Transforming integrals...
	IWL integrals will be deleted.
	(OO|OO)...
	Presorting SO-basis two-electron integrals.
	Sorting File: SO Ints (nn|nn) nbuckets = 2
	Transforming the one-electron integrals and constructing Fock matrices
	Starting first half-transformation.
	Sorting half-transformed integrals.
	First half integral transformation complete.
	Starting second half-transformation.
	Two-electron integral transformation complete.
	(OO|OV)...
	Starting second half-transformation.
	Two-electron integral transformation complete.
	(OO|VV)...
	Starting second half-transformation.
	Two-electron integral transformation complete.
	(OV|OO)...
	Starting first half-transformation.
	Sorting half-transformed integrals.
	First half integral transformation complete.
	Starting second half-transformation.
	Two-electron integral transformation complete.
	(OV|OV)...
	Starting second half-transformation.
	Two-electron integral transformation complete.
	(OV|VV)...
	Starting second half-transformation.
	Two-electron integral transformation complete.
	(VV|OO)...
	Starting first half-transformation.
	Sorting half-transformed integrals.
	First half integral transformation complete.
	Starting second half-transformation.
	Two-electron integral transformation complete.
	(VV|OV)...
	Starting second half-transformation.
	Two-electron integral transformation complete.
	(VV|VV)...
	Starting second half-transformation.
	Two-electron integral transformation complete.
	Frozen core energy     =   -684.64037713120956

	Size of irrep 0 of <ab|cd> integrals:   4206.690 (MW) /  33653.519 (MB)
	Size of irrep 1 of <ab|cd> integrals:   3440.761 (MW) /  27526.088 (MB)
	Size of irrep 2 of <ab|cd> integrals:   3593.523 (MW) /  28748.183 (MB)
	Size of irrep 3 of <ab|cd> integrals:   4038.094 (MW) /  32304.753 (MB)
	Total:                                 15279.068 (MW) / 122232.543 (MB)

	Size of irrep 0 of <ia|bc> integrals:    107.990 (MW) /    863.922 (MB)
	Size of irrep 1 of <ia|bc> integrals:     77.253 (MW) /    618.021 (MB)
	Size of irrep 2 of <ia|bc> integrals:     82.006 (MW) /    656.049 (MB)
	Size of irrep 3 of <ia|bc> integrals:    102.563 (MW) /    820.506 (MB)
	Total:                                   369.812 (MW) /   2958.498 (MB)

	Size of irrep 0 of tijab amplitudes:       2.984 (MW) /     23.868 (MB)
	Size of irrep 1 of tijab amplitudes:       1.525 (MW) /     12.201 (MB)
	Size of irrep 2 of tijab amplitudes:       1.678 (MW) /     13.428 (MB)
	Size of irrep 3 of tijab amplitudes:       2.796 (MW) /     22.368 (MB)
	Total:                                     8.983 (MW) /     71.865 (MB)

	Nuclear Rep. energy          =    182.63681256795127
	SCF energy                   =   -622.19306276643113
	One-electron energy          =   -219.44018797903746
	Two-electron energy          =     99.25068977586407
	Reference energy             =   -622.19306276643169

*** tstop() called on cqc01 at Mon May  6 04:11:38 2019
Module time:
	user time   =    2367.34 seconds =      39.46 minutes
	system time =     780.21 seconds =      13.00 minutes
	total time  =       9303 seconds =     155.05 minutes
Total time:
	user time   =    3448.99 seconds =      57.48 minutes
	system time =    1030.24 seconds =      17.17 minutes
	total time  =      11229 seconds =     187.15 minutes

*** tstart() called on cqc01
*** at Mon May  6 04:11:38 2019

            **************************
            *                        *
            *        CCENERGY        *
            *                        *
            **************************

    Nuclear Rep. energy (wfn)     =  182.636812567951267
    SCF energy          (wfn)     = -622.193062766431126
    Reference energy    (file100) = -622.193062766431694

    Input parameters:
    -----------------
    Wave function   =     CCSD
    Reference wfn   =     RHF
    Brueckner       =     No
    Memory (Mbytes) =     32000.0
    Maxiter         =     50
    R_Convergence   =     1.0e-07
    E_Convergence   =     1.0e-06
    Restart         =     Yes
    DIIS            =     Yes
    AO Basis        =     NONE
    ABCD            =     NEW
    Cache Level     =     2
    Cache Type      =     LOW
    Print Level     =     1
    Num. of threads =     1
    # Amps to Print =     10
    Print MP2 Amps? =     No
    Analyze T2 Amps =     No
    Print Pair Ener =     No
    Local CC        =     No
    SCS-MP2         =     False
    SCSN-MP2        =     False
    SCS-CCSD        =     False

MP2 correlation energy -1.0052571860652912
                Solving CC Amplitude Equations
                ------------------------------
  Iter             Energy              RMS        T1Diag      D1Diag    New D1Diag    D2Diag
  ----     ---------------------    ---------   ----------  ----------  ----------   --------
     0        -1.005257186064012    0.000e+00    0.000000    0.000000    0.000000    0.176450
     1        -0.953737558480079    4.800e-01    0.033194    0.098687    0.098687    0.164909
     2        -0.996045476940481    1.242e-01    0.017531    0.051439    0.051439    0.188284
     3        -0.976589793143607    3.518e-02    0.019289    0.058963    0.058963    0.176294
     4        -0.973134948850618    5.918e-03    0.018580    0.056455    0.056455    0.175108
     5        -0.973477318242088    1.587e-03    0.018312    0.055771    0.055771    0.174762
     6        -0.973381814929767    5.193e-04    0.018239    0.055535    0.055535    0.174589
     7        -0.973326885666616    1.714e-04    0.018204    0.055414    0.055414    0.174511
     8        -0.973344882829323    5.118e-05    0.018201    0.055401    0.055401    0.174513
     9        -0.973342384047714    1.728e-05    0.018198    0.055387    0.055387    0.174510
    10        -0.973341677729738    5.097e-06    0.018197    0.055384    0.055384    0.174509
    11        -0.973341994037859    1.587e-06    0.018197    0.055383    0.055383    0.174509
    12        -0.973342102308531    4.597e-07    0.018197    0.055382    0.055382    0.174509
    13        -0.973342090059520    1.697e-07    0.018197    0.055382    0.055382    0.174509
    14        -0.973342095035694    6.472e-08    0.018197    0.055382    0.055382    0.174509
    14        -0.973342095035694    6.472e-08    0.018197    0.055382    0.055382    0.174509

    Iterations converged.


    CCSD corr. energy   =   -0.973342095035694
    PPL corr. energy    =    0.222904477271331
    OS PPL corr. energy =    0.181939912803694
    SS PPL corr. energy =    0.040964564467636
    Largest TIA Amplitudes:
              6 251        -0.0380728022
              6 252         0.0377152673
             10 368         0.0232795191
              4  10         0.0232793121
              2   2         0.0182568165
              2   0         0.0156823329
              2   8         0.0150462623
              3  10         0.0139834893
              9 368         0.0139832056
             10 366        -0.0125524533

    Largest TIjAb Amplitudes:
      5   5 251 251        -0.0424316159
      7   7 251 251        -0.0424313879
      5   5 251 252         0.0373723877
      5   5 252 251         0.0373723877
      7   7 251 252         0.0373721821
      7   7 252 251         0.0373721821
      5   5 252 252        -0.0333643439
      7   7 252 252        -0.0333641584
      6   6 252 252        -0.0298364953
      6   6 251 252         0.0273169272

    SCF energy       (wfn)                    = -622.193062766431126
    Reference energy (file100)                = -622.193062766431694

    Opposite-spin MP2 correlation energy      =   -0.746594795689541
    Same-spin MP2 correlation energy          =   -0.258662390374471
    MP2 correlation energy                    =   -1.005257186065291
      * MP2 total energy                      = -623.198319952496945

    Opposite-spin CCSD correlation energy     =   -0.751143306416939
    Same-spin CCSD correlation energy         =   -0.222198771162683
    CCSD correlation energy                   =   -0.973342095035694
      * CCSD total energy                     = -623.166404861467413


*** tstop() called on cqc01 at Mon May  6 06:12:00 2019
Module time:
	user time   =    1051.87 seconds =      17.53 minutes
	system time =    1212.92 seconds =      20.22 minutes
	total time  =       7222 seconds =     120.37 minutes
Total time:
	user time   =    4500.86 seconds =      75.01 minutes
	system time =    2243.23 seconds =      37.39 minutes
	total time  =      18451 seconds =     307.52 minutes

*** Psi4 exiting successfully. Buy a developer a beer!
