
    -----------------------------------------------------------------------
          Psi4: An Open-Source Ab Initio Electronic Structure Package
                               Psi4 1.2a1.dev939 

                         Git: Rev {HEAD} fa1ec19 dirty


    R. M. Parrish, L. A. Burns, D. G. A. Smith, A. C. Simmonett,
    A. E. DePrince III, E. G. Hohenstein, U. Bozkaya, A. Yu. Sokolov,
    R. Di Remigio, R. M. Richard, J. F. Gonthier, A. M. James,
    H. R. McAlexander, A. Kumar, M. Saitow, X. Wang, B. P. Pritchard,
    P. Verma, H. F. Schaefer III, K. Patkowski, R. A. King, E. F. Valeev,
    F. A. Evangelista, J. M. Turney, T. D. Crawford, and C. D. Sherrill,
    J. Chem. Theory Comput. 13(7) pp 3185--3197 (2017).
    (doi: 10.1021/acs.jctc.7b00174)

    -----------------------------------------------------------------------


    Psi4 started on: Saturday, 31 October 2020 04:42PM

    Process ID:  20800
    PSIDATADIR: /home/fs71337/airmler/src/psi4_uhf/build/stage/usr/local/psi4/share/psi4
    Memory:     500.0 MiB
    Threads:    48
    
  ==> Input File <==

--------------------------------------------------------------------------
# Any line starting with the # character is a comment line
memory 250000 mb
molecule molecule{
1 3
S          0.0000000000        0.0000000000       -0.0413619065
H          0.0000000000        0.0000000000        1.3156167249
}

set {
  reference uhf
  basis aug-cc-pv(6+d)z
  scf_type OUT_OF_CORE
  freeze_core true
}

energy('ccsd')
--------------------------------------------------------------------------

  Memory set to 232.831 GiB by Python driver.

*** tstart() called on n412-050.vsc4.prov
*** at Sat Oct 31 16:42:30 2020

   => Loading Basis Set <=

    Name: AUG-CC-PV(6+D)Z
    Role: ORBITAL
    Keyword: BASIS
    atoms 1 entry S          line  1164 file /home/fs71337/airmler/src/psi4_uhf/build/stage/usr/local/psi4/share/psi4/basis/aug-cc-pv_6pd_z.gbs 
    atoms 2 entry H          line    51 file /home/fs71337/airmler/src/psi4_uhf/build/stage/usr/local/psi4/share/psi4/basis/aug-cc-pv_6pd_z.gbs 


         ---------------------------------------------------------
                                   SCF
            by Justin Turney, Rob Parrish, Andy Simmonett
                             and Daniel Smith
                              UHF Reference
                       48 Threads, 238418 MiB Core
         ---------------------------------------------------------

  ==> Geometry <==

    Molecular point group: c2v
    Full point group: C_inf_v

    Geometry (in Angstrom), charge = 1, multiplicity = 3:

       Center              X                  Y                   Z               Mass       
    ------------   -----------------  -----------------  -----------------  -----------------
           S          0.000000000000     0.000000000000    -0.041467596848    31.972070999000
           H          0.000000000000     0.000000000000     1.315511034552     1.007825032070

  Running in c2v symmetry.

  Rotational constants: A = ************  B =      9.37009  C =      9.37009 [cm^-1]
  Rotational constants: A = ************  B = 280908.28667  C = 280908.28667 [MHz]
  Nuclear repulsion =    6.239475804202412

  Charge       = 1
  Multiplicity = 3
  Electrons    = 16
  Nalpha       = 9
  Nbeta        = 7

  ==> Algorithm <==

  SCF Algorithm Type is OUT_OF_CORE.
  DIIS enabled.
  MOM disabled.
  Fractional occupation disabled.
  Guess Type is GWH.
  Energy threshold   = 1.00e-08
  Density threshold  = 1.00e-08
  Integral threshold = 0.00e+00

  ==> Primary Basis <==

  Basis Set: AUG-CC-PV(6+D)Z
    Blend: AUG-CC-PV(6+D)Z
    Number of shells: 65
    Number of basis function: 325
    Number of Cartesian functions: 486
    Spherical Harmonics?: true
    Max angular momentum: 6

  ==> Pre-Iterations <==

   -------------------------------------------------------
    Irrep   Nso     Nmo     Nalpha   Nbeta   Ndocc  Nsocc
   -------------------------------------------------------
     A1       116     116       0       0       0       0
     A2        51      51       0       0       0       0
     B1        79      79       0       0       0       0
     B2        79      79       0       0       0       0
   -------------------------------------------------------
    Total     325     325       9       7       7       2
   -------------------------------------------------------

  ==> Integral Setup <==

  ==> DiskJK: Disk-Based J/K Matrices <==

    J tasked:                  Yes
    K tasked:                  Yes
    wK tasked:                  No
    Memory (MB):            178813
    Schwarz Cutoff:          1E-12

  Minimum eigenvalue in the overlap matrix is 7.7033855985E-06.
  Using Symmetric Orthogonalization.

  SCF Guess: Generalized Wolfsberg-Helmholtz.

  ==> Iterations <==

                        Total Energy        Delta E     RMS |[F,P]|

    Occupation by irrep:
             A1    A2    B1    B2 
    DOCC [     4,    0,    2,    1 ]
    SOCC [     1,    0,    0,    1 ]

   @UHF iter   1:  -311.91716950795950   -3.11917e+02   7.29954e-01 
    Occupation by irrep:
             A1    A2    B1    B2 
    DOCC [     5,    0,    1,    1 ]
    SOCC [     0,    0,    1,    1 ]

   @UHF iter   2:  -396.14699871014665   -8.42298e+01   3.46194e-02 DIIS
   @UHF iter   3:  -397.26184786370044   -1.11485e+00   2.35908e-02 DIIS
   @UHF iter   4:  -397.74212725321871   -4.80279e-01   3.91101e-03 DIIS
   @UHF iter   5:  -397.76881042581573   -2.66832e-02   9.69043e-04 DIIS
   @UHF iter   6:  -397.77225236736786   -3.44194e-03   4.40026e-04 DIIS
   @UHF iter   7:  -397.77324757913982   -9.95212e-04   2.56014e-04 DIIS
   @UHF iter   8:  -397.77364924414798   -4.01665e-04   1.15579e-04 DIIS
   @UHF iter   9:  -397.77373329237213   -8.40482e-05   4.00566e-05 DIIS
   @UHF iter  10:  -397.77373974485153   -6.45248e-06   9.08622e-06 DIIS
   @UHF iter  11:  -397.77374005421342   -3.09362e-07   1.34098e-06 DIIS
   @UHF iter  12:  -397.77374005889914   -4.68572e-09   3.38481e-07 DIIS
   @UHF iter  13:  -397.77374005911975   -2.20609e-10   7.49468e-08 DIIS
   @UHF iter  14:  -397.77374005913447   -1.47224e-11   1.50826e-08 DIIS
   @UHF iter  15:  -397.77374005913504   -5.68434e-13   3.55027e-09 DIIS

  ==> Post-Iterations <==

   @Spin Contamination Metric:   2.245259036E-02
   @S^2 Expected:                2.000000000E+00
   @S^2 Observed:                2.022452590E+00
   @S   Expected:                1.000000000E+00
   @S   Observed:                1.000000000E+00

    Orbital Energies (a.u.)
    -----------------------

    Alpha Occupied:                                                       

       1A1   -92.406203     2A1    -9.401752     1B1    -7.095405  
       1B2    -7.095405     3A1    -7.073895     4A1    -1.388637  
       5A1    -0.898936     2B1    -0.835136     2B2    -0.835136  

    Alpha Virtual:                                                        

       6A1    -0.149137     7A1    -0.104662     8A1    -0.082619  
       3B1    -0.082323     3B2    -0.082323     4B2    -0.042775  
       4B1    -0.042775     9A1    -0.041314    10A1    -0.037639  
       1A2    -0.037639    11A1     0.024244     5B1     0.053836  
       5B2     0.053836    12A1     0.059788    13A1     0.081481  
       6B1     0.084103     6B2     0.084103    14A1     0.105680  
       7B1     0.139684     7B2     0.139684     2A2     0.143872  
      15A1     0.143872     3A2     0.203508    16A1     0.203508  
       8B1     0.216413     8B2     0.216413    17A1     0.268555  
      18A1     0.300800     9B1     0.301756     9B2     0.301756  
      10B1     0.325096    10B2     0.325096    19A1     0.332491  
       4A2     0.332491    20A1     0.358365    21A1     0.394954  
      22A1     0.536365    11B1     0.579237    11B2     0.579237  
      12B2     0.622220    12B1     0.622220    23A1     0.624652  
       5A2     0.624652    13B1     0.644111    13B2     0.644111  
       6A2     0.688405    24A1     0.688405    25A1     0.714986  
      26A1     0.746062     7A2     0.751468    27A1     0.751468  
      14B1     0.755706    14B2     0.755706    15B1     0.762991  
      15B2     0.762991    28A1     0.791231    16B2     0.821857  
      16B1     0.821857     8A2     0.836252    29A1     0.836252  
      17B1     0.935002    17B2     0.935002    30A1     0.954791  
       9A2     0.982093    31A1     0.982093    18B2     0.986118  
      18B1     0.986118    32A1     1.050433    19B1     1.232637  
      19B2     1.232637    33A1     1.239431    34A1     1.409151  
      35A1     1.636028    10A2     1.636028    11A2     1.637635  
      36A1     1.637635    20B1     1.641205    20B2     1.641205  
      21B1     1.660189    21B2     1.660189    37A1     1.703375  
      22B1     1.714400    22B2     1.714400    23B1     1.775198  
      23B2     1.775198    12A2     1.778599    38A1     1.778599  
      39A1     1.845443    13A2     1.875452    40A1     1.875452  
      24B1     1.896100    24B2     1.896100    41A1     1.902284  
      25B1     1.903612    25B2     1.903612    14A2     1.940319  
      42A1     1.940319    43A1     2.028107    26B1     2.044384  
      26B2     2.044384    15A2     2.055053    44A1     2.055053  
      27B2     2.069672    27B1     2.069672    28B1     2.120620  
      28B2     2.120620    16A2     2.168400    45A1     2.168400  
      17A2     2.270665    46A1     2.270665    47A1     2.305888  
      29B1     2.367750    29B2     2.367750    48A1     2.428504  
      30B1     2.441834    30B2     2.441834    18A2     2.503059  
      49A1     2.503059    50A1     2.512799    31B1     2.549100  
      31B2     2.549100    51A1     2.879727    32B1     3.173861  
      32B2     3.173861    33B1     3.342607    33B2     3.342607  
      52A1     3.505519    19A2     3.611367    53A1     3.611367  
      34B1     3.668438    34B2     3.668438    54A1     3.759050  
      20A2     3.759050    35B1     3.772725    35B2     3.772725  
      55A1     3.895342    21A2     3.901693    56A1     3.901693  
      36B1     3.945081    36B2     3.945081    22A2     3.975621  
      57A1     3.975621    37B1     4.003279    37B2     4.003279  
      38B1     4.033569    38B2     4.033569    23A2     4.069946  
      58A1     4.069946    59A1     4.089182    60A1     4.092457  
      24A2     4.092457    61A1     4.192190    25A2     4.202421  
      62A1     4.202421    39B1     4.232265    39B2     4.232265  
      40B1     4.333748    40B2     4.333748    41B2     4.334251  
      41B1     4.334251    42B1     4.432834    42B2     4.432834  
      63A1     4.463421    64A1     4.501276    26A2     4.501276  
      65A1     4.604780    43B1     4.627174    43B2     4.627174  
      27A2     4.649095    66A1     4.649095    44B1     4.723700  
      44B2     4.723700    28A2     4.779415    67A1     4.779415  
      45B1     4.802216    45B2     4.802216    68A1     4.843231  
      29A2     5.012937    69A1     5.012937    70A1     5.122941  
      71A1     5.152662    30A2     5.152662    46B1     5.181985  
      46B2     5.181985    47B1     5.211566    47B2     5.211566  
      72A1     5.464669    48B1     5.511335    48B2     5.511335  
      73A1     5.678336    49B2     5.951935    49B1     5.951935  
      31A2     6.076438    74A1     6.076438    50B1     6.610020  
      50B2     6.610020    75A1     6.804878    76A1     7.137864  
      32A2     7.137864    51B1     7.169208    51B2     7.169208  
      52B1     7.613705    52B2     7.613705    77A1     7.716981  
      33A2     7.862640    78A1     7.862640    53B2     7.890631  
      53B1     7.890631    79A1     8.122688    34A2     8.262782  
      80A1     8.262782    81A1     8.305004    54B2     8.311469  
      54B1     8.311469    82A1     8.458637    35A2     8.458637  
      36A2     8.495133    83A1     8.495133    55B1     8.525878  
      55B2     8.525878    37A2     8.660041    84A1     8.660041  
      56B2     8.854238    56B1     8.854238    57B1     8.877738  
      57B2     8.877738    38A2     8.921912    85A1     8.921912  
      58B1     9.004213    58B2     9.004213    86A1     9.080583  
      87A1     9.131924    39A2     9.131924    59B1     9.207534  
      59B2     9.207534    60B2     9.259703    60B1     9.259703  
      88A1     9.365159    40A2     9.484320    89A1     9.484320  
      61B2     9.519207    61B1     9.519207    62B1     9.781589  
      62B2     9.781589    90A1    10.021227    41A2    10.021227  
      91A1    10.113727    92A1    10.246706    93A1    10.362308  
      42A2    10.362308    63B2    10.380571    63B1    10.380571  
      43A2    10.589146    94A1    10.589146    95A1    10.618725  
      64B2    10.835635    64B1    10.835635    65B2    11.172117  
      65B1    11.172117    96A1    11.220878    44A2    11.220878  
      97A1    11.332616    66B2    11.359944    66B1    11.359944  
      98A1    12.473672    67B2    12.655104    67B1    12.655104  
      68B2    13.409232    68B1    13.409232    99A1    14.326504  
     100A1    16.082388    69B2    17.168090    69B1    17.168090  
      45A2    17.297194   101A1    17.297194    70B2    17.475421  
      70B1    17.475421    46A2    17.984310   102A1    17.984310  
     103A1    18.702839    71B2    18.725275    71B1    18.725275  
      47A2    19.962557   104A1    19.962557    72B1    20.391321  
      72B2    20.391321    48A2    21.113884   105A1    21.113884  
      73B2    21.200291    73B1    21.200291   106A1    21.485335  
     107A1    22.390752    49A2    22.774381   108A1    22.774381  
      74B2    23.732544    74B1    23.732544   109A1    24.180130  
      50A2    24.230752   110A1    24.230752    75B2    24.253210  
      75B1    24.253210    76B2    24.860962    76B1    24.860962  
     111A1    25.161126    77B1    29.910744    77B2    29.910744  
     112A1    30.366480    51A2    30.366480    78B1    30.949555  
      78B2    30.949555   113A1    31.257761   114A1    34.130810  
      79B2    34.381892    79B1    34.381892   115A1    36.783007  
     116A1   247.227056  

    Beta Occupied:                                                        

       1A1   -92.384107     2A1    -9.379665     3A1    -7.062519  
       1B2    -7.042249     1B1    -7.042249     4A1    -1.189676  
       5A1    -0.860089  

    Beta Virtual:                                                         

       2B2    -0.300574     2B1    -0.300574     6A1    -0.132998  
       7A1    -0.086613     8A1    -0.081012     3B2    -0.071288  
       3B1    -0.071288     9A1    -0.037085     4B2    -0.026973  
       4B1    -0.026973     1A2    -0.009078    10A1    -0.009078  
      11A1     0.032350     5B2     0.061896     5B1     0.061896  
      12A1     0.063602    13A1     0.084795     6B2     0.106129  
       6B1     0.106129    14A1     0.113912     7B2     0.174741  
       7B1     0.174741     2A2     0.200776    15A1     0.200776  
       8B1     0.222200     8B2     0.222200     3A2     0.229866  
      16A1     0.229866    17A1     0.280774    18A1     0.304553  
       9B2     0.309900     9B1     0.309900    10B2     0.331146  
      10B1     0.331146     4A2     0.343900    19A1     0.343900  
      20A1     0.363602    21A1     0.409246    22A1     0.543979  
      11B2     0.626089    11B1     0.626089    23A1     0.629751  
       5A2     0.629751    12B2     0.631536    12B1     0.631536  
      13B2     0.662824    13B1     0.662824    24A1     0.726120  
       6A2     0.733633    25A1     0.733633    26A1     0.754673  
      14B1     0.762936    14B2     0.762936     7A2     0.774354  
      27A1     0.774354    15B2     0.784577    15B1     0.784577  
      28A1     0.799154    16B2     0.856550    16B1     0.856550  
       8A2     0.863582    29A1     0.863582    17B2     0.939040  
      17B1     0.939040    30A1     0.965520    18B2     0.990114  
      18B1     0.990114     9A2     0.991522    31A1     0.991522  
      32A1     1.060551    19B2     1.244926    19B1     1.244926  
      33A1     1.248993    34A1     1.423820    10A2     1.644653  
      35A1     1.644653    11A2     1.645293    36A1     1.645293  
      20B2     1.654473    20B1     1.654473    21B1     1.670138  
      21B2     1.670138    37A1     1.712714    22B2     1.733592  
      22B1     1.733592    23B1     1.795170    23B2     1.795170  
      12A2     1.804768    38A1     1.804768    39A1     1.857754  
      40A1     1.887813    13A2     1.887813    24B1     1.903324  
      24B2     1.903324    25B1     1.908263    25B2     1.908263  
      41A1     1.914004    14A2     1.966905    42A1     1.966905  
      43A1     2.034499    26B2     2.057460    26B1     2.057460  
      44A1     2.093194    15A2     2.093194    27B2     2.131198  
      27B1     2.131198    28B2     2.168398    28B1     2.168398  
      16A2     2.171511    45A1     2.171511    17A2     2.283472  
      46A1     2.283472    47A1     2.313994    29B1     2.370168  
      29B2     2.370168    48A1     2.446590    30B2     2.460287  
      30B1     2.460287    18A2     2.512597    49A1     2.512597  
      50A1     2.517885    31B2     2.554052    31B1     2.554052  
      51A1     2.881181    32B2     3.192757    32B1     3.192757  
      33B1     3.350048    33B2     3.350048    52A1     3.518857  
      19A2     3.621697    53A1     3.621697    34B1     3.680163  
      34B2     3.680163    54A1     3.775941    20A2     3.775941  
      35B2     3.783533    35B1     3.783533    55A1     3.910427  
      21A2     3.919227    56A1     3.919227    36B1     3.978308  
      36B2     3.978308    37B2     4.014689    37B1     4.014689  
      22A2     4.018933    57A1     4.018933    38B1     4.063373  
      38B2     4.063373    58A1     4.090866    23A2     4.090866  
      59A1     4.102826    60A1     4.111454    24A2     4.111454  
      61A1     4.203220    62A1     4.216792    25A2     4.216792  
      39B1     4.248818    39B2     4.248818    40B1     4.338963  
      40B2     4.338963    41B2     4.339636    41B1     4.339636  
      42B2     4.439836    42B1     4.439836    63A1     4.471687  
      64A1     4.516775    26A2     4.516775    65A1     4.615888  
      43B1     4.652992    43B2     4.652992    66A1     4.666223  
      27A2     4.666223    44B2     4.744606    44B1     4.744606  
      67A1     4.801633    28A2     4.801633    45B1     4.832736  
      45B2     4.832736    68A1     4.852741    29A2     5.017570  
      69A1     5.017570    70A1     5.133937    71A1     5.159835  
      30A2     5.159835    46B1     5.185743    46B2     5.185743  
      47B2     5.215906    47B1     5.215906    72A1     5.468384  
      48B2     5.528274    48B1     5.528274    73A1     5.688153  
      49B2     5.960657    49B1     5.960657    31A2     6.091799  
      74A1     6.091799    50B2     6.626533    50B1     6.626533  
      75A1     6.808950    76A1     7.139659    32A2     7.139659  
      51B2     7.194700    51B1     7.194700    52B1     7.622241  
      52B2     7.622241    77A1     7.721699    33A2     7.871016  
      78A1     7.871016    53B2     7.900220    53B1     7.900220  
      79A1     8.128696    34A2     8.299201    80A1     8.299201  
      81A1     8.320188    54B2     8.335749    54B1     8.335749  
      82A1     8.475734    35A2     8.475734    36A2     8.525251  
      83A1     8.525251    55B1     8.550859    55B2     8.550859  
      37A2     8.681312    84A1     8.681312    56B2     8.863157  
      56B1     8.863157    57B1     8.914033    57B2     8.914033  
      38A2     8.949853    85A1     8.949853    58B1     9.027107  
      58B2     9.027107    86A1     9.089230    87A1     9.146964  
      39A2     9.146964    59B1     9.221511    59B2     9.221511  
      60B2     9.271233    60B1     9.271233    88A1     9.372335  
      40A2     9.488340    89A1     9.488340    61B2     9.532677  
      61B1     9.532677    62B1     9.783214    62B2     9.783214  
      90A1    10.039008    41A2    10.039008    91A1    10.120847  
      92A1    10.252162    93A1    10.378253    42A2    10.378253  
      63B2    10.398695    63B1    10.398695    43A2    10.592122  
      94A1    10.592122    95A1    10.627521    64B2    10.846961  
      64B1    10.846961    65B2    11.177011    65B1    11.177011  
      96A1    11.233330    44A2    11.233330    97A1    11.343092  
      66B2    11.364999    66B1    11.364999    98A1    12.475741  
      67B2    12.657334    67B1    12.657334    68B2    13.411789  
      68B1    13.411789    99A1    14.337465   100A1    16.084842  
      69B2    17.167917    69B1    17.167917    45A2    17.297379  
     101A1    17.297379    70B1    17.475974    70B2    17.475974  
      46A2    17.985279   102A1    17.985279   103A1    18.703882  
      71B2    18.725987    71B1    18.725987    47A2    19.961872  
     104A1    19.961872    72B1    20.390946    72B2    20.390946  
      48A2    21.113484   105A1    21.113484    73B2    21.199847  
      73B1    21.199847   106A1    21.485006   107A1    22.388820  
      49A2    22.773013   108A1    22.773013    74B1    23.731396  
      74B2    23.731396   109A1    24.178861    50A2    24.229698  
     110A1    24.229698    75B2    24.252155    75B1    24.252155  
      76B2    24.860440    76B1    24.860440   111A1    25.160404  
      77B2    29.940074    77B1    29.940074   112A1    30.397236  
      51A2    30.397236    78B2    30.968843    78B1    30.968843  
     113A1    31.270317   114A1    34.136816    79B2    34.380360  
      79B1    34.380360   115A1    36.782127   116A1   247.235582  

    Final Occupation by Irrep:
             A1    A2    B1    B2 
    DOCC [     5,    0,    1,    1 ]
    SOCC [     0,    0,    1,    1 ]

  Energy converged.

  @UHF Final Energy:  -397.77374005913504

   => Energetics <=

    Nuclear Repulsion Energy =              6.2394758042024119
    One-Electron Energy =                -556.0353722542096193
    Two-Electron Energy =                 152.0221563908721407
    Total Energy =                       -397.7737400591350934


  UHF NO Occupations:
  HONO-2 :    5 A1 1.9898322
  HONO-1 :    2 B1 1.0000000
  HONO-0 :    2 B2 1.0000000
  LUNO+0 :    6 A1 0.0101678
  LUNO+1 :    7 A1 0.0010966
  LUNO+2 :    3 B1 0.0000065
  LUNO+3 :    3 B2 0.0000065



Properties will be evaluated at   0.000000,   0.000000,   0.000000 Bohr

Properties computed using the SCF density matrix

  Nuclear Dipole Moment: (a.u.)
     X:     0.0000      Y:     0.0000      Z:     1.2322

  Electronic Dipole Moment: (a.u.)
     X:     0.0000      Y:     0.0000      Z:    -0.7093

  Dipole Moment: (a.u.)
     X:     0.0000      Y:     0.0000      Z:     0.5228     Total:     0.5228

  Dipole Moment: (Debye)
     X:     0.0000      Y:     0.0000      Z:     1.3288     Total:     1.3288


*** tstop() called on n412-050.vsc4.prov at Sat Oct 31 16:53:13 2020
Module time:
	user time   =     672.60 seconds =      11.21 minutes
	system time =      53.07 seconds =       0.88 minutes
	total time  =        643 seconds =      10.72 minutes
Total time:
	user time   =     672.60 seconds =      11.21 minutes
	system time =      53.07 seconds =       0.88 minutes
	total time  =        643 seconds =      10.72 minutes

*** tstart() called on n412-050.vsc4.prov
*** at Sat Oct 31 16:53:13 2020


	Wfn Parameters:
	--------------------
	Wavefunction         = CCSD
	Number of irreps     = 4
	Number of MOs        = 325
	Number of active MOs = 320
	AO-Basis             = NONE
	Semicanonical        = false
	Reference            = UHF
	Print Level          = 1

	IRREP	# MOs	# FZDC	# DOCC	# SOCC	# VIRT	# FZVR
	-----	-----	------	------	------	------	------
	 A1	   116	    3	    2	    0	    111	    0
	 A2	   51	    0	    0	    0	    51	    0
	 B1	   79	    1	    0	    1	    77	    0
	 B2	   79	    1	    0	    1	    77	    0
	Transforming integrals...
	IWL integrals will be deleted.
	(OO|OO)...
	Presorting SO-basis two-electron integrals.
	Sorting File: SO Ints (nn|nn) nbuckets = 1
	Transforming the one-electron integrals and constructing Fock matrices
	Starting AA/AB first half-transformation.
	Sorting AA/AB half-transformed integrals.
	Starting BB first half-transformation.
	Sorting BB half-transformed integrals.
	First half integral transformation complete.
	Starting AA second half-transformation.
	Starting AB second half-transformation.
	Starting BB second half-transformation.
	Two-electron integral transformation complete.
	(OO|OV)...
	Starting AA second half-transformation.
	Starting AB second half-transformation.
	Starting BB second half-transformation.
	Two-electron integral transformation complete.
	(OO|VV)...
	Starting AA second half-transformation.
	Starting AB second half-transformation.
	Starting BB second half-transformation.
	Two-electron integral transformation complete.
	(OV|OO)...
	Starting AA/AB first half-transformation.
	Sorting AA/AB half-transformed integrals.
	Starting BB first half-transformation.
	Sorting BB half-transformed integrals.
	First half integral transformation complete.
	Starting AA second half-transformation.
	Starting AB second half-transformation.
	Starting BB second half-transformation.
	Two-electron integral transformation complete.
	(OV|OV)...
	Starting AA second half-transformation.
	Starting AB second half-transformation.
	Starting BB second half-transformation.
	Two-electron integral transformation complete.
	(OV|VV)...
	Starting AA second half-transformation.
	Starting AB second half-transformation.
	Starting BB second half-transformation.
	Two-electron integral transformation complete.
	(VV|OO)...
	Starting AA/AB first half-transformation.
	Sorting AA/AB half-transformed integrals.
	Starting BB first half-transformation.
	Sorting BB half-transformed integrals.
	First half integral transformation complete.
	Starting AA second half-transformation.
	Starting AB second half-transformation.
	Starting BB second half-transformation.
	Two-electron integral transformation complete.
	(VV|OV)...
	Starting AA second half-transformation.
	Starting AB second half-transformation.
	Starting BB second half-transformation.
	Two-electron integral transformation complete.
	(VV|VV)...
	Starting AA second half-transformation.
	Starting AB second half-transformation.
	Starting BB second half-transformation.
	Two-electron integral transformation complete.
	Frozen core energy     =   -391.45362577491051

	Size of irrep 0 of <AB|CD> integrals:    175.086 (MW) /   1400.687 (MB)
	Size of irrep 1 of <AB|CD> integrals:    134.328 (MW) /   1074.625 (MB)
	Size of irrep 2 of <AB|CD> integrals:    155.601 (MW) /   1244.805 (MB)
	Size of irrep 3 of <AB|CD> integrals:    155.601 (MW) /   1244.805 (MB)
	Total:                                   620.615 (MW) /   4964.922 (MB)

	Size of irrep 0 of <ab|cd> integrals:    179.185 (MW) /   1433.480 (MB)
	Size of irrep 1 of <ab|cd> integrals:    137.945 (MW) /   1103.560 (MB)
	Size of irrep 2 of <ab|cd> integrals:    159.668 (MW) /   1277.348 (MB)
	Size of irrep 3 of <ab|cd> integrals:    159.668 (MW) /   1277.348 (MB)
	Total:                                   636.467 (MW) /   5091.736 (MB)

	Size of irrep 0 of <Ab|Cd> integrals:    725.440 (MW) /   5803.523 (MB)
	Size of irrep 1 of <Ab|Cd> integrals:    544.476 (MW) /   4355.804 (MB)
	Size of irrep 2 of <Ab|Cd> integrals:    630.512 (MW) /   5044.097 (MB)
	Size of irrep 3 of <Ab|Cd> integrals:    630.512 (MW) /   5044.097 (MB)
	Total:                                  2530.940 (MW) /  20247.521 (MB)

	Size of irrep 0 of <IA|BC> integrals:     10.069 (MW) /     80.554 (MB)
	Size of irrep 1 of <IA|BC> integrals:      5.934 (MW) /     47.473 (MB)
	Size of irrep 2 of <IA|BC> integrals:      7.884 (MW) /     63.069 (MB)
	Size of irrep 3 of <IA|BC> integrals:      7.884 (MW) /     63.069 (MB)
	Total:                                    31.770 (MW) /    254.164 (MB)

	Size of irrep 0 of <ia|bc> integrals:      6.014 (MW) /     48.112 (MB)
	Size of irrep 1 of <ia|bc> integrals:      2.396 (MW) /     19.168 (MB)
	Size of irrep 2 of <ia|bc> integrals:      3.942 (MW) /     31.539 (MB)
	Size of irrep 3 of <ia|bc> integrals:      3.942 (MW) /     31.539 (MB)
	Total:                                    16.295 (MW) /    130.359 (MB)

	Size of irrep 0 of <Ia|Bc> integrals:     10.181 (MW) /     81.448 (MB)
	Size of irrep 1 of <Ia|Bc> integrals:      6.020 (MW) /     48.161 (MB)
	Size of irrep 2 of <Ia|Bc> integrals:      7.985 (MW) /     63.880 (MB)
	Size of irrep 3 of <Ia|Bc> integrals:      7.985 (MW) /     63.880 (MB)
	Total:                                    32.171 (MW) /    257.369 (MB)

	Size of irrep 0 of <iA|bC> integrals:      5.979 (MW) /     47.835 (MB)
	Size of irrep 1 of <iA|bC> integrals:      2.380 (MW) /     19.041 (MB)
	Size of irrep 2 of <iA|bC> integrals:      3.867 (MW) /     30.936 (MB)
	Size of irrep 3 of <iA|bC> integrals:      3.867 (MW) /     30.936 (MB)
	Total:                                    16.093 (MW) /    128.746 (MB)

	Size of irrep 0 of tIjAb amplitudes:       0.108 (MW) /      0.862 (MB)
	Size of irrep 1 of tIjAb amplitudes:       0.000 (MW) /      0.000 (MB)
	Size of irrep 2 of tIjAb amplitudes:       0.050 (MW) /      0.402 (MB)
	Size of irrep 3 of tIjAb amplitudes:       0.050 (MW) /      0.402 (MB)
	Total:                                     0.208 (MW) /      1.665 (MB)

	Nuclear Rep. energy          =      6.23947580420241
	SCF energy                   =   -397.77374005913504
	One-electron energy          =    -19.11157026322247
	Two-electron (AA) energy     =      2.38387590996790
	Two-electron (BB) energy     =      0.34976794417532
	Two-electron (AB) energy     =      3.81833632065304
	Two-electron energy          =      6.55198017479626
	Reference energy             =   -397.77374005913430

*** tstop() called on n412-050.vsc4.prov at Sat Oct 31 17:06:15 2020
Module time:
	user time   =    3286.45 seconds =      54.77 minutes
	system time =     214.15 seconds =       3.57 minutes
	total time  =        782 seconds =      13.03 minutes
Total time:
	user time   =    3959.07 seconds =      65.98 minutes
	system time =     267.22 seconds =       4.45 minutes
	total time  =       1425 seconds =      23.75 minutes

*** tstart() called on n412-050.vsc4.prov
*** at Sat Oct 31 17:06:15 2020

            **************************
            *                        *
            *        CCENERGY        *
            *                        *
            **************************

    Nuclear Rep. energy (wfn)     =    6.239475804202412
    SCF energy          (wfn)     = -397.773740059135037
    Reference energy    (file100) = -397.773740059134298

    Input parameters:
    -----------------
    Wave function   =     CCSD
    Reference wfn   =     UHF
    Brueckner       =     No
    Memory (Mbytes) =     250000.0
    Maxiter         =     50
    R_Convergence   =     1.0e-07
    E_Convergence   =     1.0e-06
    Restart         =     Yes
    DIIS            =     Yes
    AO Basis        =     NONE
    ABCD            =     NEW
    Cache Level     =     2
    Cache Type      =     LRU
    Print Level     =     1
    Num. of threads =     48
    # Amps to Print =     10
    Print MP2 Amps? =     No
    Analyze T2 Amps =     No
    Print Pair Ener =     No
    Local CC        =     No
    SCS-MP2         =     False
    SCSN-MP2        =     False
    SCS-CCSD        =     False

MP2 correlation energy -0.1307591286241881
                Solving CC Amplitude Equations
                ------------------------------
  Iter             Energy              RMS        T1Diag      D1Diag    New D1Diag    D2Diag
  ----     ---------------------    ---------   ----------  ----------  ----------   --------
     0        -0.130759128624188    0.000e+00    0.000000    0.000000    0.000000    0.000000
     1        -0.144752402736777    4.837e-02    0.011072    0.000000    0.000000    0.000000
     2        -0.151621993766431    1.923e-02    0.018040    0.000000    0.000000    0.000000
     3        -0.151827033455370    5.090e-03    0.020402    0.000000    0.000000    0.000000
     4        -0.151864672402649    1.475e-03    0.020952    0.000000    0.000000    0.000000
     5        -0.151865925230967    5.103e-04    0.021087    0.000000    0.000000    0.000000
     6        -0.151861469856069    1.649e-04    0.021113    0.000000    0.000000    0.000000
     7        -0.151863219580822    5.179e-05    0.021117    0.000000    0.000000    0.000000
     8        -0.151863744972414    1.406e-05    0.021119    0.000000    0.000000    0.000000
     9        -0.151863418373739    5.738e-06    0.021119    0.000000    0.000000    0.000000
    10        -0.151863422614568    2.504e-06    0.021120    0.000000    0.000000    0.000000
    11        -0.151863421011046    9.877e-07    0.021120    0.000000    0.000000    0.000000
    12        -0.151863452491713    2.811e-07    0.021120    0.000000    0.000000    0.000000
    13        -0.151863452290653    8.662e-08    0.021120    0.000000    0.000000    0.000000
    13        -0.151863452290653    8.662e-08    0.021120    0.000000    0.000000    0.000000

    Iterations converged.


    CCSD corr. energy   =   -0.151863452290653
    PPL corr. energy    =    0.046436099045892
    OS PPL corr. energy =    0.040027229257963
    SS PPL corr. energy =    0.006408869787929
    Largest TIA Amplitudes:
              1   1         0.0123649862
              1   0        -0.0100796448
              1  19         0.0085066723
              0   1        -0.0077955803
              1  11         0.0077496215
              1   7        -0.0051683274
              1   8         0.0050473197
              0  11        -0.0047948894
              3 240        -0.0046417405
              2 163        -0.0046417387

    Largest Tia Amplitudes:
              0   1        -0.0239316205
              0   0         0.0176557715
              0   5         0.0122099121
              1   1        -0.0121461601
              0  11        -0.0098448876
              1   5         0.0089337297
              0   6         0.0086782044
              1   0         0.0085716986
              0   7         0.0076021020
              1  11        -0.0067108788

    Largest TIJAB Amplitudes:
      3   2 112   9        -0.0275970751
      3   2 111   9        -0.0230863841
      3   2 112   4        -0.0230863841
      3   1 243   1         0.0213587069
      2   1 166   1         0.0213587065
      3   2 111   4        -0.0202299523
      3   1 240   1        -0.0188434739
      2   1 163   1        -0.0188434733
      2   1 166   0        -0.0173255442
      3   1 243   0        -0.0173255439

    Largest Tijab Amplitudes:
      1   0 245 240         0.0136860819
      1   0 167 162         0.0136860813
      1   0 242 240        -0.0094094153
      1   0 164 162        -0.0094094149
      1   0 251 240        -0.0070627065
      1   0 173 162        -0.0070627062
      1   0 253 240        -0.0048086014
      1   0 175 162        -0.0048086013
      1   0 248 240        -0.0047909803
      1   0 170 162        -0.0047909802

    Largest TIjAb Amplitudes:
      1   1   0   1         0.0484377327
      1   1   1   1        -0.0471123658
      3   0   9 240         0.0402963003
      2   0 112 240        -0.0402962987
      3   0 112 162        -0.0402962983
      2   0   9 162        -0.0402962967
      1   1   0   0        -0.0334481904
      3   0   4 240         0.0329565239
      2   0 111 240        -0.0329565222
      3   0 111 162        -0.0329565221

    SCF energy       (wfn)                    = -397.773740059135037
    Reference energy (file100)                = -397.773740059134298

    Opposite-spin MP2 correlation energy      =   -0.104449912956563
    Same-spin MP2 correlation energy          =   -0.026309215667617
    MP2 correlation energy                    =   -0.130759128624188
      * MP2 total energy                      = -397.904499187758461

    Opposite-spin CCSD correlation energy     =   -0.123761240417991
    Same-spin CCSD correlation energy         =   -0.028102213197538
    CCSD correlation energy                   =   -0.151863452290653
      * CCSD total energy                     = -397.925603511424924


*** tstop() called on n412-050.vsc4.prov at Sat Oct 31 17:19:02 2020
Module time:
	user time   =    3927.08 seconds =      65.45 minutes
	system time =     299.65 seconds =       4.99 minutes
	total time  =        767 seconds =      12.78 minutes
Total time:
	user time   =    7886.20 seconds =     131.44 minutes
	system time =     566.87 seconds =       9.45 minutes
	total time  =       2192 seconds =      36.53 minutes

*** Psi4 exiting successfully. Buy a developer a beer!
