
    -----------------------------------------------------------------------
          Psi4: An Open-Source Ab Initio Electronic Structure Package
                               Psi4 1.2a1.dev938 

                         Git: Rev {HEAD} fc51d9a dirty


    R. M. Parrish, L. A. Burns, D. G. A. Smith, A. C. Simmonett,
    A. E. DePrince III, E. G. Hohenstein, U. Bozkaya, A. Yu. Sokolov,
    R. Di Remigio, R. M. Richard, J. F. Gonthier, A. M. James,
    H. R. McAlexander, A. Kumar, M. Saitow, X. Wang, B. P. Pritchard,
    P. Verma, H. F. Schaefer III, K. Patkowski, R. A. King, E. F. Valeev,
    F. A. Evangelista, J. M. Turney, T. D. Crawford, and C. D. Sherrill,
    J. Chem. Theory Comput. 13(7) pp 3185--3197 (2017).
    (doi: 10.1021/acs.jctc.7b00174)

    -----------------------------------------------------------------------


    Psi4 started on: Thursday, 20 August 2020 07:55PM

    Process ID: 422849
    PSIDATADIR: /home/irmler/Programs/psi4/beforeGrueneis3/stage/usr/local/psi4/share/psi4
    Memory:     500.0 MiB
    Threads:    4
    
  ==> Input File <==

--------------------------------------------------------------------------
# Any line starting with the # character is a comment line
memory 250000 mb
molecule molecule{
1 3
S          0.0000000000        0.0000000000       -0.0413619065
H          0.0000000000        0.0000000000        1.3156167249
}

set {
  reference uhf
  basis aug-cc-pv(d+d)z
  scf_type OUT_OF_CORE
  freeze_core true
}

energy('ccsd')
--------------------------------------------------------------------------

  Memory set to 232.831 GiB by Python driver.

*** tstart() called on cqc05
*** at Thu Aug 20 19:55:38 2020

   => Loading Basis Set <=

    Name: AUG-CC-PV(D+D)Z
    Role: ORBITAL
    Keyword: BASIS
    atoms 1 entry S          line   724 file /home/irmler/Programs/psi4/beforeGrueneis3/stage/usr/local/psi4/share/psi4/basis/aug-cc-pv_dpd_z.gbs 
    atoms 2 entry H          line    56 file /home/irmler/Programs/psi4/beforeGrueneis3/stage/usr/local/psi4/share/psi4/basis/aug-cc-pv_dpd_z.gbs 


         ---------------------------------------------------------
                                   SCF
            by Justin Turney, Rob Parrish, Andy Simmonett
                             and Daniel Smith
                              UHF Reference
                        4 Threads, 238418 MiB Core
         ---------------------------------------------------------

  ==> Geometry <==

    Molecular point group: c2v
    Full point group: C_inf_v

    Geometry (in Angstrom), charge = 1, multiplicity = 3:

       Center              X                  Y                   Z               Mass       
    ------------   -----------------  -----------------  -----------------  -----------------
           S          0.000000000000     0.000000000000    -0.041467596848    31.972070999000
           H          0.000000000000     0.000000000000     1.315511034552     1.007825032070

  Running in c2v symmetry.

  Rotational constants: A = ************  B =      9.37009  C =      9.37009 [cm^-1]
  Rotational constants: A = ************  B = 280908.28667  C = 280908.28667 [MHz]
  Nuclear repulsion =    6.239475804202412

  Charge       = 1
  Multiplicity = 3
  Electrons    = 16
  Nalpha       = 9
  Nbeta        = 7

  ==> Algorithm <==

  SCF Algorithm Type is OUT_OF_CORE.
  DIIS enabled.
  MOM disabled.
  Fractional occupation disabled.
  Guess Type is GWH.
  Energy threshold   = 1.00e-08
  Density threshold  = 1.00e-08
  Integral threshold = 0.00e+00

  ==> Primary Basis <==

  Basis Set: AUG-CC-PV(D+D)Z
    Blend: AUG-CC-PV(D+D)Z
    Number of shells: 17
    Number of basis function: 41
    Number of Cartesian functions: 44
    Spherical Harmonics?: true
    Max angular momentum: 2

  ==> Pre-Iterations <==

   -------------------------------------------------------
    Irrep   Nso     Nmo     Nalpha   Nbeta   Ndocc  Nsocc
   -------------------------------------------------------
     A1        20      20       0       0       0       0
     A2         3       3       0       0       0       0
     B1         9       9       0       0       0       0
     B2         9       9       0       0       0       0
   -------------------------------------------------------
    Total      41      41       9       7       7       2
   -------------------------------------------------------

  ==> Integral Setup <==

  ==> DiskJK: Disk-Based J/K Matrices <==

    J tasked:                  Yes
    K tasked:                  Yes
    wK tasked:                  No
    Memory (MB):            178813
    Schwarz Cutoff:          1E-12

  Minimum eigenvalue in the overlap matrix is 1.3655944742E-03.
  Using Symmetric Orthogonalization.

  SCF Guess: Generalized Wolfsberg-Helmholtz.

  ==> Iterations <==

                        Total Energy        Delta E     RMS |[F,P]|

   @UHF iter   1:  -381.22944708751942   -3.81229e+02   3.18279e-01 
   @UHF iter   2:  -395.03382591766371   -1.38044e+01   1.35403e-01 DIIS
   @UHF iter   3:  -397.72477069021744   -2.69094e+00   1.16364e-02 DIIS
   @UHF iter   4:  -397.75399870247304   -2.92280e-02   3.20314e-03 DIIS
   @UHF iter   5:  -397.75642158494253   -2.42288e-03   1.13592e-03 DIIS
   @UHF iter   6:  -397.75692429801859   -5.02713e-04   3.86161e-04 DIIS
   @UHF iter   7:  -397.75698118880968   -5.68908e-05   7.88006e-05 DIIS
   @UHF iter   8:  -397.75698358002592   -2.39122e-06   1.70653e-05 DIIS
   @UHF iter   9:  -397.75698369773016   -1.17704e-07   6.34097e-06 DIIS
   @UHF iter  10:  -397.75698372658502   -2.88549e-08   2.96619e-06 DIIS
   @UHF iter  11:  -397.75698373487842   -8.29340e-09   9.41112e-07 DIIS
   @UHF iter  12:  -397.75698373562142   -7.43000e-10   9.58719e-08 DIIS
   @UHF iter  13:  -397.75698373562676   -5.34328e-12   2.42101e-08 DIIS
   @UHF iter  14:  -397.75698373562739   -6.25278e-13   4.10493e-09 DIIS

  ==> Post-Iterations <==

   @Spin Contamination Metric:   1.998653833E-02
   @S^2 Expected:                2.000000000E+00
   @S^2 Observed:                2.019986538E+00
   @S   Expected:                1.000000000E+00
   @S   Observed:                1.000000000E+00

    Orbital Energies (a.u.)
    -----------------------

    Alpha Occupied:                                                       

       1A1   -92.408058     2A1    -9.403886     1B1    -7.096447  
       1B2    -7.096447     3A1    -7.075883     4A1    -1.390775  
       5A1    -0.899879     2B2    -0.834357     2B1    -0.834357  

    Alpha Virtual:                                                        

       6A1    -0.148711     7A1    -0.091211     3B2    -0.065967  
       3B1    -0.065967     8A1    -0.064834     9A1    -0.004504  
       4B1     0.018223     4B2     0.018223     1A2     0.039210  
      10A1     0.039210    11A1     0.191974     5B1     0.265192  
       5B2     0.265192    12A1     0.322212     6B2     0.485684  
       6B1     0.485684    13A1     0.519741    14A1     0.571912  
       2A2     0.672566    15A1     0.672566     7B1     0.717884  
       7B2     0.717884    16A1     0.859856    17A1     1.208946  
       8B2     1.529554     8B1     1.529554    18A1     2.001578  
       3A2     4.614754    19A1     4.614754     9B1     4.676703  
       9B2     4.676703    20A1     4.765535  

    Beta Occupied:                                                        

       1A1   -92.387618     2A1    -9.381544     3A1    -7.064408  
       1B1    -7.045688     1B2    -7.045688     4A1    -1.191025  
       5A1    -0.858892  

    Beta Virtual:                                                         

       2B2    -0.303358     2B1    -0.303358     6A1    -0.132856  
       7A1    -0.069516     8A1    -0.059527     3B2    -0.046237  
       3B1    -0.046237     9A1     0.004822     4B2     0.058370  
       4B1     0.058370     1A2     0.133841    10A1     0.133841  
      11A1     0.210922     5B1     0.289722     5B2     0.289722  
      12A1     0.335611    13A1     0.527729     6B1     0.568425  
       6B2     0.568425    14A1     0.591843     7B1     0.767599  
       7B2     0.767599     2A2     0.777425    15A1     0.777425  
      16A1     0.887702    17A1     1.241247     8B2     1.535688  
       8B1     1.535688    18A1     2.010443     3A2     4.636074  
      19A1     4.636074     9B1     4.689091     9B2     4.689091  
      20A1     4.775467  

    Final Occupation by Irrep:
             A1    A2    B1    B2 
    DOCC [     5,    0,    1,    1 ]
    SOCC [     0,    0,    1,    1 ]

  Energy converged.

  @UHF Final Energy:  -397.75698373562739

   => Energetics <=

    Nuclear Repulsion Energy =              6.2394758042024119
    One-Electron Energy =                -555.9779655445618118
    Two-Electron Energy =                 151.9815060047320685
    PCM Polarization Energy =               0.0000000000000000
    Total Energy =                       -397.7569837356273865

    Alert: EFP and PCM quantities not currently incorporated into SCF psivars.
  UHF NO Occupations:
  HONO-2 :    5 A1 1.9909059
  HONO-1 :    2 B2 1.0000000
  HONO-0 :    2 B1 1.0000000
  LUNO+0 :    6 A1 0.0090941
  LUNO+1 :    7 A1 0.0009390
  LUNO+2 :    3 B1 0.0000009
  LUNO+3 :    3 B2 0.0000009



Properties will be evaluated at   0.000000,   0.000000,   0.000000 Bohr

Properties computed using the SCF density matrix

  Nuclear Dipole Moment: (a.u.)
     X:     0.0000      Y:     0.0000      Z:     1.2322

  Electronic Dipole Moment: (a.u.)
     X:     0.0000      Y:     0.0000      Z:    -0.7016

  Dipole Moment: (a.u.)
     X:     0.0000      Y:     0.0000      Z:     0.5306     Total:     0.5306

  Dipole Moment: (Debye)
     X:     0.0000      Y:     0.0000      Z:     1.3486     Total:     1.3486


*** tstop() called on cqc05 at Thu Aug 20 19:55:38 2020
Module time:
	user time   =       0.46 seconds =       0.01 minutes
	system time =       0.01 seconds =       0.00 minutes
	total time  =          0 seconds =       0.00 minutes
Total time:
	user time   =       0.46 seconds =       0.01 minutes
	system time =       0.01 seconds =       0.00 minutes
	total time  =          0 seconds =       0.00 minutes

*** tstart() called on cqc05
*** at Thu Aug 20 19:55:38 2020


	Wfn Parameters:
	--------------------
	Wavefunction         = CCSD
	Number of irreps     = 4
	Number of MOs        = 41
	Number of active MOs = 36
	AO-Basis             = NONE
	Semicanonical        = false
	Reference            = UHF
	Print Level          = 1

	IRREP	# MOs	# FZDC	# DOCC	# SOCC	# VIRT	# FZVR
	-----	-----	------	------	------	------	------
	 A1	   20	    3	    2	    0	    15	    0
	 A2	   3	    0	    0	    0	    3	    0
	 B1	   9	    1	    0	    1	    7	    0
	 B2	   9	    1	    0	    1	    7	    0
	Transforming integrals...
	IWL integrals will be deleted.
	(OO|OO)...
	Presorting SO-basis two-electron integrals.
	Sorting File: SO Ints (nn|nn) nbuckets = 1
	Transforming the one-electron integrals and constructing Fock matrices
	Starting AA/AB first half-transformation.
	Sorting AA/AB half-transformed integrals.
	Starting BB first half-transformation.
	Sorting BB half-transformed integrals.
	First half integral transformation complete.
	Starting AA second half-transformation.
	Starting AB second half-transformation.
	Starting BB second half-transformation.
	Two-electron integral transformation complete.
	(OO|OV)...
	Starting AA second half-transformation.
	Starting AB second half-transformation.
	Starting BB second half-transformation.
	Two-electron integral transformation complete.
	(OO|VV)...
	Starting AA second half-transformation.
	Starting AB second half-transformation.
	Starting BB second half-transformation.
	Two-electron integral transformation complete.
	(OV|OO)...
	Starting AA/AB first half-transformation.
	Sorting AA/AB half-transformed integrals.
	Starting BB first half-transformation.
	Sorting BB half-transformed integrals.
	First half integral transformation complete.
	Starting AA second half-transformation.
	Starting AB second half-transformation.
	Starting BB second half-transformation.
	Two-electron integral transformation complete.
	(OV|OV)...
	Starting AA second half-transformation.
	Starting AB second half-transformation.
	Starting BB second half-transformation.
	Two-electron integral transformation complete.
	(OV|VV)...
	Starting AA second half-transformation.
	Starting AB second half-transformation.
	Starting BB second half-transformation.
	Two-electron integral transformation complete.
	(VV|OO)...
	Starting AA/AB first half-transformation.
	Sorting AA/AB half-transformed integrals.
	Starting BB first half-transformation.
	Sorting BB half-transformed integrals.
	First half integral transformation complete.
	Starting AA second half-transformation.
	Starting AB second half-transformation.
	Starting BB second half-transformation.
	Two-electron integral transformation complete.
	(VV|OV)...
	Starting AA second half-transformation.
	Starting AB second half-transformation.
	Starting BB second half-transformation.
	Two-electron integral transformation complete.
	(VV|VV)...
	Starting AA second half-transformation.
	Starting AB second half-transformation.
	Starting BB second half-transformation.
	Two-electron integral transformation complete.
	Frozen core energy     =   -391.44556539161840

	Size of irrep 0 of <AB|CD> integrals:      0.022 (MW) /      0.180 (MB)
	Size of irrep 1 of <AB|CD> integrals:      0.009 (MW) /      0.071 (MB)
	Size of irrep 2 of <AB|CD> integrals:      0.016 (MW) /      0.127 (MB)
	Size of irrep 3 of <AB|CD> integrals:      0.016 (MW) /      0.127 (MB)
	Total:                                     0.063 (MW) /      0.505 (MB)

	Size of irrep 0 of <ab|cd> integrals:      0.027 (MW) /      0.215 (MB)
	Size of irrep 1 of <ab|cd> integrals:      0.012 (MW) /      0.095 (MB)
	Size of irrep 2 of <ab|cd> integrals:      0.021 (MW) /      0.166 (MB)
	Size of irrep 3 of <ab|cd> integrals:      0.021 (MW) /      0.166 (MB)
	Total:                                     0.080 (MW) /      0.642 (MB)

	Size of irrep 0 of <Ab|Cd> integrals:      0.120 (MW) /      0.958 (MB)
	Size of irrep 1 of <Ab|Cd> integrals:      0.041 (MW) /      0.326 (MB)
	Size of irrep 2 of <Ab|Cd> integrals:      0.073 (MW) /      0.583 (MB)
	Size of irrep 3 of <Ab|Cd> integrals:      0.073 (MW) /      0.583 (MB)
	Total:                                     0.306 (MW) /      2.451 (MB)

	Size of irrep 0 of <IA|BC> integrals:      0.015 (MW) /      0.117 (MB)
	Size of irrep 1 of <IA|BC> integrals:      0.004 (MW) /      0.030 (MB)
	Size of irrep 2 of <IA|BC> integrals:      0.008 (MW) /      0.065 (MB)
	Size of irrep 3 of <IA|BC> integrals:      0.008 (MW) /      0.065 (MB)
	Total:                                     0.034 (MW) /      0.276 (MB)

	Size of irrep 0 of <ia|bc> integrals:      0.011 (MW) /      0.087 (MB)
	Size of irrep 1 of <ia|bc> integrals:      0.001 (MW) /      0.010 (MB)
	Size of irrep 2 of <ia|bc> integrals:      0.005 (MW) /      0.037 (MB)
	Size of irrep 3 of <ia|bc> integrals:      0.005 (MW) /      0.037 (MB)
	Total:                                     0.021 (MW) /      0.171 (MB)

	Size of irrep 0 of <Ia|Bc> integrals:      0.016 (MW) /      0.127 (MB)
	Size of irrep 1 of <Ia|Bc> integrals:      0.004 (MW) /      0.036 (MB)
	Size of irrep 2 of <Ia|Bc> integrals:      0.009 (MW) /      0.073 (MB)
	Size of irrep 3 of <Ia|Bc> integrals:      0.009 (MW) /      0.073 (MB)
	Total:                                     0.039 (MW) /      0.310 (MB)

	Size of irrep 0 of <iA|bC> integrals:      0.010 (MW) /      0.083 (MB)
	Size of irrep 1 of <iA|bC> integrals:      0.001 (MW) /      0.010 (MB)
	Size of irrep 2 of <iA|bC> integrals:      0.004 (MW) /      0.030 (MB)
	Size of irrep 3 of <iA|bC> integrals:      0.004 (MW) /      0.030 (MB)
	Total:                                     0.019 (MW) /      0.153 (MB)

	Size of irrep 0 of tIjAb amplitudes:       0.001 (MW) /      0.011 (MB)
	Size of irrep 1 of tIjAb amplitudes:       0.000 (MW) /      0.000 (MB)
	Size of irrep 2 of tIjAb amplitudes:       0.001 (MW) /      0.004 (MB)
	Size of irrep 3 of tIjAb amplitudes:       0.001 (MW) /      0.004 (MB)
	Total:                                     0.002 (MW) /      0.020 (MB)

	Nuclear Rep. energy          =      6.23947580420241
	SCF energy                   =   -397.75698373562739
	One-electron energy          =    -19.09250221576847
	Two-electron (AA) energy     =      2.38104831722240
	Two-electron (BB) energy     =      0.34939069785601
	Two-electron (AB) energy     =      3.81116905247933
	Two-electron energy          =      6.54160806755774
	Reference energy             =   -397.75698373562670

*** tstop() called on cqc05 at Thu Aug 20 19:55:39 2020
Module time:
	user time   =       0.07 seconds =       0.00 minutes
	system time =       0.07 seconds =       0.00 minutes
	total time  =          1 seconds =       0.02 minutes
Total time:
	user time   =       0.53 seconds =       0.01 minutes
	system time =       0.08 seconds =       0.00 minutes
	total time  =          1 seconds =       0.02 minutes

*** tstart() called on cqc05
*** at Thu Aug 20 19:55:39 2020

            **************************
            *                        *
            *        CCENERGY        *
            *                        *
            **************************

    Nuclear Rep. energy (wfn)     =    6.239475804202412
    SCF energy          (wfn)     = -397.756983735627387
    Reference energy    (file100) = -397.756983735626704

    Input parameters:
    -----------------
    Wave function   =     CCSD
    Reference wfn   =     UHF
    Brueckner       =     No
    Memory (Mbytes) =     250000.0
    Maxiter         =     50
    R_Convergence   =     1.0e-07
    E_Convergence   =     1.0e-06
    Restart         =     Yes
    DIIS            =     Yes
    AO Basis        =     NONE
    ABCD            =     NEW
    Cache Level     =     2
    Cache Type      =     LRU
    Print Level     =     1
    Num. of threads =     4
    # Amps to Print =     10
    Print MP2 Amps? =     No
    Analyze T2 Amps =     No
    Print Pair Ener =     No
    Local CC        =     No
    SCS-MP2         =     False
    SCSN-MP2        =     False
    SCS-CCSD        =     False

MP2 correlation energy -0.0918053337968246
                Solving CC Amplitude Equations
                ------------------------------
  Iter             Energy              RMS        T1Diag      D1Diag    New D1Diag    D2Diag
  ----     ---------------------    ---------   ----------  ----------  ----------   --------
     0        -0.091805333796825    0.000e+00    0.000000    0.000000    0.000000    0.000000
     1        -0.109450370394532    4.980e-02    0.009051    0.000000    0.000000    0.000000
     2        -0.116062679062512    1.973e-02    0.016104    0.000000    0.000000    0.000000
     3        -0.116507402091842    5.345e-03    0.018751    0.000000    0.000000    0.000000
     4        -0.116536446883281    1.173e-03    0.019100    0.000000    0.000000    0.000000
     5        -0.116533255659214    4.407e-04    0.019217    0.000000    0.000000    0.000000
     6        -0.116531646824649    1.202e-04    0.019225    0.000000    0.000000    0.000000
     7        -0.116533862336932    2.529e-05    0.019227    0.000000    0.000000    0.000000
     8        -0.116533387187439    7.335e-06    0.019226    0.000000    0.000000    0.000000
     9        -0.116533370724491    3.200e-06    0.019226    0.000000    0.000000    0.000000
    10        -0.116533361640654    1.506e-06    0.019225    0.000000    0.000000    0.000000
    11        -0.116533388029253    4.764e-07    0.019225    0.000000    0.000000    0.000000
    12        -0.116533375914326    1.469e-07    0.019225    0.000000    0.000000    0.000000
    13        -0.116533375848060    2.856e-08    0.019225    0.000000    0.000000    0.000000
    13        -0.116533375848060    2.856e-08    0.019225    0.000000    0.000000    0.000000

    Iterations converged.


    CCSD corr. energy   =   -0.116533375848060
    PPL corr. energy    =    0.029491163051737
    OS PPL corr. energy =    0.024965217141471
    SS PPL corr. energy =    0.004525945910267
    Largest TIA Amplitudes:
              1   1         0.0108960492
              1  10         0.0102409505
              1   5        -0.0102108557
              0   1         0.0066855905
              1   0        -0.0057761689
              2  19        -0.0053362501
              3  26        -0.0053362501
              1   8         0.0042788355
              0   5        -0.0041096976
              0   0        -0.0039343703

    Largest Tia Amplitudes:
              0   1        -0.0199764906
              1   1        -0.0144498273
              0   0         0.0140831428
              0   2        -0.0140185741
              0   5         0.0126696169
              1   0         0.0119854663
              1   2        -0.0106658863
              0  10        -0.0084270139
              0   7        -0.0064081740
              1   5         0.0057162611

    Largest TIJAB Amplitudes:
      3   2  15   4        -0.0419895565
      2   1  19   1        -0.0298394463
      3   1  26   1        -0.0298394463
      3   2  15   9        -0.0222961387
      3   2  16   4        -0.0222961387
      2   1  19   0         0.0211544040
      3   1  26   0         0.0211544040
      3   2  26  19        -0.0210951165
      3   2  16   9        -0.0186296240
      3   2  28  21        -0.0174986517

    Largest Tijab Amplitudes:
      1   0  20  18        -0.0149585463
      1   0  28  26        -0.0149585463
      1   0  23  18        -0.0092414175
      1   0  31  26        -0.0092414175
      1   0  21  18        -0.0060567535
      1   0  29  26        -0.0060567535
      1   0   5   0        -0.0057120285
      1   0   5   1         0.0044549667
      1   0  20  19        -0.0043855885
      1   0  28  27        -0.0043855885

    Largest TIjAb Amplitudes:
      2   0   4  18         0.0500403433
      2   0  15  26         0.0500403433
      3   0   4  26        -0.0500403433
      3   0  15  18         0.0500403433
      1   1   1   1        -0.0469689267
      1   1   0   1         0.0413787467
      1   1   1   2        -0.0402995755
      1   1   0   2         0.0373380105
      1   0  19  18         0.0365532147
      1   0  26  26         0.0365532147

    SCF energy       (wfn)                    = -397.756983735627387
    Reference energy (file100)                = -397.756983735626704

    Opposite-spin MP2 correlation energy      =   -0.071257356750701
    Same-spin MP2 correlation energy          =   -0.020547977046122
    MP2 correlation energy                    =   -0.091805333796825
      * MP2 total energy                      = -397.848789069423503

    Opposite-spin CCSD correlation energy     =   -0.094342224935299
    Same-spin CCSD correlation energy         =   -0.022191150749892
    CCSD correlation energy                   =   -0.116533375848060
      * CCSD total energy                     = -397.873517111474769


*** tstop() called on cqc05 at Thu Aug 20 19:55:40 2020
Module time:
	user time   =       0.24 seconds =       0.00 minutes
	system time =       0.19 seconds =       0.00 minutes
	total time  =          1 seconds =       0.02 minutes
Total time:
	user time   =       0.77 seconds =       0.01 minutes
	system time =       0.27 seconds =       0.00 minutes
	total time  =          2 seconds =       0.03 minutes

*** Psi4 exiting successfully. Buy a developer a beer!
