
    -----------------------------------------------------------------------
          Psi4: An Open-Source Ab Initio Electronic Structure Package
                               Psi4 1.2a1.dev939 

                         Git: Rev {HEAD} fa1ec19 


    R. M. Parrish, L. A. Burns, D. G. A. Smith, A. C. Simmonett,
    A. E. DePrince III, E. G. Hohenstein, U. Bozkaya, A. Yu. Sokolov,
    R. Di Remigio, R. M. Richard, J. F. Gonthier, A. M. James,
    H. R. McAlexander, A. Kumar, M. Saitow, X. Wang, B. P. Pritchard,
    P. Verma, H. F. Schaefer III, K. Patkowski, R. A. King, E. F. Valeev,
    F. A. Evangelista, J. M. Turney, T. D. Crawford, and C. D. Sherrill,
    J. Chem. Theory Comput. 13(7) pp 3185--3197 (2017).
    (doi: 10.1021/acs.jctc.7b00174)

    -----------------------------------------------------------------------


    Psi4 started on: Friday, 26 April 2019 06:25PM

    Process ID:  29116
    PSIDATADIR: /home/grueneis/src/psi4/objdir/stage/usr/local/psi4/share/psi4
    Memory:     500.0 MiB
    Threads:    1
    
  ==> Input File <==

--------------------------------------------------------------------------
# Any line starting with the # character is a comment line

memory 32000 mb

molecule molecule {
0 1
O          0.0000000000        0.0000000000       -0.4883910965
C          0.0000000000        0.0000000000        0.6505673556
}

set {
  reference rhf
  basis aug-cc-pv(T+d)z
  scf_type OUT_OF_CORE
  freeze_core true
}

energy('ccsd')
--------------------------------------------------------------------------

  Memory set to  29.802 GiB by Python driver.

*** tstart() called on cqc01
*** at Fri Apr 26 18:25:52 2019

   => Loading Basis Set <=

    Name: AUG-CC-PV(T+D)Z
    Role: ORBITAL
    Keyword: BASIS
    atoms 1 entry O          line   347 file /home/grueneis/src/psi4/objdir/stage/usr/local/psi4/share/psi4/basis/aug-cc-pv_tpd_z.gbs 
    atoms 2 entry C          line   255 file /home/grueneis/src/psi4/objdir/stage/usr/local/psi4/share/psi4/basis/aug-cc-pv_tpd_z.gbs 


         ---------------------------------------------------------
                                   SCF
            by Justin Turney, Rob Parrish, Andy Simmonett
                             and Daniel Smith
                              RHF Reference
                        1 Threads,  30517 MiB Core
         ---------------------------------------------------------

  ==> Geometry <==

    Molecular point group: c2v
    Full point group: C_inf_v

    Geometry (in Angstrom), charge = 0, multiplicity = 1:

       Center              X                  Y                   Z               Mass       
    ------------   -----------------  -----------------  -----------------  -----------------
           O          0.000000000000     0.000000000000    -0.488213720632    15.994914619560
           C          0.000000000000     0.000000000000     0.650744731468    12.000000000000

  Running in c2v symmetry.

  Rotational constants: A = ************  B =      1.89538  C =      1.89538 [cm^-1]
  Rotational constants: A = ************  B =  56822.11667  C =  56822.11667 [MHz]
  Nuclear repulsion =   22.301521153372022

  Charge       = 0
  Multiplicity = 1
  Electrons    = 14
  Nalpha       = 7
  Nbeta        = 7

  ==> Algorithm <==

  SCF Algorithm Type is OUT_OF_CORE.
  DIIS enabled.
  MOM disabled.
  Fractional occupation disabled.
  Guess Type is SAD.
  Energy threshold   = 1.00e-08
  Density threshold  = 1.00e-08
  Integral threshold = 0.00e+00

  ==> Primary Basis <==

  Basis Set: AUG-CC-PV(T+D)Z
    Blend: AUG-CC-PV(T+D)Z
    Number of shells: 28
    Number of basis function: 92
    Number of Cartesian functions: 110
    Spherical Harmonics?: true
    Max angular momentum: 3

  ==> Pre-Iterations <==

   -------------------------------------------------------
    Irrep   Nso     Nmo     Nalpha   Nbeta   Ndocc  Nsocc
   -------------------------------------------------------
     A1        38      38       0       0       0       0
     A2        10      10       0       0       0       0
     B1        22      22       0       0       0       0
     B2        22      22       0       0       0       0
   -------------------------------------------------------
    Total      92      92       7       7       7       0
   -------------------------------------------------------

  ==> Integral Setup <==

  ==> DiskJK: Disk-Based J/K Matrices <==

    J tasked:                  Yes
    K tasked:                  Yes
    wK tasked:                  No
    Memory (MB):             22888
    Schwarz Cutoff:          1E-12

  Minimum eigenvalue in the overlap matrix is 4.8080839947E-04.
  Using Symmetric Orthogonalization.

  SCF Guess: Superposition of Atomic Densities via on-the-fly atomic UHF.

  ==> Iterations <==

                        Total Energy        Delta E     RMS |[F,P]|

   @RHF iter   0:  -112.86239969215478   -1.12862e+02   4.74421e-02 
   @RHF iter   1:  -112.72287839447002    1.39521e-01   6.87442e-03 
   @RHF iter   2:  -112.75474515355339   -3.18668e-02   4.70836e-03 DIIS
   @RHF iter   3:  -112.77711746778368   -2.23723e-02   1.42279e-03 DIIS
   @RHF iter   4:  -112.77967650209398   -2.55903e-03   3.25032e-04 DIIS
   @RHF iter   5:  -112.77987292817021   -1.96426e-04   7.06593e-05 DIIS
   @RHF iter   6:  -112.77988687568207   -1.39475e-05   1.79796e-05 DIIS
   @RHF iter   7:  -112.77988842498526   -1.54930e-06   7.32705e-06 DIIS
   @RHF iter   8:  -112.77988878735367   -3.62368e-07   2.10059e-06 DIIS
   @RHF iter   9:  -112.77988881011483   -2.27612e-08   2.06246e-07 DIIS
   @RHF iter  10:  -112.77988881026319   -1.48361e-10   3.13911e-08 DIIS
   @RHF iter  11:  -112.77988881026548   -2.28795e-12   3.76403e-09 DIIS

  ==> Post-Iterations <==

    Orbital Energies (a.u.)
    -----------------------

    Doubly Occupied:                                                      

       1A1   -20.668604     2A1   -11.366733     3A1    -1.515673  
       4A1    -0.803994     1B2    -0.635893     1B1    -0.635893  
       5A1    -0.556154  

    Virtual:                                                              

       6A1     0.069452     2B1     0.069711     2B2     0.069711  
       7A1     0.087602     3B1     0.150998     3B2     0.150998  
       8A1     0.185238     4B1     0.198106     4B2     0.198106  
       9A1     0.268922     1A2     0.296040    10A1     0.296040  
      11A1     0.392106     5B1     0.413099     5B2     0.413099  
      12A1     0.499909     6B2     0.508120     6B1     0.508120  
      13A1     0.669886     2A2     0.724926    14A1     0.724926  
      15A1     0.783473     7B2     0.841303     7B1     0.841303  
      16A1     1.004258     3A2     1.046771    17A1     1.046771  
       8B1     1.071973     8B2     1.071973     9B2     1.086585  
       9B1     1.086585    10B2     1.220485    10B1     1.220485  
      18A1     1.250425     4A2     1.274477    19A1     1.274477  
      20A1     1.381413    11B2     1.486042    11B1     1.486042  
      21A1     1.527895    12B1     2.141751    12B2     2.141751  
      22A1     2.178777     5A2     2.178777    13B2     2.321213  
      13B1     2.321213    23A1     2.354913    24A1     2.432233  
      14B2     2.563334    14B1     2.563334    25A1     2.577990  
       6A2     2.577990    26A1     2.673623    15B2     2.972304  
      15B1     2.972304    27A1     3.392754     7A2     3.392754  
      16B2     3.418477    16B1     3.418477    28A1     3.473699  
      17B1     3.619390    17B2     3.619390    29A1     3.734122  
       8A2     3.734122    18B2     3.978361    18B1     3.978361  
      30A1     4.011062    31A1     4.372317    19B2     5.204531  
      19B1     5.204531    32A1     5.309406    20B2     6.466889  
      20B1     6.466889    33A1     6.743020     9A2     6.743020  
      34A1     7.026091    10A2     7.026091    21B2     7.086366  
      21B1     7.086366    35A1     7.188746    22B2     7.430391  
      22B1     7.430391    36A1     7.596380    37A1    12.460430  
      38A1    15.031902  

    Final Occupation by Irrep:
             A1    A2    B1    B2 
    DOCC [     5,    0,    1,    1 ]

  Energy converged.

  @RHF Final Energy:  -112.77988881026548

   => Energetics <=

    Nuclear Repulsion Energy =             22.3015211533720219
    One-Electron Energy =                -197.7969318954700384
    Two-Electron Energy =                  62.7155219318325408
    Total Energy =                       -112.7798888102654757



Properties will be evaluated at   0.000000,   0.000000,   0.000000 Bohr

Properties computed using the SCF density matrix

  Nuclear Dipole Moment: (a.u.)
     X:     0.0000      Y:     0.0000      Z:    -0.0023

  Electronic Dipole Moment: (a.u.)
     X:     0.0000      Y:     0.0000      Z:     0.1283

  Dipole Moment: (a.u.)
     X:     0.0000      Y:     0.0000      Z:     0.1260     Total:     0.1260

  Dipole Moment: (Debye)
     X:     0.0000      Y:     0.0000      Z:     0.3202     Total:     0.3202


*** tstop() called on cqc01 at Fri Apr 26 18:25:55 2019
Module time:
	user time   =       1.59 seconds =       0.03 minutes
	system time =       1.01 seconds =       0.02 minutes
	total time  =          3 seconds =       0.05 minutes
Total time:
	user time   =       1.59 seconds =       0.03 minutes
	system time =       1.01 seconds =       0.02 minutes
	total time  =          3 seconds =       0.05 minutes

*** tstart() called on cqc01
*** at Fri Apr 26 18:25:55 2019


	Wfn Parameters:
	--------------------
	Wavefunction         = CCSD
	Number of irreps     = 4
	Number of MOs        = 92
	Number of active MOs = 90
	AO-Basis             = NONE
	Semicanonical        = false
	Reference            = RHF
	Print Level          = 1

	IRREP	# MOs	# FZDC	# DOCC	# SOCC	# VIRT	# FZVR
	-----	-----	------	------	------	------	------
	 A1	   38	    2	    3	    0	    33	    0
	 A2	   10	    0	    0	    0	    10	    0
	 B1	   22	    0	    1	    0	    21	    0
	 B2	   22	    0	    1	    0	    21	    0
	Transforming integrals...
	IWL integrals will be deleted.
	(OO|OO)...
	Presorting SO-basis two-electron integrals.
	Sorting File: SO Ints (nn|nn) nbuckets = 1
	Transforming the one-electron integrals and constructing Fock matrices
	Starting first half-transformation.
	Sorting half-transformed integrals.
	First half integral transformation complete.
	Starting second half-transformation.
	Two-electron integral transformation complete.
	(OO|OV)...
	Starting second half-transformation.
	Two-electron integral transformation complete.
	(OO|VV)...
	Starting second half-transformation.
	Two-electron integral transformation complete.
	(OV|OO)...
	Starting first half-transformation.
	Sorting half-transformed integrals.
	First half integral transformation complete.
	Starting second half-transformation.
	Two-electron integral transformation complete.
	(OV|OV)...
	Starting second half-transformation.
	Two-electron integral transformation complete.
	(OV|VV)...
	Starting second half-transformation.
	Two-electron integral transformation complete.
	(VV|OO)...
	Starting first half-transformation.
	Sorting half-transformed integrals.
	First half integral transformation complete.
	Starting second half-transformation.
	Two-electron integral transformation complete.
	(VV|OV)...
	Starting second half-transformation.
	Two-electron integral transformation complete.
	(VV|VV)...
	Starting second half-transformation.
	Two-electron integral transformation complete.
	Frozen core energy     =   -102.61747594361475

	Size of irrep 0 of <ab|cd> integrals:      4.289 (MW) /     34.312 (MB)
	Size of irrep 1 of <ab|cd> integrals:      2.378 (MW) /     19.022 (MB)
	Size of irrep 2 of <ab|cd> integrals:      3.262 (MW) /     26.093 (MB)
	Size of irrep 3 of <ab|cd> integrals:      3.262 (MW) /     26.093 (MB)
	Total:                                    13.190 (MW) /    105.521 (MB)

	Size of irrep 0 of <ia|bc> integrals:      0.292 (MW) /      2.336 (MB)
	Size of irrep 1 of <ia|bc> integrals:      0.111 (MW) /      0.888 (MB)
	Size of irrep 2 of <ia|bc> integrals:      0.191 (MW) /      1.531 (MB)
	Size of irrep 3 of <ia|bc> integrals:      0.191 (MW) /      1.531 (MB)
	Total:                                     0.786 (MW) /      6.287 (MB)

	Size of irrep 0 of tijab amplitudes:       0.023 (MW) /      0.182 (MB)
	Size of irrep 1 of tijab amplitudes:       0.003 (MW) /      0.025 (MB)
	Size of irrep 2 of tijab amplitudes:       0.011 (MW) /      0.087 (MB)
	Size of irrep 3 of tijab amplitudes:       0.011 (MW) /      0.087 (MB)
	Total:                                     0.048 (MW) /      0.380 (MB)

	Nuclear Rep. energy          =     22.30152115337202
	SCF energy                   =   -112.77988881026548
	One-electron energy          =    -56.63265553429487
	Two-electron energy          =     24.16872151427210
	Reference energy             =   -112.77988881026550

*** tstop() called on cqc01 at Fri Apr 26 18:26:02 2019
Module time:
	user time   =       0.85 seconds =       0.01 minutes
	system time =       0.45 seconds =       0.01 minutes
	total time  =          7 seconds =       0.12 minutes
Total time:
	user time   =       2.44 seconds =       0.04 minutes
	system time =       1.46 seconds =       0.02 minutes
	total time  =         10 seconds =       0.17 minutes

*** tstart() called on cqc01
*** at Fri Apr 26 18:26:02 2019

            **************************
            *                        *
            *        CCENERGY        *
            *                        *
            **************************

    Nuclear Rep. energy (wfn)     =   22.301521153372022
    SCF energy          (wfn)     = -112.779888810265476
    Reference energy    (file100) = -112.779888810265504

    Input parameters:
    -----------------
    Wave function   =     CCSD
    Reference wfn   =     RHF
    Brueckner       =     No
    Memory (Mbytes) =     32000.0
    Maxiter         =     50
    R_Convergence   =     1.0e-07
    E_Convergence   =     1.0e-06
    Restart         =     Yes
    DIIS            =     Yes
    AO Basis        =     NONE
    ABCD            =     NEW
    Cache Level     =     2
    Cache Type      =     LOW
    Print Level     =     1
    Num. of threads =     1
    # Amps to Print =     10
    Print MP2 Amps? =     No
    Analyze T2 Amps =     No
    Print Pair Ener =     No
    Local CC        =     No
    SCS-MP2         =     False
    SCSN-MP2        =     False
    SCS-CCSD        =     False

MP2 correlation energy -0.3625223278620121
                Solving CC Amplitude Equations
                ------------------------------
  Iter             Energy              RMS        T1Diag      D1Diag    New D1Diag    D2Diag
  ----     ---------------------    ---------   ----------  ----------  ----------   --------
     0        -0.362522327862008    0.000e+00    0.000000    0.000000    0.000000    0.147739
     1        -0.369026026037112    2.819e-01    0.033258    0.070612    0.070612    0.179572
     2        -0.373726016890662    6.780e-02    0.018640    0.038248    0.038248    0.169732
     3        -0.365203134116227    1.778e-02    0.019958    0.041820    0.041820    0.164531
     4        -0.364400981362842    4.069e-03    0.019137    0.039941    0.039941    0.163117
     5        -0.364489198721827    8.670e-04    0.018922    0.039503    0.039503    0.162751
     6        -0.364393084074369    2.890e-04    0.018854    0.039363    0.039363    0.162636
     7        -0.364403050198526    7.554e-05    0.018838    0.039330    0.039330    0.162648
     8        -0.364402009111623    2.245e-05    0.018833    0.039321    0.039321    0.162654
     9        -0.364400451392412    7.140e-06    0.018831    0.039317    0.039317    0.162656
    10        -0.364400625337744    1.903e-06    0.018831    0.039316    0.039316    0.162657
    11        -0.364400681212412    5.805e-07    0.018831    0.039316    0.039316    0.162657
    12        -0.364400694799704    1.741e-07    0.018831    0.039316    0.039316    0.162657
    13        -0.364400696177226    4.848e-08    0.018831    0.039316    0.039316    0.162657
    13        -0.364400696177226    4.848e-08    0.018831    0.039316    0.039316    0.162657

    Iterations converged.


    CCSD corr. energy   =   -0.364400696177226
    PPL corr. energy    =    0.088653131729720
    OS PPL corr. energy =    0.073373646917799
    SS PPL corr. energy =    0.015279484811922
    Largest TIA Amplitudes:
              4  65        -0.0303113590
              3  44        -0.0303113291
              4  68        -0.0140940031
              3  47        -0.0140939942
              4  64        -0.0127000121
              3  43        -0.0126999964
              2   3         0.0094945532
              3  50         0.0091278760
              4  71         0.0091278729
              2   9         0.0081431179

    Largest TIjAb Amplitudes:
      2   2  44  44        -0.0655259984
      2   2  65  65        -0.0655259958
      4   4  65  65        -0.0615903372
      3   3  44  44        -0.0615903309
      3   4  44  65        -0.0401115726
      4   3  65  44        -0.0401115726
      4   4  64  65        -0.0319934099
      4   4  65  64        -0.0319934099
      3   3  43  44        -0.0319934070
      3   3  44  43        -0.0319934070

    SCF energy       (wfn)                    = -112.779888810265476
    Reference energy (file100)                = -112.779888810265504

    Opposite-spin MP2 correlation energy      =   -0.270893348088093
    Same-spin MP2 correlation energy          =   -0.091628979773915
    MP2 correlation energy                    =   -0.362522327862012
      * MP2 total energy                      = -113.142411138127514

    Opposite-spin CCSD correlation energy     =   -0.286030392791526
    Same-spin CCSD correlation energy         =   -0.078370303352878
    CCSD correlation energy                   =   -0.364400696177226
      * CCSD total energy                     = -113.144289506442732


*** tstop() called on cqc01 at Fri Apr 26 18:26:10 2019
Module time:
	user time   =       1.49 seconds =       0.02 minutes
	system time =       3.88 seconds =       0.06 minutes
	total time  =          8 seconds =       0.13 minutes
Total time:
	user time   =       3.93 seconds =       0.07 minutes
	system time =       5.34 seconds =       0.09 minutes
	total time  =         18 seconds =       0.30 minutes

*** Psi4 exiting successfully. Buy a developer a beer!
