
    -----------------------------------------------------------------------
          Psi4: An Open-Source Ab Initio Electronic Structure Package
                               Psi4 1.2a1.dev939 

                         Git: Rev {HEAD} fa1ec19 


    R. M. Parrish, L. A. Burns, D. G. A. Smith, A. C. Simmonett,
    A. E. DePrince III, E. G. Hohenstein, U. Bozkaya, A. Yu. Sokolov,
    R. Di Remigio, R. M. Richard, J. F. Gonthier, A. M. James,
    H. R. McAlexander, A. Kumar, M. Saitow, X. Wang, B. P. Pritchard,
    P. Verma, H. F. Schaefer III, K. Patkowski, R. A. King, E. F. Valeev,
    F. A. Evangelista, J. M. Turney, T. D. Crawford, and C. D. Sherrill,
    J. Chem. Theory Comput. 13(7) pp 3185--3197 (2017).
    (doi: 10.1021/acs.jctc.7b00174)

    -----------------------------------------------------------------------


    Psi4 started on: Wednesday, 01 May 2019 07:17AM

    Process ID:  12856
    PSIDATADIR: /home/grueneis/src/psi4/objdir/stage/usr/local/psi4/share/psi4
    Memory:     500.0 MiB
    Threads:    1
    
  ==> Input File <==

--------------------------------------------------------------------------
# Any line starting with the # character is a comment line

memory 32000 mb

molecule molecule {
0 1
O          0.0000000000        0.0000000000       -0.4883910965
C          0.0000000000        0.0000000000        0.6505673556
}

set {
  reference rhf


  basis aug-cc-pv(5+d)z
  scf_type OUT_OF_CORE
  freeze_core true
}

energy('ccsd')
--------------------------------------------------------------------------

  Memory set to  29.802 GiB by Python driver.

*** tstart() called on cqc01
*** at Wed May  1 07:17:18 2019

   => Loading Basis Set <=

    Name: AUG-CC-PV(5+D)Z
    Role: ORBITAL
    Keyword: BASIS
    atoms 1 entry O          line   377 file /home/grueneis/src/psi4/objdir/stage/usr/local/psi4/share/psi4/basis/aug-cc-pv_5pd_z.gbs 
    atoms 2 entry C          line   223 file /home/grueneis/src/psi4/objdir/stage/usr/local/psi4/share/psi4/basis/aug-cc-pv_5pd_z.gbs 


         ---------------------------------------------------------
                                   SCF
            by Justin Turney, Rob Parrish, Andy Simmonett
                             and Daniel Smith
                              RHF Reference
                        1 Threads,  30517 MiB Core
         ---------------------------------------------------------

  ==> Geometry <==

    Molecular point group: c2v
    Full point group: C_inf_v

    Geometry (in Angstrom), charge = 0, multiplicity = 1:

       Center              X                  Y                   Z               Mass       
    ------------   -----------------  -----------------  -----------------  -----------------
           O          0.000000000000     0.000000000000    -0.488213720632    15.994914619560
           C          0.000000000000     0.000000000000     0.650744731468    12.000000000000

  Running in c2v symmetry.

  Rotational constants: A = ************  B =      1.89538  C =      1.89538 [cm^-1]
  Rotational constants: A = ************  B =  56822.11667  C =  56822.11667 [MHz]
  Nuclear repulsion =   22.301521153372022

  Charge       = 0
  Multiplicity = 1
  Electrons    = 14
  Nalpha       = 7
  Nbeta        = 7

  ==> Algorithm <==

  SCF Algorithm Type is OUT_OF_CORE.
  DIIS enabled.
  MOM disabled.
  Fractional occupation disabled.
  Guess Type is SAD.
  Energy threshold   = 1.00e-08
  Density threshold  = 1.00e-08
  Integral threshold = 0.00e+00

  ==> Primary Basis <==

  Basis Set: AUG-CC-PV(5+D)Z
    Blend: AUG-CC-PV(5+D)Z
    Number of shells: 54
    Number of basis function: 254
    Number of Cartesian functions: 364
    Spherical Harmonics?: true
    Max angular momentum: 5

  ==> Pre-Iterations <==

   -------------------------------------------------------
    Irrep   Nso     Nmo     Nalpha   Nbeta   Ndocc  Nsocc
   -------------------------------------------------------
     A1        92      92       0       0       0       0
     A2        38      38       0       0       0       0
     B1        62      62       0       0       0       0
     B2        62      62       0       0       0       0
   -------------------------------------------------------
    Total     254     254       7       7       7       0
   -------------------------------------------------------

  ==> Integral Setup <==

  ==> DiskJK: Disk-Based J/K Matrices <==

    J tasked:                  Yes
    K tasked:                  Yes
    wK tasked:                  No
    Memory (MB):             22888
    Schwarz Cutoff:          1E-12

  Minimum eigenvalue in the overlap matrix is 1.2366995189E-05.
  Using Symmetric Orthogonalization.

  SCF Guess: Superposition of Atomic Densities via on-the-fly atomic UHF.

  ==> Iterations <==

                        Total Energy        Delta E     RMS |[F,P]|

   @RHF iter   0:  -113.06463326483029   -1.13065e+02   1.80342e-02 
   @RHF iter   1:  -112.75039637605107    3.14237e-01   2.00447e-03 
   @RHF iter   2:  -112.77242357387165   -2.20272e-02   1.63872e-03 DIIS
   @RHF iter   3:  -112.78787758832459   -1.54540e-02   2.29960e-04 DIIS
   @RHF iter   4:  -112.78867463813143   -7.97050e-04   1.04488e-04 DIIS
   @RHF iter   5:  -112.78893008157809   -2.55443e-04   3.95877e-05 DIIS
   @RHF iter   6:  -112.78899440265762   -6.43211e-05   1.19325e-05 DIIS
   @RHF iter   7:  -112.78900075880264   -6.35615e-06   2.72812e-06 DIIS
   @RHF iter   8:  -112.78900097126231   -2.12460e-07   7.12157e-07 DIIS
   @RHF iter   9:  -112.78900097864643   -7.38412e-09   6.96803e-08 DIIS
   @RHF iter  10:  -112.78900097872256   -7.61275e-11   1.03161e-08 DIIS
   @RHF iter  11:  -112.78900097872403   -1.47793e-12   1.27724e-09 DIIS

  ==> Post-Iterations <==

    Orbital Energies (a.u.)
    -----------------------

    Doubly Occupied:                                                      

       1A1   -20.664956     2A1   -11.364949     3A1    -1.514099  
       4A1    -0.803600     1B2    -0.635706     1B1    -0.635706  
       5A1    -0.556136  

    Virtual:                                                              

       6A1     0.050272     2B2     0.053313     2B1     0.053313  
       7A1     0.060885     3B2     0.122147     3B1     0.122147  
       8A1     0.129291     4B1     0.140763     4B2     0.140763  
       9A1     0.196895    10A1     0.203939     1A2     0.203939  
      11A1     0.254444     5B2     0.269129     5B1     0.269129  
      12A1     0.279162     6B2     0.300572     6B1     0.300572  
      13A1     0.443176    14A1     0.462687     2A2     0.462687  
       7B2     0.508956     7B1     0.508956    15A1     0.520779  
       8B2     0.550582     8B1     0.550582    16A1     0.604917  
       3A2     0.604917     9B2     0.610083     9B1     0.610083  
      17A1     0.629779    10B2     0.644956    10B1     0.644956  
      18A1     0.649908    19A1     0.686190    20A1     0.705706  
       4A2     0.705706    11B2     0.844165    11B1     0.844165  
      21A1     1.043472    12B2     1.069817    12B1     1.069817  
      22A1     1.139729     5A2     1.175048    23A1     1.175048  
      13B2     1.183817    13B1     1.183817    24A1     1.206454  
      14B2     1.238452    14B1     1.238452    25A1     1.267520  
       6A2     1.369300    26A1     1.369300    15B2     1.459945  
      15B1     1.459945    27A1     1.472662     7A2     1.554371  
      28A1     1.554371    16B1     1.621334    16B2     1.621334  
       8A2     1.656641    29A1     1.656641    17B2     1.707494  
      17B1     1.707494    30A1     1.712627     9A2     1.744548  
      31A1     1.744548    18B2     1.763300    18B1     1.763300  
      19B2     1.799937    19B1     1.799937    32A1     1.980416  
      10A2     2.256214    33A1     2.256214    20B2     2.267309  
      20B1     2.267309    34A1     2.275122    35A1     2.340538  
      21B2     2.533313    21B1     2.533313    36A1     2.686279  
      37A1     2.712003    11A2     2.712003    22B2     2.813767  
      22B1     2.813767    23B1     2.876235    23B2     2.876235  
      38A1     3.015652    12A2     3.038927    39A1     3.038927  
      24B2     3.159312    24B1     3.159312    13A2     3.163627  
      40A1     3.163627    25B1     3.220136    25B2     3.220136  
      41A1     3.318744    42A1     3.435283    26B2     3.467969  
      26B1     3.467969    14A2     3.587603    43A1     3.587603  
      27B2     3.635506    27B1     3.635506    15A2     3.741936  
      44A1     3.741936    28B2     3.897534    28B1     3.897534  
      45A1     3.953740    29B2     4.012535    29B1     4.012535  
      16A2     4.031520    46A1     4.031520    47A1     4.052126  
      17A2     4.052126    30B2     4.073325    30B1     4.073325  
      31B2     4.209036    31B1     4.209036    48A1     4.264547  
      18A2     4.485472    49A1     4.485472    50A1     4.561433  
      32B2     4.655647    32B1     4.655647    33B1     4.656164  
      33B2     4.656164    19A2     4.714452    51A1     4.714452  
      52A1     4.973870    34B2     5.034200    34B1     5.034200  
      53A1     5.326187    35B1     5.759945    35B2     5.759945  
      20A2     5.808070    54A1     5.808070    55A1     5.926419  
      36B2     6.216217    36B1     6.216217    56A1     6.500705  
      37B2     6.583308    37B1     6.583308    57A1     6.725243  
      21A2     6.725243    58A1     7.093613    22A2     7.093613  
      38B1     7.187347    38B2     7.187347    23A2     7.234889  
      59A1     7.234889    39B2     7.316142    39B1     7.316142  
      40B1     7.346072    40B2     7.346072    60A1     7.378394  
      41B2     7.576380    41B1     7.576380    24A2     7.637144  
      61A1     7.637144    62A1     7.724116    42B1     7.995115  
      42B2     7.995115    25A2     8.011432    63A1     8.011432  
      64A1     8.120469    43B1     8.751617    43B2     8.751617  
      44B2     8.896815    44B1     8.896815    65A1     8.987524  
      26A2     9.078253    66A1     9.078253    45B1     9.192249  
      45B2     9.192249    67A1     9.415140    27A2     9.415140  
      46B1     9.475130    46B2     9.475130    68A1     9.687561  
      47B1     9.764358    47B2     9.764358    28A2     9.896820  
      69A1     9.896820    70A1     9.977973    48B2    10.167488  
      48B1    10.167488    71A1    10.324976    29A2    10.324976  
      49B1    10.577220    49B2    10.577220    50B2    10.586899  
      50B1    10.586899    30A2    10.880824    72A1    10.880824  
      73A1    11.100778    74A1    11.549586    51B1    11.733472  
      51B2    11.733472    31A2    11.780056    75A1    11.780056  
      76A1    12.560590    52B1    12.656788    52B2    12.656788  
      32A2    12.917626    77A1    12.917626    78A1    13.688878  
      53B1    14.484753    53B2    14.484753    79A1    15.991191  
      54B1    16.198964    54B2    16.198964    80A1    16.433562  
      33A2    16.433562    55B2    16.707908    55B1    16.707908  
      56B1    16.879718    56B2    16.879718    34A2    17.077672  
      81A1    17.077672    82A1    17.301118    57B2    17.589374  
      57B1    17.589374    83A1    18.347443    35A2    19.068287  
      84A1    19.068287    58B2    19.291813    58B1    19.291813  
      59B1    19.341224    59B2    19.341224    85A1    19.623315  
      36A2    19.623315    60B2    19.838551    60B1    19.838551  
      86A1    19.932878    87A1    20.039335    37A2    20.039335  
      61B1    21.948149    61B2    21.948149    88A1    22.787833  
      38A2    22.787833    89A1    23.093411    62B2    23.823084  
      62B1    23.823084    90A1    24.512193    91A1    39.581630  
      92A1    65.411192  

    Final Occupation by Irrep:
             A1    A2    B1    B2 
    DOCC [     5,    0,    1,    1 ]

  Energy converged.

  @RHF Final Energy:  -112.78900097872403

   => Energetics <=

    Nuclear Repulsion Energy =             22.3015211533720219
    One-Electron Energy =                -197.8307400839842387
    Two-Electron Energy =                  62.7402179518881837
    Total Energy =                       -112.7890009787240331



Properties will be evaluated at   0.000000,   0.000000,   0.000000 Bohr

Properties computed using the SCF density matrix

  Nuclear Dipole Moment: (a.u.)
     X:     0.0000      Y:     0.0000      Z:    -0.0023

  Electronic Dipole Moment: (a.u.)
     X:     0.0000      Y:     0.0000      Z:     0.1275

  Dipole Moment: (a.u.)
     X:     0.0000      Y:     0.0000      Z:     0.1252     Total:     0.1252

  Dipole Moment: (Debye)
     X:     0.0000      Y:     0.0000      Z:     0.3182     Total:     0.3182


*** tstop() called on cqc01 at Wed May  1 07:19:10 2019
Module time:
	user time   =      63.06 seconds =       1.05 minutes
	system time =       9.11 seconds =       0.15 minutes
	total time  =        112 seconds =       1.87 minutes
Total time:
	user time   =      63.06 seconds =       1.05 minutes
	system time =       9.11 seconds =       0.15 minutes
	total time  =        112 seconds =       1.87 minutes

*** tstart() called on cqc01
*** at Wed May  1 07:19:10 2019


	Wfn Parameters:
	--------------------
	Wavefunction         = CCSD
	Number of irreps     = 4
	Number of MOs        = 254
	Number of active MOs = 252
	AO-Basis             = NONE
	Semicanonical        = false
	Reference            = RHF
	Print Level          = 1

	IRREP	# MOs	# FZDC	# DOCC	# SOCC	# VIRT	# FZVR
	-----	-----	------	------	------	------	------
	 A1	   92	    2	    3	    0	    87	    0
	 A2	   38	    0	    0	    0	    38	    0
	 B1	   62	    0	    1	    0	    61	    0
	 B2	   62	    0	    1	    0	    61	    0
	Transforming integrals...
	IWL integrals will be deleted.
	(OO|OO)...
	Presorting SO-basis two-electron integrals.
	Sorting File: SO Ints (nn|nn) nbuckets = 1
	Transforming the one-electron integrals and constructing Fock matrices
	Starting first half-transformation.
	Sorting half-transformed integrals.
	First half integral transformation complete.
	Starting second half-transformation.
	Two-electron integral transformation complete.
	(OO|OV)...
	Starting second half-transformation.
	Two-electron integral transformation complete.
	(OO|VV)...
	Starting second half-transformation.
	Two-electron integral transformation complete.
	(OV|OO)...
	Starting first half-transformation.
	Sorting half-transformed integrals.
	First half integral transformation complete.
	Starting second half-transformation.
	Two-electron integral transformation complete.
	(OV|OV)...
	Starting second half-transformation.
	Two-electron integral transformation complete.
	(OV|VV)...
	Starting second half-transformation.
	Two-electron integral transformation complete.
	(VV|OO)...
	Starting first half-transformation.
	Sorting half-transformed integrals.
	First half integral transformation complete.
	Starting second half-transformation.
	Two-electron integral transformation complete.
	(VV|OV)...
	Starting second half-transformation.
	Two-electron integral transformation complete.
	(VV|VV)...
	Starting second half-transformation.
	Two-electron integral transformation complete.
	Frozen core energy     =   -102.61972963762952

	Size of irrep 0 of <ab|cd> integrals:    270.767 (MW) /   2166.136 (MB)
	Size of irrep 1 of <ab|cd> integrals:    197.515 (MW) /   1580.119 (MB)
	Size of irrep 2 of <ab|cd> integrals:    232.562 (MW) /   1860.500 (MB)
	Size of irrep 3 of <ab|cd> integrals:    232.562 (MW) /   1860.500 (MB)
	Total:                                   933.407 (MW) /   7467.256 (MB)

	Size of irrep 0 of <ia|bc> integrals:      6.302 (MW) /     50.418 (MB)
	Size of irrep 1 of <ia|bc> integrals:      3.317 (MW) /     26.534 (MB)
	Size of irrep 2 of <ia|bc> integrals:      4.697 (MW) /     37.576 (MB)
	Size of irrep 3 of <ia|bc> integrals:      4.697 (MW) /     37.576 (MB)
	Total:                                    19.013 (MW) /    152.104 (MB)

	Size of irrep 0 of tijab amplitudes:       0.181 (MW) /      1.448 (MB)
	Size of irrep 1 of tijab amplitudes:       0.028 (MW) /      0.225 (MB)
	Size of irrep 2 of tijab amplitudes:       0.091 (MW) /      0.732 (MB)
	Size of irrep 3 of tijab amplitudes:       0.091 (MW) /      0.732 (MB)
	Total:                                     0.392 (MW) /      3.137 (MB)

	Nuclear Rep. energy          =     22.30152115337202
	SCF energy                   =   -112.78900097872403
	One-electron energy          =    -56.65109083028460
	Two-electron energy          =     24.18029833581813
	Reference energy             =   -112.78900097872396

*** tstop() called on cqc01 at Wed May  1 07:26:56 2019
Module time:
	user time   =      87.42 seconds =       1.46 minutes
	system time =      79.83 seconds =       1.33 minutes
	total time  =        466 seconds =       7.77 minutes
Total time:
	user time   =     150.48 seconds =       2.51 minutes
	system time =      88.94 seconds =       1.48 minutes
	total time  =        578 seconds =       9.63 minutes

*** tstart() called on cqc01
*** at Wed May  1 07:26:56 2019

            **************************
            *                        *
            *        CCENERGY        *
            *                        *
            **************************

    Nuclear Rep. energy (wfn)     =   22.301521153372022
    SCF energy          (wfn)     = -112.789000978724033
    Reference energy    (file100) = -112.789000978723962

    Input parameters:
    -----------------
    Wave function   =     CCSD
    Reference wfn   =     RHF
    Brueckner       =     No
    Memory (Mbytes) =     32000.0
    Maxiter         =     50
    R_Convergence   =     1.0e-07
    E_Convergence   =     1.0e-06
    Restart         =     Yes
    DIIS            =     Yes
    AO Basis        =     NONE
    ABCD            =     NEW
    Cache Level     =     2
    Cache Type      =     LOW
    Print Level     =     1
    Num. of threads =     1
    # Amps to Print =     10
    Print MP2 Amps? =     No
    Analyze T2 Amps =     No
    Print Pair Ener =     No
    Local CC        =     No
    SCS-MP2         =     False
    SCSN-MP2        =     False
    SCS-CCSD        =     False

MP2 correlation energy -0.3949081841502520
                Solving CC Amplitude Equations
                ------------------------------
  Iter             Energy              RMS        T1Diag      D1Diag    New D1Diag    D2Diag
  ----     ---------------------    ---------   ----------  ----------  ----------   --------
     0        -0.394908184150248    0.000e+00    0.000000    0.000000    0.000000    0.149133
     1        -0.388796416392789    2.915e-01    0.032796    0.069518    0.069518    0.176260
     2        -0.399963986985398    6.917e-02    0.018057    0.037031    0.037031    0.168346
     3        -0.391689884186902    1.890e-02    0.019499    0.040861    0.040861    0.163382
     4        -0.390515968855453    4.390e-03    0.018651    0.038900    0.038900    0.161801
     5        -0.390682289396827    9.635e-04    0.018414    0.038418    0.038418    0.161423
     6        -0.390586845560108    3.285e-04    0.018338    0.038258    0.038258    0.161303
     7        -0.390587970486801    8.694e-05    0.018318    0.038218    0.038218    0.161310
     8        -0.390589234030141    2.470e-05    0.018314    0.038208    0.038208    0.161319
     9        -0.390587577736402    8.224e-06    0.018311    0.038204    0.038204    0.161321
    10        -0.390587629313672    2.183e-06    0.018311    0.038203    0.038203    0.161322
    11        -0.390587723673308    6.979e-07    0.018311    0.038203    0.038203    0.161322
    12        -0.390587746483752    2.166e-07    0.018311    0.038203    0.038203    0.161322
    13        -0.390587746679366    5.946e-08    0.018311    0.038203    0.038203    0.161322
    13        -0.390587746679366    5.946e-08    0.018311    0.038203    0.038203    0.161322

    Iterations converged.


    CCSD corr. energy   =   -0.390587746679366
    PPL corr. energy    =    0.099435973967224
    OS PPL corr. energy =    0.083267053528122
    SS PPL corr. energy =    0.016168920439101
    Largest TIA Amplitudes:
              4 187        -0.0217072271
              3 126        -0.0217071725
              4 190        -0.0181044862
              3 129        -0.0181044347
              4 188        -0.0176547031
              3 127        -0.0176546832
              4 193         0.0088718678
              3 132         0.0088718444
              2  13         0.0085507272
              4 197         0.0084992638

    Largest TIjAb Amplitudes:
      4   4 188 188        -0.0434831248
      3   3 127 127        -0.0434831186
      2   2 126 126        -0.0345801374
      2   2 187 187        -0.0345801322
      4   4 187 188        -0.0345090422
      4   4 188 187        -0.0345090422
      3   3 126 127        -0.0345090355
      3   3 127 126        -0.0345090355
      2   2 126 127        -0.0340010345
      2   2 127 126        -0.0340010345

    SCF energy       (wfn)                    = -112.789000978724033
    Reference energy (file100)                = -112.789000978723962

    Opposite-spin MP2 correlation energy      =   -0.299487441435555
    Same-spin MP2 correlation energy          =   -0.095420742714693
    MP2 correlation energy                    =   -0.394908184150252
      * MP2 total energy                      = -113.183909162874215

    Opposite-spin CCSD correlation energy     =   -0.308935282985731
    Same-spin CCSD correlation energy         =   -0.081652462761472
    CCSD correlation energy                   =   -0.390587746679366
      * CCSD total energy                     = -113.179588725403335


*** tstop() called on cqc01 at Wed May  1 07:31:30 2019
Module time:
	user time   =      18.36 seconds =       0.31 minutes
	system time =      35.87 seconds =       0.60 minutes
	total time  =        274 seconds =       4.57 minutes
Total time:
	user time   =     168.84 seconds =       2.81 minutes
	system time =     124.81 seconds =       2.08 minutes
	total time  =        852 seconds =      14.20 minutes

*** Psi4 exiting successfully. Buy a developer a beer!
