
    -----------------------------------------------------------------------
          Psi4: An Open-Source Ab Initio Electronic Structure Package
                               Psi4 1.2a1.dev939 

                         Git: Rev {HEAD} fa1ec19 


    R. M. Parrish, L. A. Burns, D. G. A. Smith, A. C. Simmonett,
    A. E. DePrince III, E. G. Hohenstein, U. Bozkaya, A. Yu. Sokolov,
    R. Di Remigio, R. M. Richard, J. F. Gonthier, A. M. James,
    H. R. McAlexander, A. Kumar, M. Saitow, X. Wang, B. P. Pritchard,
    P. Verma, H. F. Schaefer III, K. Patkowski, R. A. King, E. F. Valeev,
    F. A. Evangelista, J. M. Turney, T. D. Crawford, and C. D. Sherrill,
    J. Chem. Theory Comput. 13(7) pp 3185--3197 (2017).
    (doi: 10.1021/acs.jctc.7b00174)

    -----------------------------------------------------------------------


    Psi4 started on: Friday, 26 April 2019 03:32PM

    Process ID:  22746
    PSIDATADIR: /home/grueneis/src/psi4/objdir/stage/usr/local/psi4/share/psi4
    Memory:     500.0 MiB
    Threads:    1
    
  ==> Input File <==

--------------------------------------------------------------------------
# Any line starting with the # character is a comment line

memory 32000 mb

molecule molecule {
0 1
O          0.0000000000        0.0000000000       -0.4883910965
C          0.0000000000        0.0000000000        0.6505673556
}

set {
  reference rhf
  basis aug-cc-pv(D+d)z
  scf_type OUT_OF_CORE
  freeze_core true
}

energy('ccsd')
--------------------------------------------------------------------------

  Memory set to  29.802 GiB by Python driver.

*** tstart() called on cqc01
*** at Fri Apr 26 15:32:14 2019

   => Loading Basis Set <=

    Name: AUG-CC-PV(D+D)Z
    Role: ORBITAL
    Keyword: BASIS
    atoms 1 entry O          line   270 file /home/grueneis/src/psi4/objdir/stage/usr/local/psi4/share/psi4/basis/aug-cc-pv_dpd_z.gbs 
    atoms 2 entry C          line   198 file /home/grueneis/src/psi4/objdir/stage/usr/local/psi4/share/psi4/basis/aug-cc-pv_dpd_z.gbs 


         ---------------------------------------------------------
                                   SCF
            by Justin Turney, Rob Parrish, Andy Simmonett
                             and Daniel Smith
                              RHF Reference
                        1 Threads,  30517 MiB Core
         ---------------------------------------------------------

  ==> Geometry <==

    Molecular point group: c2v
    Full point group: C_inf_v

    Geometry (in Angstrom), charge = 0, multiplicity = 1:

       Center              X                  Y                   Z               Mass       
    ------------   -----------------  -----------------  -----------------  -----------------
           O          0.000000000000     0.000000000000    -0.488213720632    15.994914619560
           C          0.000000000000     0.000000000000     0.650744731468    12.000000000000

  Running in c2v symmetry.

  Rotational constants: A = ************  B =      1.89538  C =      1.89538 [cm^-1]
  Rotational constants: A = ************  B =  56822.11667  C =  56822.11667 [MHz]
  Nuclear repulsion =   22.301521153372022

  Charge       = 0
  Multiplicity = 1
  Electrons    = 14
  Nalpha       = 7
  Nbeta        = 7

  ==> Algorithm <==

  SCF Algorithm Type is OUT_OF_CORE.
  DIIS enabled.
  MOM disabled.
  Fractional occupation disabled.
  Guess Type is SAD.
  Energy threshold   = 1.00e-08
  Density threshold  = 1.00e-08
  Integral threshold = 0.00e+00

  ==> Primary Basis <==

  Basis Set: AUG-CC-PV(D+D)Z
    Blend: AUG-CC-PV(D+D)Z
    Number of shells: 18
    Number of basis function: 46
    Number of Cartesian functions: 50
    Spherical Harmonics?: true
    Max angular momentum: 2

  ==> Pre-Iterations <==

   -------------------------------------------------------
    Irrep   Nso     Nmo     Nalpha   Nbeta   Ndocc  Nsocc
   -------------------------------------------------------
     A1        22      22       0       0       0       0
     A2         4       4       0       0       0       0
     B1        10      10       0       0       0       0
     B2        10      10       0       0       0       0
   -------------------------------------------------------
    Total      46      46       7       7       7       0
   -------------------------------------------------------

  ==> Integral Setup <==

  ==> DiskJK: Disk-Based J/K Matrices <==

    J tasked:                  Yes
    K tasked:                  Yes
    wK tasked:                  No
    Memory (MB):             22888
    Schwarz Cutoff:          1E-12

  Minimum eigenvalue in the overlap matrix is 2.5151214407E-03.
  Using Symmetric Orthogonalization.

  SCF Guess: Superposition of Atomic Densities via on-the-fly atomic UHF.

  ==> Iterations <==

                        Total Energy        Delta E     RMS |[F,P]|

   @RHF iter   0:  -112.90180279455456   -1.12902e+02   8.95900e-02 
   @RHF iter   1:  -112.70236797750898    1.99435e-01   1.22451e-02 
   @RHF iter   2:  -112.73080909319644   -2.84411e-02   8.21894e-03 DIIS
   @RHF iter   3:  -112.75109608030563   -2.02870e-02   2.43938e-03 DIIS
   @RHF iter   4:  -112.75324025570326   -2.14418e-03   5.75013e-04 DIIS
   @RHF iter   5:  -112.75345715430753   -2.16899e-04   1.49488e-04 DIIS
   @RHF iter   6:  -112.75348396645212   -2.68121e-05   4.86603e-05 DIIS
   @RHF iter   7:  -112.75348829979015   -4.33334e-06   1.69111e-05 DIIS
   @RHF iter   8:  -112.75348879931167   -4.99522e-07   2.03504e-06 DIIS
   @RHF iter   9:  -112.75348880235993   -3.04826e-09   2.03710e-07 DIIS
   @RHF iter  10:  -112.75348880238597   -2.60485e-11   3.06038e-08 DIIS
   @RHF iter  11:  -112.75348880238641   -4.40536e-13   3.66295e-09 DIIS

  ==> Post-Iterations <==

    Orbital Energies (a.u.)
    -----------------------

    Doubly Occupied:                                                      

       1A1   -20.678816     2A1   -11.378270     3A1    -1.522478  
       4A1    -0.807385     1B2    -0.636407     1B1    -0.636407  
       5A1    -0.555917  

    Virtual:                                                              

       2B2     0.078109     2B1     0.078109     6A1     0.081548  
       7A1     0.105335     3B2     0.167968     3B1     0.167968  
       8A1     0.225130     4B2     0.247833     4B1     0.247833  
       9A1     0.335053     1A2     0.433581    10A1     0.433581  
      11A1     0.520904     5B2     0.600929     5B1     0.600929  
      12A1     0.697182     6B2     0.747434     6B1     0.747434  
      13A1     0.931666    14A1     1.053849     2A2     1.053924  
      15A1     1.053924     7B2     1.205156     7B1     1.205156  
      16A1     1.427722     3A2     1.651124    17A1     1.651124  
       8B2     1.665402     8B1     1.665402     9B2     1.963141  
       9B1     1.963141    18A1     2.127527    19A1     2.216785  
      20A1     2.976433     4A2     3.550563    21A1     3.550563  
      10B2     3.670527    10B1     3.670527    22A1     4.023520  

    Final Occupation by Irrep:
             A1    A2    B1    B2 
    DOCC [     5,    0,    1,    1 ]

  Energy converged.

  @RHF Final Energy:  -112.75348880238641

   => Energetics <=

    Nuclear Repulsion Energy =             22.3015211533720219
    One-Electron Energy =                -197.6786576947454250
    Two-Electron Energy =                  62.6236477389869890
    Total Energy =                       -112.7534888023864141



Properties will be evaluated at   0.000000,   0.000000,   0.000000 Bohr

Properties computed using the SCF density matrix

  Nuclear Dipole Moment: (a.u.)
     X:     0.0000      Y:     0.0000      Z:    -0.0023

  Electronic Dipole Moment: (a.u.)
     X:     0.0000      Y:     0.0000      Z:     0.1252

  Dipole Moment: (a.u.)
     X:     0.0000      Y:     0.0000      Z:     0.1228     Total:     0.1228

  Dipole Moment: (Debye)
     X:     0.0000      Y:     0.0000      Z:     0.3122     Total:     0.3122


*** tstop() called on cqc01 at Fri Apr 26 15:32:15 2019
Module time:
	user time   =       0.64 seconds =       0.01 minutes
	system time =       0.60 seconds =       0.01 minutes
	total time  =          1 seconds =       0.02 minutes
Total time:
	user time   =       0.64 seconds =       0.01 minutes
	system time =       0.60 seconds =       0.01 minutes
	total time  =          1 seconds =       0.02 minutes

*** tstart() called on cqc01
*** at Fri Apr 26 15:32:15 2019


	Wfn Parameters:
	--------------------
	Wavefunction         = CCSD
	Number of irreps     = 4
	Number of MOs        = 46
	Number of active MOs = 44
	AO-Basis             = NONE
	Semicanonical        = false
	Reference            = RHF
	Print Level          = 1

	IRREP	# MOs	# FZDC	# DOCC	# SOCC	# VIRT	# FZVR
	-----	-----	------	------	------	------	------
	 A1	   22	    2	    3	    0	    17	    0
	 A2	   4	    0	    0	    0	    4	    0
	 B1	   10	    0	    1	    0	    9	    0
	 B2	   10	    0	    1	    0	    9	    0
	Transforming integrals...
	IWL integrals will be deleted.
	(OO|OO)...
	Presorting SO-basis two-electron integrals.
	Sorting File: SO Ints (nn|nn) nbuckets = 1
	Transforming the one-electron integrals and constructing Fock matrices
	Starting first half-transformation.
	Sorting half-transformed integrals.
	First half integral transformation complete.
	Starting second half-transformation.
	Two-electron integral transformation complete.
	(OO|OV)...
	Starting second half-transformation.
	Two-electron integral transformation complete.
	(OO|VV)...
	Starting second half-transformation.
	Two-electron integral transformation complete.
	(OV|OO)...
	Starting first half-transformation.
	Sorting half-transformed integrals.
	First half integral transformation complete.
	Starting second half-transformation.
	Two-electron integral transformation complete.
	(OV|OV)...
	Starting second half-transformation.
	Two-electron integral transformation complete.
	(OV|VV)...
	Starting second half-transformation.
	Two-electron integral transformation complete.
	(VV|OO)...
	Starting first half-transformation.
	Sorting half-transformed integrals.
	First half integral transformation complete.
	Starting second half-transformation.
	Two-electron integral transformation complete.
	(VV|OV)...
	Starting second half-transformation.
	Two-electron integral transformation complete.
	(VV|VV)...
	Starting second half-transformation.
	Two-electron integral transformation complete.
	Frozen core energy     =   -102.61674000352266

	Size of irrep 0 of <ab|cd> integrals:      0.218 (MW) /      1.745 (MB)
	Size of irrep 1 of <ab|cd> integrals:      0.089 (MW) /      0.710 (MB)
	Size of irrep 2 of <ab|cd> integrals:      0.143 (MW) /      1.143 (MB)
	Size of irrep 3 of <ab|cd> integrals:      0.143 (MW) /      1.143 (MB)
	Total:                                     0.593 (MW) /      4.741 (MB)

	Size of irrep 0 of <ia|bc> integrals:      0.032 (MW) /      0.258 (MB)
	Size of irrep 1 of <ia|bc> integrals:      0.009 (MW) /      0.072 (MB)
	Size of irrep 2 of <ia|bc> integrals:      0.018 (MW) /      0.145 (MB)
	Size of irrep 3 of <ia|bc> integrals:      0.018 (MW) /      0.145 (MB)
	Total:                                     0.077 (MW) /      0.620 (MB)

	Size of irrep 0 of tijab amplitudes:       0.005 (MW) /      0.041 (MB)
	Size of irrep 1 of tijab amplitudes:       0.001 (MW) /      0.005 (MB)
	Size of irrep 2 of tijab amplitudes:       0.002 (MW) /      0.018 (MB)
	Size of irrep 3 of tijab amplitudes:       0.002 (MW) /      0.018 (MB)
	Total:                                     0.010 (MW) /      0.082 (MB)

	Nuclear Rep. energy          =     22.30152115337202
	SCF energy                   =   -112.75348880238641
	One-electron energy          =    -56.55934917696349
	Two-electron energy          =     24.12107922472740
	Reference energy             =   -112.75348880238673

*** tstop() called on cqc01 at Fri Apr 26 15:32:16 2019
Module time:
	user time   =       0.06 seconds =       0.00 minutes
	system time =       0.05 seconds =       0.00 minutes
	total time  =          1 seconds =       0.02 minutes
Total time:
	user time   =       0.71 seconds =       0.01 minutes
	system time =       0.65 seconds =       0.01 minutes
	total time  =          2 seconds =       0.03 minutes

*** tstart() called on cqc01
*** at Fri Apr 26 15:32:16 2019

            **************************
            *                        *
            *        CCENERGY        *
            *                        *
            **************************

    Nuclear Rep. energy (wfn)     =   22.301521153372022
    SCF energy          (wfn)     = -112.753488802386414
    Reference energy    (file100) = -112.753488802386727

    Input parameters:
    -----------------
    Wave function   =     CCSD
    Reference wfn   =     RHF
    Brueckner       =     No
    Memory (Mbytes) =     32000.0
    Maxiter         =     50
    R_Convergence   =     1.0e-07
    E_Convergence   =     1.0e-06
    Restart         =     Yes
    DIIS            =     Yes
    AO Basis        =     NONE
    ABCD            =     NEW
    Cache Level     =     2
    Cache Type      =     LOW
    Print Level     =     1
    Num. of threads =     1
    # Amps to Print =     10
    Print MP2 Amps? =     No
    Analyze T2 Amps =     No
    Print Pair Ener =     No
    Local CC        =     No
    SCS-MP2         =     False
    SCSN-MP2        =     False
    SCS-CCSD        =     False

MP2 correlation energy -0.3012234441665740
                Solving CC Amplitude Equations
                ------------------------------
  Iter             Energy              RMS        T1Diag      D1Diag    New D1Diag    D2Diag
  ----     ---------------------    ---------   ----------  ----------  ----------   --------
     0        -0.301223444166573    0.000e+00    0.000000    0.000000    0.000000    0.144534
     1        -0.317077071299821    2.657e-01    0.034124    0.072382    0.072382    0.181796
     2        -0.315878341484007    6.573e-02    0.019714    0.040155    0.040155    0.170346
     3        -0.308346786312976    1.546e-02    0.020652    0.042909    0.042909    0.164790
     4        -0.308008640110260    3.524e-03    0.019851    0.041115    0.041115    0.163273
     5        -0.307838009328302    7.175e-04    0.019665    0.040742    0.040742    0.162915
     6        -0.307816491957740    1.978e-04    0.019616    0.040643    0.040643    0.162868
     7        -0.307821640445336    5.626e-05    0.019606    0.040623    0.040623    0.162878
     8        -0.307819172575972    1.857e-05    0.019602    0.040616    0.040616    0.162882
     9        -0.307818539262158    5.590e-06    0.019601    0.040613    0.040613    0.162884
    10        -0.307818737752752    1.475e-06    0.019601    0.040612    0.040612    0.162885
    11        -0.307818731084895    4.304e-07    0.019601    0.040612    0.040612    0.162885
    12        -0.307818732993711    1.165e-07    0.019601    0.040612    0.040612    0.162885
    13        -0.307818736182441    3.948e-08    0.019601    0.040612    0.040612    0.162885
    13        -0.307818736182441    3.948e-08    0.019601    0.040612    0.040612    0.162885

    Iterations converged.


    CCSD corr. energy   =   -0.307818736182441
    PPL corr. energy    =    0.071994648701303
    OS PPL corr. energy =    0.059159341579588
    SS PPL corr. energy =    0.012835307121715
    Largest TIA Amplitudes:
              4  31        -0.0311557618
              3  22        -0.0311557327
              4  30        -0.0183357336
              3  21        -0.0183357160
              3  27         0.0123023048
              4  36         0.0123023027
              2   3         0.0113664728
              4  34         0.0110024638
              3  25         0.0110024567
              2   0        -0.0106047105

    Largest TIjAb Amplitudes:
      2   2  22  22        -0.0655570312
      2   2  31  31        -0.0655570287
      4   4  31  31        -0.0628266288
      3   3  22  22        -0.0628266227
      3   4  22  31        -0.0408207901
      4   3  31  22        -0.0408207901
      4   4  30  31        -0.0395964774
      4   4  31  30        -0.0395964774
      3   3  21  22        -0.0395964737
      3   3  22  21        -0.0395964737

    SCF energy       (wfn)                    = -112.753488802386414
    Reference energy (file100)                = -112.753488802386727

    Opposite-spin MP2 correlation energy      =   -0.221618392480328
    Same-spin MP2 correlation energy          =   -0.079605051686244
    MP2 correlation energy                    =   -0.301223444166574
      * MP2 total energy                      = -113.054712246553308

    Opposite-spin CCSD correlation energy     =   -0.240460804924225
    Same-spin CCSD correlation energy         =   -0.067357930889569
    CCSD correlation energy                   =   -0.307818736182441
      * CCSD total energy                     = -113.061307538569167


*** tstop() called on cqc01 at Fri Apr 26 15:32:20 2019
Module time:
	user time   =       0.87 seconds =       0.01 minutes
	system time =       2.60 seconds =       0.04 minutes
	total time  =          4 seconds =       0.07 minutes
Total time:
	user time   =       1.58 seconds =       0.03 minutes
	system time =       3.25 seconds =       0.05 minutes
	total time  =          6 seconds =       0.10 minutes

*** Psi4 exiting successfully. Buy a developer a beer!
