
    -----------------------------------------------------------------------
          Psi4: An Open-Source Ab Initio Electronic Structure Package
                               Psi4 1.2a1.dev939 

                         Git: Rev {HEAD} fa1ec19 


    R. M. Parrish, L. A. Burns, D. G. A. Smith, A. C. Simmonett,
    A. E. DePrince III, E. G. Hohenstein, U. Bozkaya, A. Yu. Sokolov,
    R. Di Remigio, R. M. Richard, J. F. Gonthier, A. M. James,
    H. R. McAlexander, A. Kumar, M. Saitow, X. Wang, B. P. Pritchard,
    P. Verma, H. F. Schaefer III, K. Patkowski, R. A. King, E. F. Valeev,
    F. A. Evangelista, J. M. Turney, T. D. Crawford, and C. D. Sherrill,
    J. Chem. Theory Comput. 13(7) pp 3185--3197 (2017).
    (doi: 10.1021/acs.jctc.7b00174)

    -----------------------------------------------------------------------


    Psi4 started on: Sunday, 28 April 2019 03:57AM

    Process ID:  11056
    PSIDATADIR: /home/grueneis/src/psi4/objdir/stage/usr/local/psi4/share/psi4
    Memory:     500.0 MiB
    Threads:    1
    
  ==> Input File <==

--------------------------------------------------------------------------
# Any line starting with the # character is a comment line

memory 32000 mb

molecule molecule {
0 1
O          0.0000000000        0.0000000000       -0.4883910965
C          0.0000000000        0.0000000000        0.6505673556
}

set {
  reference rhf
  basis aug-cc-pv(Q+d)z
  scf_type OUT_OF_CORE
  freeze_core true
}

energy('ccsd')
--------------------------------------------------------------------------

  Memory set to  29.802 GiB by Python driver.

*** tstart() called on cqc01
*** at Sun Apr 28 03:57:04 2019

   => Loading Basis Set <=

    Name: AUG-CC-PV(Q+D)Z
    Role: ORBITAL
    Keyword: BASIS
    atoms 1 entry O          line   439 file /home/grueneis/src/psi4/objdir/stage/usr/local/psi4/share/psi4/basis/aug-cc-pv_qpd_z.gbs 
    atoms 2 entry C          line   319 file /home/grueneis/src/psi4/objdir/stage/usr/local/psi4/share/psi4/basis/aug-cc-pv_qpd_z.gbs 


         ---------------------------------------------------------
                                   SCF
            by Justin Turney, Rob Parrish, Andy Simmonett
                             and Daniel Smith
                              RHF Reference
                        1 Threads,  30517 MiB Core
         ---------------------------------------------------------

  ==> Geometry <==

    Molecular point group: c2v
    Full point group: C_inf_v

    Geometry (in Angstrom), charge = 0, multiplicity = 1:

       Center              X                  Y                   Z               Mass       
    ------------   -----------------  -----------------  -----------------  -----------------
           O          0.000000000000     0.000000000000    -0.488213720632    15.994914619560
           C          0.000000000000     0.000000000000     0.650744731468    12.000000000000

  Running in c2v symmetry.

  Rotational constants: A = ************  B =      1.89538  C =      1.89538 [cm^-1]
  Rotational constants: A = ************  B =  56822.11667  C =  56822.11667 [MHz]
  Nuclear repulsion =   22.301521153372022

  Charge       = 0
  Multiplicity = 1
  Electrons    = 14
  Nalpha       = 7
  Nbeta        = 7

  ==> Algorithm <==

  SCF Algorithm Type is OUT_OF_CORE.
  DIIS enabled.
  MOM disabled.
  Fractional occupation disabled.
  Guess Type is SAD.
  Energy threshold   = 1.00e-08
  Density threshold  = 1.00e-08
  Integral threshold = 0.00e+00

  ==> Primary Basis <==

  Basis Set: AUG-CC-PV(Q+D)Z
    Blend: AUG-CC-PV(Q+D)Z
    Number of shells: 40
    Number of basis function: 160
    Number of Cartesian functions: 210
    Spherical Harmonics?: true
    Max angular momentum: 4

  ==> Pre-Iterations <==

   -------------------------------------------------------
    Irrep   Nso     Nmo     Nalpha   Nbeta   Ndocc  Nsocc
   -------------------------------------------------------
     A1        62      62       0       0       0       0
     A2        22      22       0       0       0       0
     B1        38      38       0       0       0       0
     B2        38      38       0       0       0       0
   -------------------------------------------------------
    Total     160     160       7       7       7       0
   -------------------------------------------------------

  ==> Integral Setup <==

  ==> DiskJK: Disk-Based J/K Matrices <==

    J tasked:                  Yes
    K tasked:                  Yes
    wK tasked:                  No
    Memory (MB):             22888
    Schwarz Cutoff:          1E-12

  Minimum eigenvalue in the overlap matrix is 1.0071996575E-04.
  Using Symmetric Orthogonalization.

  SCF Guess: Superposition of Atomic Densities via on-the-fly atomic UHF.

  ==> Iterations <==

                        Total Energy        Delta E     RMS |[F,P]|

   @RHF iter   0:  -112.45656954086017   -1.12457e+02   2.33404e-02 
   @RHF iter   1:  -112.72066288946172   -2.64093e-01   4.56659e-03 
   @RHF iter   2:  -112.74768996053506   -2.70271e-02   3.84245e-03 DIIS
   @RHF iter   3:  -112.78561305105738   -3.79231e-02   5.46221e-04 DIIS
   @RHF iter   4:  -112.78717775726830   -1.56471e-03   1.35025e-04 DIIS
   @RHF iter   5:  -112.78733492434463   -1.57167e-04   5.33366e-05 DIIS
   @RHF iter   6:  -112.78737912481621   -4.42005e-05   2.28333e-05 DIIS
   @RHF iter   7:  -112.78738940004571   -1.02752e-05   4.88819e-06 DIIS
   @RHF iter   8:  -112.78738967428629   -2.74241e-07   1.18742e-06 DIIS
   @RHF iter   9:  -112.78738968333910   -9.05281e-09   1.75988e-07 DIIS
   @RHF iter  10:  -112.78738968350848   -1.69379e-10   2.00383e-08 DIIS
   @RHF iter  11:  -112.78738968351129   -2.81375e-12   2.71180e-09 DIIS

  ==> Post-Iterations <==

    Orbital Energies (a.u.)
    -----------------------

    Doubly Occupied:                                                      

       1A1   -20.665722     2A1   -11.365273     3A1    -1.514406  
       4A1    -0.803695     1B2    -0.635727     1B1    -0.635727  
       5A1    -0.556139  

    Virtual:                                                              

       6A1     0.060338     2B1     0.062442     2B2     0.062442  
       7A1     0.074534     3B1     0.138609     3B2     0.138609  
       8A1     0.156552     4B1     0.166545     4B2     0.166545  
       9A1     0.227886     1A2     0.227886    10A1     0.228224  
      11A1     0.301982     5B1     0.319640     5B2     0.319640  
      12A1     0.392211     6B1     0.395990     6B2     0.395990  
      13A1     0.509648    14A1     0.535327     2A2     0.535327  
       7B1     0.623843     7B2     0.623843    15A1     0.643512  
       8B1     0.748565     8B2     0.748565    16A1     0.768224  
       3A2     0.768224    17A1     0.782628     9B1     0.822831  
       9B2     0.822831    18A1     0.873599    10B1     0.882378  
      10B2     0.882378    19A1     0.890514     4A2     0.890514  
      20A1     0.908136    11B1     1.076712    11B2     1.076712  
      21A1     1.190311    12B2     1.446768    12B1     1.446768  
      22A1     1.484191    23A1     1.519417     5A2     1.519417  
      13B1     1.555898    13B2     1.555898    24A1     1.669450  
      25A1     1.768064     6A2     1.768064    26A1     1.787089  
      14B1     1.804801    14B2     1.804801    15B1     1.978194  
      15B2     1.978194     7A2     2.104922    27A1     2.104922  
      28A1     2.168029     8A2     2.198332    29A1     2.198332  
      16B2     2.250992    16B1     2.250992    30A1     2.317853  
      17B2     2.325053    17B1     2.325053    18B2     2.359250  
      18B1     2.359250     9A2     2.362963    31A1     2.362963  
      32A1     2.501766    19B1     2.610338    19B2     2.610338  
      20B2     2.822795    20B1     2.822795    33A1     2.962539  
      10A2     3.001576    34A1     3.001576    35A1     3.519684  
      11A2     3.721770    36A1     3.721770    21B1     3.777785  
      21B2     3.777785    37A1     4.005652    22B2     4.083753  
      22B1     4.083753    12A2     4.181807    38A1     4.181807  
      23B1     4.212369    23B2     4.212369    24B2     4.272563  
      24B1     4.272563    39A1     4.330752    13A2     4.387154  
      40A1     4.387154    41A1     4.546824    25B2     4.788383  
      25B1     4.788383    14A2     5.149825    42A1     5.149825  
      26B2     5.158875    26B1     5.158875    43A1     5.177178  
      15A2     5.899383    44A1     5.899383    45A1     5.902677  
      27B1     6.126023    27B2     6.126023    28B2     6.245844  
      28B1     6.245844    16A2     6.304808    46A1     6.304808  
      29B2     6.342960    29B1     6.342960    47A1     6.425784  
      30B1     6.441501    30B2     6.441501    17A2     6.590417  
      48A1     6.590417    49A1     7.213697    18A2     7.312007  
      50A1     7.312007    31B2     7.483690    31B1     7.483690  
      51A1     8.232194    52A1     8.576311    32B2     8.608106  
      32B1     8.608106    19A2    10.602264    53A1    10.602264  
      33B2    10.875152    33B1    10.875152    20A2    11.127617  
      54A1    11.127617    34B2    11.141503    34B1    11.141503  
      55A1    11.373768    35B2    11.390436    35B1    11.390436  
      36B2    11.854840    36B1    11.854840    56A1    12.049999  
      21A2    12.282948    57A1    12.282948    37B2    12.737881  
      37B1    12.737881    22A2    12.907408    58A1    12.907408  
      59A1    13.783728    38B2    14.168820    38B1    14.168820  
      60A1    14.538746    61A1    24.986154    62A1    43.235489  

    Final Occupation by Irrep:
             A1    A2    B1    B2 
    DOCC [     5,    0,    1,    1 ]

  Energy converged.

  @RHF Final Energy:  -112.78738968351129

   => Energetics <=

    Nuclear Repulsion Energy =             22.3015211533720219
    One-Electron Energy =                -197.8244402979730694
    Two-Electron Energy =                  62.7355294610897545
    Total Energy =                       -112.7873896835112930



Properties will be evaluated at   0.000000,   0.000000,   0.000000 Bohr

Properties computed using the SCF density matrix

  Nuclear Dipole Moment: (a.u.)
     X:     0.0000      Y:     0.0000      Z:    -0.0023

  Electronic Dipole Moment: (a.u.)
     X:     0.0000      Y:     0.0000      Z:     0.1277

  Dipole Moment: (a.u.)
     X:     0.0000      Y:     0.0000      Z:     0.1253     Total:     0.1253

  Dipole Moment: (Debye)
     X:     0.0000      Y:     0.0000      Z:     0.3185     Total:     0.3185


*** tstop() called on cqc01 at Sun Apr 28 03:57:53 2019
Module time:
	user time   =       9.71 seconds =       0.16 minutes
	system time =       4.30 seconds =       0.07 minutes
	total time  =         49 seconds =       0.82 minutes
Total time:
	user time   =       9.71 seconds =       0.16 minutes
	system time =       4.30 seconds =       0.07 minutes
	total time  =         49 seconds =       0.82 minutes

*** tstart() called on cqc01
*** at Sun Apr 28 03:57:53 2019


	Wfn Parameters:
	--------------------
	Wavefunction         = CCSD
	Number of irreps     = 4
	Number of MOs        = 160
	Number of active MOs = 158
	AO-Basis             = NONE
	Semicanonical        = false
	Reference            = RHF
	Print Level          = 1

	IRREP	# MOs	# FZDC	# DOCC	# SOCC	# VIRT	# FZVR
	-----	-----	------	------	------	------	------
	 A1	   62	    2	    3	    0	    57	    0
	 A2	   22	    0	    0	    0	    22	    0
	 B1	   38	    0	    1	    0	    37	    0
	 B2	   38	    0	    1	    0	    37	    0
	Transforming integrals...
	IWL integrals will be deleted.
	(OO|OO)...
	Presorting SO-basis two-electron integrals.
	Sorting File: SO Ints (nn|nn) nbuckets = 1
	Transforming the one-electron integrals and constructing Fock matrices
	Starting first half-transformation.
	Sorting half-transformed integrals.
	First half integral transformation complete.
	Starting second half-transformation.
	Two-electron integral transformation complete.
	(OO|OV)...
	Starting second half-transformation.
	Two-electron integral transformation complete.
	(OO|VV)...
	Starting second half-transformation.
	Two-electron integral transformation complete.
	(OV|OO)...
	Starting first half-transformation.
	Sorting half-transformed integrals.
	First half integral transformation complete.
	Starting second half-transformation.
	Two-electron integral transformation complete.
	(OV|OV)...
	Starting second half-transformation.
	Two-electron integral transformation complete.
	(OV|VV)...
	Starting second half-transformation.
	Two-electron integral transformation complete.
	(VV|OO)...
	Starting first half-transformation.
	Sorting half-transformed integrals.
	First half integral transformation complete.
	Starting second half-transformation.
	Two-electron integral transformation complete.
	(VV|OV)...
	Starting second half-transformation.
	Two-electron integral transformation complete.
	(VV|VV)...
	Starting second half-transformation.
	Two-electron integral transformation complete.
	Frozen core energy     =   -102.61951541227710

	Size of irrep 0 of <ab|cd> integrals:     41.874 (MW) /    334.991 (MB)
	Size of irrep 1 of <ab|cd> integrals:     27.521 (MW) /    220.164 (MB)
	Size of irrep 2 of <ab|cd> integrals:     34.176 (MW) /    273.406 (MB)
	Size of irrep 3 of <ab|cd> integrals:     34.176 (MW) /    273.406 (MB)
	Total:                                   137.746 (MW) /   1101.966 (MB)

	Size of irrep 0 of <ia|bc> integrals:      1.585 (MW) /     12.683 (MB)
	Size of irrep 1 of <ia|bc> integrals:      0.734 (MW) /      5.876 (MB)
	Size of irrep 2 of <ia|bc> integrals:      1.111 (MW) /      8.886 (MB)
	Size of irrep 3 of <ia|bc> integrals:      1.111 (MW) /      8.886 (MB)
	Total:                                     4.541 (MW) /     36.331 (MB)

	Size of irrep 0 of tijab amplitudes:       0.071 (MW) /      0.569 (MB)
	Size of irrep 1 of tijab amplitudes:       0.010 (MW) /      0.084 (MB)
	Size of irrep 2 of tijab amplitudes:       0.035 (MW) /      0.281 (MB)
	Size of irrep 3 of tijab amplitudes:       0.035 (MW) /      0.281 (MB)
	Total:                                     0.152 (MW) /      1.215 (MB)

	Nuclear Rep. energy          =     22.30152115337202
	SCF energy                   =   -112.78738968351129
	One-electron energy          =    -56.64739896136074
	Two-electron energy          =     24.17800353675483
	Reference energy             =   -112.78738968351098

*** tstop() called on cqc01 at Sun Apr 28 04:00:13 2019
Module time:
	user time   =       8.34 seconds =       0.14 minutes
	system time =       4.53 seconds =       0.08 minutes
	total time  =        140 seconds =       2.33 minutes
Total time:
	user time   =      18.05 seconds =       0.30 minutes
	system time =       8.83 seconds =       0.15 minutes
	total time  =        189 seconds =       3.15 minutes

*** tstart() called on cqc01
*** at Sun Apr 28 04:00:13 2019

            **************************
            *                        *
            *        CCENERGY        *
            *                        *
            **************************

    Nuclear Rep. energy (wfn)     =   22.301521153372022
    SCF energy          (wfn)     = -112.787389683511293
    Reference energy    (file100) = -112.787389683510980

    Input parameters:
    -----------------
    Wave function   =     CCSD
    Reference wfn   =     RHF
    Brueckner       =     No
    Memory (Mbytes) =     32000.0
    Maxiter         =     50
    R_Convergence   =     1.0e-07
    E_Convergence   =     1.0e-06
    Restart         =     Yes
    DIIS            =     Yes
    AO Basis        =     NONE
    ABCD            =     NEW
    Cache Level     =     2
    Cache Type      =     LOW
    Print Level     =     1
    Num. of threads =     1
    # Amps to Print =     10
    Print MP2 Amps? =     No
    Analyze T2 Amps =     No
    Print Pair Ener =     No
    Local CC        =     No
    SCS-MP2         =     False
    SCSN-MP2        =     False
    SCS-CCSD        =     False

MP2 correlation energy -0.3855032108182689
                Solving CC Amplitude Equations
                ------------------------------
  Iter             Energy              RMS        T1Diag      D1Diag    New D1Diag    D2Diag
  ----     ---------------------    ---------   ----------  ----------  ----------   --------
     0        -0.385503210818263    0.000e+00    0.000000    0.000000    0.000000    0.148820
     1        -0.384920376033335    2.884e-01    0.032933    0.069857    0.069857    0.177358
     2        -0.393204488616613    6.883e-02    0.018190    0.037308    0.037308    0.168731
     3        -0.384766974928845    1.861e-02    0.019604    0.041086    0.041086    0.163722
     4        -0.383748044671404    4.266e-03    0.018771    0.039163    0.039163    0.162220
     5        -0.383887901103844    9.322e-04    0.018541    0.038696    0.038696    0.161842
     6        -0.383789384379440    3.159e-04    0.018467    0.038542    0.038542    0.161721
     7        -0.383794728818439    8.250e-05    0.018449    0.038505    0.038505    0.161731
     8        -0.383795108090138    2.394e-05    0.018444    0.038495    0.038495    0.161739
     9        -0.383793423058245    7.814e-06    0.018442    0.038491    0.038491    0.161741
    10        -0.383793531447962    2.053e-06    0.018442    0.038490    0.038490    0.161742
    11        -0.383793610194460    6.523e-07    0.018441    0.038490    0.038490    0.161742
    12        -0.383793627894138    2.004e-07    0.018441    0.038490    0.038490    0.161742
    13        -0.383793629175861    5.607e-08    0.018441    0.038490    0.038490    0.161742
    13        -0.383793629175861    5.607e-08    0.018441    0.038490    0.038490    0.161742

    Iterations converged.


    CCSD corr. energy   =   -0.383793629175861
    PPL corr. energy    =    0.096085616160719
    OS PPL corr. energy =    0.080144487603838
    SS PPL corr. energy =    0.015941128556882
    Largest TIA Amplitudes:
              4 117        -0.0283139646
              3  80        -0.0283139526
              4 120         0.0153006328
              3  83         0.0153006296
              4 116        -0.0093317016
              3  79        -0.0093316953
              2   4         0.0085679520
              4 118        -0.0084327064
              3  81        -0.0084326993
              3  87         0.0081050898

    Largest TIjAb Amplitudes:
      2   2  80  80        -0.0607202066
      2   2 117 117        -0.0607202050
      4   4 117 117        -0.0562865683
      3   3  80  80        -0.0562865670
      3   4  80 117        -0.0367096865
      4   3 117  80        -0.0367096865
      4   4 117 118        -0.0309027592
      4   4 118 117        -0.0309027592
      3   3  80  81        -0.0309027576
      3   3  81  80        -0.0309027576

    SCF energy       (wfn)                    = -112.787389683511293
    Reference energy (file100)                = -112.787389683510980

    Opposite-spin MP2 correlation energy      =   -0.290967024075585
    Same-spin MP2 correlation energy          =   -0.094536186742679
    MP2 correlation energy                    =   -0.385503210818269
      * MP2 total energy                      = -113.172892894329252

    Opposite-spin CCSD correlation energy     =   -0.302877383189497
    Same-spin CCSD correlation energy         =   -0.080916247643953
    CCSD correlation energy                   =   -0.383793629175861
      * CCSD total energy                     = -113.171183312686836


*** tstop() called on cqc01 at Sun Apr 28 04:08:39 2019
Module time:
	user time   =       6.60 seconds =       0.11 minutes
	system time =      13.24 seconds =       0.22 minutes
	total time  =        506 seconds =       8.43 minutes
Total time:
	user time   =      24.65 seconds =       0.41 minutes
	system time =      22.07 seconds =       0.37 minutes
	total time  =        695 seconds =      11.58 minutes

*** Psi4 exiting successfully. Buy a developer a beer!
