
    -----------------------------------------------------------------------
          Psi4: An Open-Source Ab Initio Electronic Structure Package
                               Psi4 1.4a3.dev88 

                         Git: Rev {master} 262e345 


    D. G. A. Smith, L. A. Burns, A. C. Simmonett, R. M. Parrish,
    M. C. Schieber, R. Galvelis, P. Kraus, H. Kruse, R. Di Remigio,
    A. Alenaizan, A. M. James, S. Lehtola, J. P. Misiewicz, M. Scheurer,
    R. A. Shaw, J. B. Schriber, Y. Xie, Z. L. Glick, D. A. Sirianni,
    J. S. O'Brien, J. M. Waldrop, A. Kumar, E. G. Hohenstein,
    B. P. Pritchard, B. R. Brooks, H. F. Schaefer III, A. Yu. Sokolov,
    K. Patkowski, A. E. DePrince III, U. Bozkaya, R. A. King,
    F. A. Evangelista, J. M. Turney, T. D. Crawford, C. D. Sherrill,
    J. Chem. Phys. 152(18) 184108 (2020). https://doi.org/10.1063/5.0006002

                            Additional Code Authors
    E. T. Seidl, C. L. Janssen, E. F. Valeev, M. L. Leininger,
    J. F. Gonthier, R. M. Richard, H. R. McAlexander, M. Saitow, X. Wang,
    P. Verma, and M. H. Lechner

             Previous Authors, Complete List of Code Contributors,
                       and Citations for Specific Modules
    https://github.com/psi4/psi4/blob/master/codemeta.json
    https://github.com/psi4/psi4/graphs/contributors
    http://psicode.org/psi4manual/master/introduction.html#citing-psifour

    -----------------------------------------------------------------------


    Psi4 started on: Saturday, 23 January 2021 10:06AM

    Process ID: 448081
    Host:       n412-047.vsc4.prov
    PSIDATADIR: /home/fs71337/gallo4/psi4/eri-6/psi4/build/stage/share/psi4
    Memory:     500.0 MiB
    Threads:    48
    
  ==> Input File <==

--------------------------------------------------------------------------
# Any line starting with the # character is a comment line
memory 250000 mb
molecule molecule{
-1 2
N          0.0000000000        0.0000000000        0.0696479824
H          0.0000000000        0.0000000000       -0.9678536371
}

set {
  reference uhf
  basis aug-cc-pV(6+d)Z
  scf_type OUT_OF_CORE
  freeze_core true
}

energy('ccsd(t)')
--------------------------------------------------------------------------

  Memory set to 232.831 GiB by Python driver.

Scratch directory: /binfl/lv71337/airmler/temp/

*** tstart() called on n412-047.vsc4.prov
*** at Sat Jan 23 10:06:53 2021

   => Loading Basis Set <=

    Name: AUG-CC-PV(6+D)Z
    Role: ORBITAL
    Keyword: BASIS
    atoms 1 entry N          line   363 file /home/fs71337/gallo4/psi4/eri-6/psi4/build/stage/share/psi4/basis/aug-cc-pv_6pd_z.gbs 
    atoms 2 entry H          line    51 file /home/fs71337/gallo4/psi4/eri-6/psi4/build/stage/share/psi4/basis/aug-cc-pv_6pd_z.gbs 


         ---------------------------------------------------------
                                   SCF
               by Justin Turney, Rob Parrish, Andy Simmonett
                          and Daniel G. A. Smith
                              UHF Reference
                       48 Threads, 238418 MiB Core
         ---------------------------------------------------------

  ==> Geometry <==

    Molecular point group: c2v
    Full point group: C_inf_v

    Geometry (in Angstrom), charge = -1, multiplicity = 2:

       Center              X                  Y                   Z               Mass       
    ------------   -----------------  -----------------  -----------------  -----------------
         N            0.000000000000     0.000000000000     0.069657393642    14.003074004430
         H            0.000000000000     0.000000000000    -0.967844225858     1.007825032230

  Running in c2v symmetry.

  Rotational constants: A = ************  B =     16.65778  C =     16.65778 [cm^-1]
  Rotational constants: A = ************  B = 499387.66564  C = 499387.66564 [MHz]
  Nuclear repulsion =    3.570346691579309

  Charge       = -1
  Multiplicity = 2
  Electrons    = 9
  Nalpha       = 5
  Nbeta        = 4

  ==> Algorithm <==

  SCF Algorithm Type is OUT_OF_CORE.
  DIIS enabled.
  MOM disabled.
  Fractional occupation disabled.
  Guess Type is SAD.
  Energy threshold   = 1.00e-08
  Density threshold  = 1.00e-08
  Integral threshold = 1.00e-12

  ==> Primary Basis <==

  Basis Set: AUG-CC-PV(6+D)Z
    Blend: AUG-CC-PV(6+D)Z
    Number of shells: 62
    Number of basis function: 316
    Number of Cartesian functions: 476
    Spherical Harmonics?: true
    Max angular momentum: 6

  ==> Integral Setup <==

  ==> DiskJK: Disk-Based J/K Matrices <==

    J tasked:                  Yes
    K tasked:                  Yes
    wK tasked:                  No
    Memory [MiB]:           178813
    Schwarz Cutoff:          1E-12

  Minimum eigenvalue in the overlap matrix is 3.6183579541E-06.
  Reciprocal condition number of the overlap matrix is 4.9481287827E-07.
    Using symmetric orthogonalization.

  ==> Pre-Iterations <==

  SCF Guess: Superposition of Atomic Densities via on-the-fly atomic UHF (no occupation information).


 WARNING: Atomic UHF is not converging! Try casting from a smaller basis or call Rob at CCMST.

 WARNING: Atomic UHF is not converging! Try casting from a smaller basis or call Rob at CCMST.
   -------------------------
    Irrep   Nso     Nmo    
   -------------------------
     A1       112     112 
     A2        50      50 
     B1        77      77 
     B2        77      77 
   -------------------------
    Total     316     316
   -------------------------

  ==> Iterations <==

                        Total Energy        Delta E     RMS |[F,P]|

   @UHF iter SAD:    38.35014781742108    3.83501e+01   0.00000e+00 
    Occupation by irrep:
             A1    A2    B1    B2 
    DOCC [     4,    0,    0,    0 ]
    SOCC [     0,    0,    0,    1 ]

   @UHF iter   1:   -53.72701094372755   -9.20772e+01   1.04316e-02 DIIS
    Occupation by irrep:
             A1    A2    B1    B2 
    DOCC [     3,    0,    1,    0 ]
    SOCC [     0,    0,    0,    1 ]

   @UHF iter   2:   -50.48339424294825    3.24362e+00   8.20414e-03 DIIS
   @UHF iter   3:   -54.28940195469591   -3.80601e+00   6.82592e-03 DIIS
   @UHF iter   4:   -54.64019417955201   -3.50792e-01   4.32593e-03 DIIS
   @UHF iter   5:   -54.91419755454826   -2.74003e-01   8.00353e-04 DIIS
   @UHF iter   6:   -54.93078129986737   -1.65837e-02   2.01113e-04 DIIS
   @UHF iter   7:   -54.93179472032999   -1.01342e-03   1.10051e-04 DIIS
   @UHF iter   8:   -54.93230826515734   -5.13545e-04   5.46159e-05 DIIS
   @UHF iter   9:   -54.93267838099170   -3.70116e-04   3.58372e-05 DIIS
   @UHF iter  10:   -54.93307188552436   -3.93505e-04   3.13950e-05 DIIS
   @UHF iter  11:   -54.93383116839933   -7.59283e-04   4.34807e-05 DIIS
   @UHF iter  12:   -54.93415990365074   -3.28735e-04   3.21265e-05 DIIS
   @UHF iter  13:   -54.93414898243836    1.09212e-05   3.00541e-05 DIIS
   @UHF iter  14:   -54.93430148204279   -1.52500e-04   3.08131e-05 DIIS
   @UHF iter  15:   -54.93274103624238    1.56045e-03   1.34068e-04 DIIS
   @UHF iter  16:   -54.93393257981998   -1.19154e-03   6.42305e-05 DIIS
   @UHF iter  17:   -54.93349381570660    4.38764e-04   8.04517e-05 DIIS
   @UHF iter  18:   -54.93338976731575    1.04048e-04   8.79475e-05 DIIS
   @UHF iter  19:   -54.93367910348820   -2.89336e-04   7.55098e-05 DIIS
   @UHF iter  20:   -54.93354685556002    1.32248e-04   8.42640e-05 DIIS
   @UHF iter  21:   -54.93363731535535   -9.04598e-05   7.68471e-05 DIIS
   @UHF iter  22:   -54.93366324072662   -2.59254e-05   7.87434e-05 DIIS
   @UHF iter  23:   -54.93384766644618   -1.84426e-04   6.47767e-05 DIIS
   @UHF iter  24:   -54.93406589594987   -2.18230e-04   6.32375e-05 DIIS
   @UHF iter  25:   -54.93447628355462   -4.10388e-04   6.40491e-05 DIIS
   @UHF iter  26:   -54.93362707137607    8.49212e-04   6.35850e-05 DIIS
   @UHF iter  27:   -54.93360436611256    2.27053e-05   6.63986e-05 DIIS
   @UHF iter  28:   -54.93336115216870    2.43214e-04   9.17811e-05 DIIS
   @UHF iter  29:   -54.93365941373312   -2.98262e-04   7.08701e-05 DIIS
   @UHF iter  30:   -54.93379546214567   -1.36048e-04   7.17564e-05 DIIS
   @UHF iter  31:   -54.93403463719038   -2.39175e-04   5.83302e-05 DIIS
   @UHF iter  32:   -54.93434985225209   -3.15215e-04   5.82601e-05 DIIS
   @UHF iter  33:   -54.93422661729704    1.23235e-04   5.00477e-05 DIIS
   @UHF iter  34:   -54.93349396387811    7.32653e-04   7.42257e-05 DIIS
   @UHF iter  35:   -54.93371033311539   -2.16369e-04   7.17378e-05 DIIS
   @UHF iter  36:   -54.93371987568791   -9.54257e-06   6.72232e-05 DIIS
   @UHF iter  37:   -54.93367359185290    4.62838e-05   7.10603e-05 DIIS
   @UHF iter  38:   -54.93371816656965   -4.45747e-05   6.84882e-05 DIIS
   @UHF iter  39:   -54.93368522539885    3.29412e-05   6.99493e-05 DIIS
   @UHF iter  40:   -54.93371218908172   -2.69637e-05   6.89345e-05 DIIS
   @UHF iter  41:   -54.93369033236412    2.18567e-05   6.96279e-05 DIIS
   @UHF iter  42:   -54.93370937898183   -1.90466e-05   6.90915e-05 DIIS
   @UHF iter  43:   -54.93369243087250    1.69481e-05   6.95120e-05 DIIS
   @UHF iter  44:   -54.93370794139769   -1.55105e-05   6.91677e-05 DIIS
   @UHF iter  45:   -54.93369345125259    1.44901e-05   6.94567e-05 DIIS
   @UHF iter  46:   -54.93370708821040   -1.36370e-05   6.92134e-05 DIIS
   @UHF iter  47:   -54.93369399093330    1.30973e-05   6.94271e-05 DIIS
   @UHF iter  48:   -54.93370653907500   -1.25481e-05   6.92435e-05 DIIS
   @UHF iter  49:   -54.93369428014712    1.22589e-05   6.94107e-05 DIIS
   @UHF iter  50:   -54.93370616876338   -1.18886e-05   6.92643e-05 DIIS
   @UHF iter  51:   -54.93369443065907    1.17381e-05   6.94018e-05 DIIS
   @UHF iter  52:   -54.93370591102200   -1.14804e-05   6.92792e-05 DIIS
   @UHF iter  53:   -54.93369450304682    1.14080e-05   6.93971e-05 DIIS
   @UHF iter  54:   -54.93370572753312   -1.12245e-05   6.92899e-05 DIIS
   @UHF iter  55:   -54.93369453172913    1.11958e-05   6.93948e-05 DIIS
   @UHF iter  56:   -54.93370559477887   -1.10630e-05   6.92979e-05 DIIS
   @UHF iter  57:   -54.93369453667131    1.10581e-05   6.93940e-05 DIIS
   @UHF iter  58:   -54.93370549763653   -1.09610e-05   6.93037e-05 DIIS
   @UHF iter  59:   -54.93369452949474    1.09681e-05   6.93939e-05 DIIS
   @UHF iter  60:   -54.93370542598034   -1.08965e-05   6.93081e-05 DIIS
   @UHF iter  61:   -54.93369451689688    1.09091e-05   6.93943e-05 DIIS
   @UHF iter  62:   -54.93370537281925   -1.08559e-05   6.93114e-05 DIIS
   @UHF iter  63:   -54.93369450263708    1.08702e-05   6.93948e-05 DIIS
   @UHF iter  64:   -54.93370533323566   -1.08306e-05   6.93138e-05 DIIS
   @UHF iter  65:   -54.93369448870569    1.08445e-05   6.93953e-05 DIIS
   @UHF iter  66:   -54.93370530367255   -1.08150e-05   6.93157e-05 DIIS
   @UHF iter  67:   -54.93369447608588    1.08276e-05   6.93959e-05 DIIS
   @UHF iter  68:   -54.93370528154900   -1.08055e-05   6.93170e-05 DIIS
   @UHF iter  69:   -54.93369446515101    1.08164e-05   6.93964e-05 DIIS
   @UHF iter  70:   -54.93370526497877   -1.07998e-05   6.93181e-05 DIIS
   @UHF iter  71:   -54.93369445595836    1.08090e-05   6.93968e-05 DIIS
   @UHF iter  72:   -54.93370525254846   -1.07966e-05   6.93189e-05 DIIS
   @UHF iter  73:   -54.93369444838421    1.08042e-05   6.93971e-05 DIIS
   @UHF iter  74:   -54.93370524321485   -1.07948e-05   6.93194e-05 DIIS
   @UHF iter  75:   -54.93369444225035    1.08010e-05   6.93974e-05 DIIS
   @UHF iter  76:   -54.93370523620516   -1.07940e-05   6.93199e-05 DIIS
   @UHF iter  77:   -54.93369443733170    1.07989e-05   6.93976e-05 DIIS
   @UHF iter  78:   -54.93370523093867   -1.07936e-05   6.93202e-05 DIIS
   @UHF iter  79:   -54.93369443343113    1.07975e-05   6.93978e-05 DIIS
   @UHF iter  80:   -54.93370522698257   -1.07936e-05   6.93205e-05 DIIS
   @UHF iter  81:   -54.93369443036217    1.07966e-05   6.93980e-05 DIIS
   @UHF iter  82:   -54.93370522400662   -1.07936e-05   6.93206e-05 DIIS
   @UHF iter  83:   -54.93369442795698    1.07960e-05   6.93981e-05 DIIS
   @UHF iter  84:   -54.93370522176695   -1.07938e-05   6.93208e-05 DIIS
   @UHF iter  85:   -54.93369442608620    1.07957e-05   6.93982e-05 DIIS
   @UHF iter  86:   -54.93370522008112   -1.07940e-05   6.93209e-05 DIIS
   @UHF iter  87:   -54.93369442463067    1.07955e-05   6.93983e-05 DIIS
   @UHF iter  88:   -54.93370521881459   -1.07942e-05   6.93210e-05 DIIS
   @UHF iter  89:   -54.93369442351330    1.07953e-05   6.93983e-05 DIIS
   @UHF iter  90:   -54.93370521785683   -1.07943e-05   6.93210e-05 DIIS
   @UHF iter  91:   -54.93369442264986    1.07952e-05   6.93983e-05 DIIS
   @UHF iter  92:   -54.93370521713933   -1.07945e-05   6.93211e-05 DIIS
   @UHF iter  93:   -54.93369442198863    1.07952e-05   6.93984e-05 DIIS
   @UHF iter  94:   -54.93370521660389   -1.07946e-05   6.93211e-05 DIIS
   @UHF iter  95:   -54.93369442147578    1.07951e-05   6.93984e-05 DIIS
   @UHF iter  96:   -54.93370521619464   -1.07947e-05   6.93211e-05 DIIS
   @UHF iter  97:   -54.93369442109145    1.07951e-05   6.93984e-05 DIIS
   @UHF iter  98:   -54.93370521588840   -1.07948e-05   6.93212e-05 DIIS
   @UHF iter  99:   -54.93369442079095    1.07951e-05   6.93984e-05 DIIS
   @UHF iter 100:   -54.93370521565669   -1.07949e-05   6.93212e-05 DIIS

PsiException: Could not converge SCF iterations in 100 iterations.

  Failed to converge.

Traceback (most recent call last):
  File "/home/fs71337/gallo4/psi4/eri-6/psi4/build/stage/bin/psi4", line 337, in <module>
    exec(content)
  File "<string>", line 31, in <module>
  File "/home/fs71337/gallo4/psi4/eri-6/psi4/build/stage/lib/psi4/driver/driver.py", line 576, in energy
    wfn = procedures['energy'][lowername](lowername, molecule=molecule, **kwargs)
  File "/home/fs71337/gallo4/psi4/eri-6/psi4/build/stage/lib/psi4/driver/procrouting/proc.py", line 957, in select_ccsd_t_
    return func(name, **kwargs)
  File "/home/fs71337/gallo4/psi4/eri-6/psi4/build/stage/lib/psi4/driver/procrouting/proc.py", line 2626, in run_ccenergy
    ref_wfn = scf_helper(name, **kwargs)  # C1 certified
  File "/home/fs71337/gallo4/psi4/eri-6/psi4/build/stage/lib/psi4/driver/procrouting/proc.py", line 1568, in scf_helper
    e_scf = scf_wfn.compute_energy()
  File "/home/fs71337/gallo4/psi4/eri-6/psi4/build/stage/lib/psi4/driver/procrouting/scf_proc/scf_iterator.py", line 93, in scf_compute_energy
    raise e
  File "/home/fs71337/gallo4/psi4/eri-6/psi4/build/stage/lib/psi4/driver/procrouting/scf_proc/scf_iterator.py", line 86, in scf_compute_energy
    self.iterations()
  File "/home/fs71337/gallo4/psi4/eri-6/psi4/build/stage/lib/psi4/driver/procrouting/scf_proc/scf_iterator.py", line 464, in scf_iterate
    raise SCFConvergenceError("""SCF iterations""", self.iteration_, self, Ediff, Dnorm)

psi4.driver.p4util.exceptions.SCFConvergenceError: Could not converge SCF iterations in 100 iterations.


Printing out the relevant lines from the Psithon --> Python processed input file:
    core.IO.set_default_namespace("molecule")
    core.set_global_option("REFERENCE", "uhf")
    core.set_global_option("BASIS", "aug-cc-pV(6+d)Z")
    core.set_global_option("SCF_TYPE", "OUT_OF_CORE")
    core.set_global_option("FREEZE_CORE", "true")
--> energy('ccsd(t)')

!-------------------------------------------------------!
!                                                       !
!  Could not converge SCF iterations in 100 iterations. !
!                                                       !
!-------------------------------------------------------!

    Psi4 stopped on: Saturday, 23 January 2021 10:30AM
    Psi4 wall time for execution: 0:23:27.00

*** Psi4 encountered an error. Buy a developer more coffee!
*** Resources and help at github.com/psi4/psi4.
