
    -----------------------------------------------------------------------
          Psi4: An Open-Source Ab Initio Electronic Structure Package
                               Psi4 1.4a3.dev88 

                         Git: Rev {master} 262e345 


    D. G. A. Smith, L. A. Burns, A. C. Simmonett, R. M. Parrish,
    M. C. Schieber, R. Galvelis, P. Kraus, H. Kruse, R. Di Remigio,
    A. Alenaizan, A. M. James, S. Lehtola, J. P. Misiewicz, M. Scheurer,
    R. A. Shaw, J. B. Schriber, Y. Xie, Z. L. Glick, D. A. Sirianni,
    J. S. O'Brien, J. M. Waldrop, A. Kumar, E. G. Hohenstein,
    B. P. Pritchard, B. R. Brooks, H. F. Schaefer III, A. Yu. Sokolov,
    K. Patkowski, A. E. DePrince III, U. Bozkaya, R. A. King,
    F. A. Evangelista, J. M. Turney, T. D. Crawford, C. D. Sherrill,
    J. Chem. Phys. 152(18) 184108 (2020). https://doi.org/10.1063/5.0006002

                            Additional Code Authors
    E. T. Seidl, C. L. Janssen, E. F. Valeev, M. L. Leininger,
    J. F. Gonthier, R. M. Richard, H. R. McAlexander, M. Saitow, X. Wang,
    P. Verma, and M. H. Lechner

             Previous Authors, Complete List of Code Contributors,
                       and Citations for Specific Modules
    https://github.com/psi4/psi4/blob/master/codemeta.json
    https://github.com/psi4/psi4/graphs/contributors
    http://psicode.org/psi4manual/master/introduction.html#citing-psifour

    -----------------------------------------------------------------------


    Psi4 started on: Thursday, 28 January 2021 05:01PM

    Process ID: 286155
    Host:       n412-049.vsc4.prov
    PSIDATADIR: /home/fs71337/gallo4/psi4/eri-6/psi4/build/stage/share/psi4
    Memory:     500.0 MiB
    Threads:    1
    
  ==> Input File <==

--------------------------------------------------------------------------
# Any line starting with the # character is a comment line
memory 250000 mb
molecule molecule{
0 2
O          0.0000000000       -0.0289459853        0.5529111539
C          0.0000000000        0.1015352015       -0.6237171836
H          0.0000000000       -0.7504622383       -1.3441074102
}

set {
  reference uhf
  basis aug-cc-pV(t+d)Z
  scf_type OUT_OF_CORE
  freeze_core true
  DOCC [     6,    1 ]
  SOCC [     1,    0 ]
}

energy('ccsd(t)')
--------------------------------------------------------------------------

  Memory set to 232.831 GiB by Python driver.

Scratch directory: /binfl/lv71337/airmler/temp/

*** tstart() called on n412-049.vsc4.prov
*** at Thu Jan 28 17:01:11 2021

   => Loading Basis Set <=

    Name: AUG-CC-PV(T+D)Z
    Role: ORBITAL
    Keyword: BASIS
    atoms 1 entry O          line   359 file /home/fs71337/gallo4/psi4/eri-6/psi4/build/stage/share/psi4/basis/aug-cc-pv_tpd_z.gbs 
    atoms 2 entry C          line   267 file /home/fs71337/gallo4/psi4/eri-6/psi4/build/stage/share/psi4/basis/aug-cc-pv_tpd_z.gbs 
    atoms 3 entry H          line    68 file /home/fs71337/gallo4/psi4/eri-6/psi4/build/stage/share/psi4/basis/aug-cc-pv_tpd_z.gbs 


         ---------------------------------------------------------
                                   SCF
               by Justin Turney, Rob Parrish, Andy Simmonett
                          and Daniel G. A. Smith
                              UHF Reference
                        1 Threads, 238418 MiB Core
         ---------------------------------------------------------

  ==> Geometry <==

    Molecular point group: cs
    Full point group: Cs

    Geometry (in Angstrom), charge = 0, multiplicity = 2:

       Center              X                  Y                   Z               Mass       
    ------------   -----------------  -----------------  -----------------  -----------------
         O            0.028914927029    -0.552754775513     0.000000000000    15.994914619570
         C           -0.101566259771     0.623873561987     0.000000000000    12.000000000000
         H            0.750431180029     1.344263788587     0.000000000000     1.007825032230

  Running in cs symmetry.

  Rotational constants: A =     23.92120  B =      1.48149  C =      1.39509 [cm^-1]
  Rotational constants: A = 717139.62957  B =  44413.86918  C =  41823.64829 [MHz]
  Nuclear repulsion =   26.387569961732233

  Charge       = 0
  Multiplicity = 2
  Electrons    = 15
  Nalpha       = 8
  Nbeta        = 7

  ==> Algorithm <==

  SCF Algorithm Type is OUT_OF_CORE.
  DIIS enabled.
  MOM disabled.
  Fractional occupation disabled.
  Guess Type is SAD.
  Energy threshold   = 1.00e-08
  Density threshold  = 1.00e-08
  Integral threshold = 1.00e-12

  ==> Primary Basis <==

  Basis Set: AUG-CC-PV(T+D)Z
    Blend: AUG-CC-PV(T+D)Z
    Number of shells: 37
    Number of basis function: 115
    Number of Cartesian functions: 135
    Spherical Harmonics?: true
    Max angular momentum: 3

  ==> Integral Setup <==

  ==> DiskJK: Disk-Based J/K Matrices <==

    J tasked:                  Yes
    K tasked:                  Yes
    wK tasked:                  No
    Memory [MiB]:           178813
    Schwarz Cutoff:          1E-12

  Minimum eigenvalue in the overlap matrix is 1.5508412935E-04.
  Reciprocal condition number of the overlap matrix is 2.3433618923E-05.
    Using symmetric orthogonalization.

  ==> Pre-Iterations <==

  SCF Guess: Superposition of Atomic Densities via on-the-fly atomic UHF (no occupation information).

   -------------------------
    Irrep   Nso     Nmo    
   -------------------------
     A'        76      76 
     A"        39      39 
   -------------------------
    Total     115     115
   -------------------------

  ==> Iterations <==

                        Total Energy        Delta E     RMS |[F,P]|

   @UHF iter SAD:  -112.43502976765235   -1.12435e+02   0.00000e+00 
   @UHF iter   1:  -113.24365937767452   -8.08630e-01   4.03953e-03 DIIS
   @UHF iter   2:  -113.26321858543800   -1.95592e-02   3.44975e-03 DIIS
   @UHF iter   3:  -113.29256119116880   -2.93426e-02   3.81950e-04 DIIS
   @UHF iter   4:  -113.29353014531300   -9.68954e-04   9.58154e-05 DIIS
   @UHF iter   5:  -113.29362571999364   -9.55747e-05   3.84804e-05 DIIS
   @UHF iter   6:  -113.29364816974555   -2.24498e-05   2.16878e-05 DIIS
   @UHF iter   7:  -113.29365746592332   -9.29618e-06   1.74503e-05 DIIS
   @UHF iter   8:  -113.29366727120347   -9.80528e-06   1.42839e-05 DIIS
   @UHF iter   9:  -113.29368214543011   -1.48742e-05   7.98964e-06 DIIS
   @UHF iter  10:  -113.29368773797019   -5.59254e-06   2.97415e-06 DIIS
   @UHF iter  11:  -113.29368813516842   -3.97198e-07   1.30642e-06 DIIS
   @UHF iter  12:  -113.29368818160867   -4.64402e-08   5.71963e-07 DIIS
   @UHF iter  13:  -113.29368818817804   -6.56937e-09   3.00490e-07 DIIS
   @UHF iter  14:  -113.29368819009929   -1.92125e-09   1.80921e-07 DIIS
   @UHF iter  15:  -113.29368819098340   -8.84114e-10   7.00196e-08 DIIS
   @UHF iter  16:  -113.29368819111777   -1.34364e-10   2.20792e-08 DIIS
   @UHF iter  17:  -113.29368819112716   -9.39337e-12   7.45453e-09 DIIS
  Energy and wave function converged.


  ==> Post-Iterations <==

   @Spin Contamination Metric:   1.644106665E-02
   @S^2 Expected:                7.500000000E-01
   @S^2 Observed:                7.664410667E-01
   @S   Expected:                5.000000000E-01
   @S   Observed:                5.000000000E-01

    Orbital Energies [Eh]
    ---------------------

    Alpha Occupied:                                                       

       1Ap   -20.623687     2Ap   -11.359616     3Ap    -1.458145  
       4Ap    -0.863067     5Ap    -0.713250     6Ap    -0.650972  
       1App   -0.574528     7Ap    -0.396926  

    Alpha Virtual:                                                        

       8Ap     0.027635     2App    0.062184     9Ap     0.076087  
      10Ap     0.081047     3App    0.127176    11Ap     0.132912  
      12Ap     0.176925    13Ap     0.192185     4App    0.205910  
      14Ap     0.236049    15Ap     0.260021     5App    0.265773  
      16Ap     0.313608    17Ap     0.331597     6App    0.346068  
      18Ap     0.382587    19Ap     0.413249     7App    0.421908  
      20Ap     0.441103    21Ap     0.520899     8App    0.530335  
      22Ap     0.589157    23Ap     0.644805    24Ap     0.723172  
       9App    0.761007    25Ap     0.774887    26Ap     0.827871  
      10App    0.838717    27Ap     0.865602    11App    0.871305  
      28Ap     0.922549    29Ap     0.959069    12App    0.966721  
      30Ap     1.005797    31Ap     1.024442    13App    1.042820  
      14App    1.078356    32Ap     1.093682    15App    1.191100  
      33Ap     1.205866    34Ap     1.250771    35Ap     1.289609  
      16App    1.311687    36Ap     1.341003    37Ap     1.404909  
      17App    1.410961    18App    1.491066    38Ap     1.509800  
      39Ap     1.567516    40Ap     1.664412    19App    1.844244  
      41Ap     1.929678    42Ap     2.006210    43Ap     2.196557  
      20App    2.215656    21App    2.278620    44Ap     2.278801  
      45Ap     2.419820    22App    2.424268    46Ap     2.468017  
      47Ap     2.535392    23App    2.643437    24App    2.677657  
      48Ap     2.690329    49Ap     2.752888    50Ap     2.831573  
      51Ap     3.006623    25App    3.029128    26App    3.241307  
      52Ap     3.241592    53Ap     3.362798    27App    3.428236  
      54Ap     3.473367    28App    3.503612    55Ap     3.527047  
      56Ap     3.643208    29App    3.729334    57Ap     3.878180  
      30App    3.974237    58Ap     4.028730    59Ap     4.101711  
      60Ap     4.148926    31App    4.223097    61Ap     4.562880  
      32App    4.592661    62Ap     4.790676    63Ap     4.975746  
      33App    5.073922    34App    5.148222    64Ap     5.324358  
      65Ap     5.441382    66Ap     5.612995    67Ap     6.231373  
      68Ap     6.531896    35App    6.532081    36App    6.821975  
      69Ap     6.849227    37App    7.070664    38App    7.104191  
      70Ap     7.123626    71Ap     7.246680    72Ap     7.308059  
      39App    7.488892    73Ap     7.605336    74Ap     7.642514  
      75Ap    14.567714    76Ap    14.759341  

    Beta Occupied:                                                        

       1Ap   -20.612084     2Ap   -11.340206     3Ap    -1.429972  
       4Ap    -0.801596     5Ap    -0.667251     1App   -0.576676  
       6Ap    -0.525119  

    Beta Virtual:                                                         

       7Ap     0.028426     8Ap     0.055586     2App    0.065945  
       9Ap     0.076479    10Ap     0.115641    11Ap     0.140815  
       3App    0.146235    12Ap     0.177982    13Ap     0.198299  
       4App    0.206239    14Ap     0.255022    15Ap     0.266681  
       5App    0.275182    16Ap     0.319160    17Ap     0.341221  
       6App    0.349097    18Ap     0.387793     7App    0.421933  
      19Ap     0.423509    20Ap     0.468444    21Ap     0.535504  
       8App    0.541126    22Ap     0.604753    23Ap     0.680636  
      24Ap     0.738475     9App    0.762390    25Ap     0.779008  
      10App    0.842267    26Ap     0.853078    27Ap     0.876367  
      11App    0.886838    28Ap     0.938302    29Ap     0.964094  
      12App    0.969647    30Ap     1.015210    31Ap     1.043290  
      13App    1.068652    14App    1.083050    32Ap     1.121851  
      15App    1.197817    33Ap     1.227299    34Ap     1.261958  
      35Ap     1.302175    16App    1.321063    36Ap     1.356061  
      37Ap     1.415119    17App    1.416208    18App    1.498520  
      38Ap     1.528466    39Ap     1.577956    40Ap     1.688201  
      19App    1.852698    41Ap     1.943553    42Ap     2.024327  
      43Ap     2.199329    20App    2.218138    21App    2.292193  
      44Ap     2.293742    22App    2.426068    45Ap     2.435744  
      46Ap     2.473719    47Ap     2.547327    23App    2.652952  
      24App    2.680482    48Ap     2.725623    49Ap     2.767173  
      50Ap     2.850749    51Ap     3.024068    25App    3.036225  
      52Ap     3.263982    26App    3.265120    53Ap     3.395558  
      27App    3.451926    54Ap     3.492611    28App    3.530352  
      55Ap     3.553135    56Ap     3.671299    29App    3.750981  
      57Ap     3.897647    30App    3.980810    58Ap     4.057858  
      59Ap     4.114853    60Ap     4.169125    31App    4.233743  
      61Ap     4.578735    32App    4.607233    62Ap     4.811492  
      63Ap     4.994307    33App    5.084354    34App    5.152571  
      64Ap     5.337290    65Ap     5.455680    66Ap     5.633268  
      67Ap     6.243382    68Ap     6.543252    35App    6.543383  
      36App    6.830800    69Ap     6.858629    37App    7.072815  
      38App    7.127659    70Ap     7.144098    71Ap     7.257866  
      72Ap     7.324625    39App    7.489585    73Ap     7.630080  
      74Ap     7.651426    75Ap    14.581042    76Ap    14.769499  

    Final Occupation by Irrep:
             Ap   App 
    DOCC [     6,    1 ]
    SOCC [     1,    0 ]

  @UHF Final Energy:  -113.29368819112716

   => Energetics <=

    Nuclear Repulsion Energy =             26.3875699617322326
    One-Electron Energy =                -206.7694233886743405
    Two-Electron Energy =                  67.0881652358149552
    Total Energy =                       -113.2936881911271598

  UHF NO Occupations:
  HONO-2 :    1App 1.9979027
  HONO-1 :    6 Ap 1.9958053
  HONO-0 :    7 Ap 1.0000000
  LUNO+0 :    8 Ap 0.0041947
  LUNO+1 :    2App 0.0020973
  LUNO+2 :    9 Ap 0.0016858
  LUNO+3 :   10 Ap 0.0002217


Computation Completed


Properties will be evaluated at   0.000000,   0.000000,   0.000000 [a0]

Properties computed using the SCF density matrix

  Nuclear Dipole Moment: [e a0]
     X:     0.7036      Y:     1.2576      Z:     0.0000

  Electronic Dipole Moment: [e a0]
     X:    -0.4136      Y:    -0.4450      Z:     0.0000

  Dipole Moment: [e a0]
     X:     0.2901      Y:     0.8125      Z:     0.0000     Total:     0.8628

  Dipole Moment: [D]
     X:     0.7373      Y:     2.0653      Z:     0.0000     Total:     2.1929


*** tstop() called on n412-049.vsc4.prov at Thu Jan 28 17:01:28 2021
Module time:
	user time   =      11.43 seconds =       0.19 minutes
	system time =       1.92 seconds =       0.03 minutes
	total time  =         17 seconds =       0.28 minutes
Total time:
	user time   =      11.43 seconds =       0.19 minutes
	system time =       1.92 seconds =       0.03 minutes
	total time  =         17 seconds =       0.28 minutes

*** tstart() called on n412-049.vsc4.prov
*** at Thu Jan 28 17:01:28 2021


	Wfn Parameters:
	--------------------
	Wavefunction         = CCSD_T
	Number of irreps     = 2
	Number of MOs        = 115
	Number of active MOs = 113
	AO-Basis             = NONE
	Semicanonical        = false
	Reference            = UHF
	Print Level          = 1

	IRREP	# MOs	# FZDC	# DOCC	# SOCC	# VIRT	# FZVR
	-----	-----	------	------	------	------	------
	 Ap	   76	    2	    4	    1	    69	    0
	 App	   39	    0	    1	    0	    38	    0
	Transforming integrals...
	IWL integrals will be deleted.
	(OO|OO)...
	Presorting SO-basis two-electron integrals.
	Sorting File: SO Ints (nn|nn) nbuckets = 1
	Constructing frozen core operators
	Starting AA/AB first half-transformation.
	Sorting AA/AB half-transformed integrals.
	Starting BB first half-transformation.
	Sorting BB half-transformed integrals.
	First half integral transformation complete.
	Starting AA second half-transformation.
	Starting AB second half-transformation.
	Starting BB second half-transformation.
	Two-electron integral transformation complete.
	(OO|OV)...
	Starting AA second half-transformation.
	Starting AB second half-transformation.
	Starting BB second half-transformation.
	Two-electron integral transformation complete.
	(OO|VV)...
	Starting AA second half-transformation.
	Starting AB second half-transformation.
	Starting BB second half-transformation.
	Two-electron integral transformation complete.
	(OV|OO)...
	Starting AA/AB first half-transformation.
	Sorting AA/AB half-transformed integrals.
	Starting BB first half-transformation.
	Sorting BB half-transformed integrals.
	First half integral transformation complete.
	Starting AA second half-transformation.
	Starting AB second half-transformation.
	Starting BB second half-transformation.
	Two-electron integral transformation complete.
	(OV|OV)...
	Starting AA second half-transformation.
	Starting AB second half-transformation.
	Starting BB second half-transformation.
	Two-electron integral transformation complete.
	(OV|VV)...
	Starting AA second half-transformation.
	Starting AB second half-transformation.
	Starting BB second half-transformation.
	Two-electron integral transformation complete.
	(VV|OO)...
	Starting AA/AB first half-transformation.
	Sorting AA/AB half-transformed integrals.
	Starting BB first half-transformation.
	Sorting BB half-transformed integrals.
	First half integral transformation complete.
	Starting AA second half-transformation.
	Starting AB second half-transformation.
	Starting BB second half-transformation.
	Two-electron integral transformation complete.
	(VV|OV)...
	Starting AA second half-transformation.
	Starting AB second half-transformation.
	Starting BB second half-transformation.
	Two-electron integral transformation complete.
	(VV|VV)...
	Starting AA second half-transformation.
	Starting AB second half-transformation.
	Starting BB second half-transformation.
	Two-electron integral transformation complete.
	Frozen core energy     =   -103.66339006380092

	Size of irrep 0 of <AB|CD> integrals:      9.296 (MW) /     74.371 (MB)
	Size of irrep 1 of <AB|CD> integrals:      6.875 (MW) /     54.999 (MB)
	Total:                                    16.171 (MW) /    129.370 (MB)

	Size of irrep 0 of <ab|cd> integrals:      9.722 (MW) /     77.775 (MB)
	Size of irrep 1 of <ab|cd> integrals:      7.076 (MW) /     56.605 (MB)
	Total:                                    16.798 (MW) /    134.380 (MB)

	Size of irrep 0 of <Ab|Cd> integrals:     39.363 (MW) /    314.905 (MB)
	Size of irrep 1 of <Ab|Cd> integrals:     27.900 (MW) /    223.196 (MB)
	Total:                                    67.263 (MW) /    538.101 (MB)

	Size of irrep 0 of <IA|BC> integrals:      2.377 (MW) /     19.012 (MB)
	Size of irrep 1 of <IA|BC> integrals:      1.358 (MW) /     10.866 (MB)
	Total:                                     3.735 (MW) /     29.878 (MB)

	Size of irrep 0 of <ia|bc> integrals:      2.017 (MW) /     16.139 (MB)
	Size of irrep 1 of <ia|bc> integrals:      1.181 (MW) /      9.448 (MB)
	Total:                                     3.198 (MW) /     25.587 (MB)

	Size of irrep 0 of <Ia|Bc> integrals:      2.434 (MW) /     19.474 (MB)
	Size of irrep 1 of <Ia|Bc> integrals:      1.373 (MW) /     10.987 (MB)
	Total:                                     3.808 (MW) /     30.461 (MB)

	Size of irrep 0 of <iA|bC> integrals:      1.970 (MW) /     15.760 (MB)
	Size of irrep 1 of <iA|bC> integrals:      1.167 (MW) /      9.339 (MB)
	Total:                                     3.137 (MW) /     25.099 (MB)

	Size of irrep 0 of tIjAb amplitudes:       0.132 (MW) /      1.054 (MB)
	Size of irrep 1 of tIjAb amplitudes:       0.048 (MW) /      0.380 (MB)
	Total:                                     0.179 (MW) /      1.434 (MB)

	Nuclear Rep. energy          =     26.38756996173223
	SCF energy                   =   -113.29368819112716
	One-electron energy          =    -63.37823547911875
	Two-electron (AA) energy     =      6.63949256281206
	Two-electron (BB) energy     =      4.66794382101555
	Two-electron (AB) energy     =     16.05293100623160
	Two-electron energy          =     27.36036739005921
	Reference energy             =   -113.29368819112823

*** tstop() called on n412-049.vsc4.prov at Thu Jan 28 17:01:55 2021
Module time:
	user time   =       8.80 seconds =       0.15 minutes
	system time =       6.25 seconds =       0.10 minutes
	total time  =         27 seconds =       0.45 minutes
Total time:
	user time   =      20.23 seconds =       0.34 minutes
	system time =       8.17 seconds =       0.14 minutes
	total time  =         44 seconds =       0.73 minutes
            **************************
            *                        *
            *        CCENERGY        *
            *                        *
            **************************

    Nuclear Rep. energy (wfn)     =   26.387569961732233
    SCF energy          (wfn)     = -113.293688191127160
    Reference energy    (file100) = -113.293688191128226

    Input parameters:
    -----------------
    Wave function   =     CCSD_T
    Reference wfn   =     UHF
    Brueckner       =     No
    Memory (Mbytes) =     250000.0
    Maxiter         =     50
    R_Convergence   =     1.0e-07
    E_Convergence   =     1.0e-06
    Restart         =     Yes
    DIIS            =     Yes
    AO Basis        =     NONE
    ABCD            =     NEW
    Cache Level     =     2
    Cache Type      =     LRU
    Print Level     =     1
    Num. of threads =     1
    # Amps to Print =     10
    Print MP2 Amps? =     No
    Analyze T2 Amps =     No
    Print Pair Ener =     No
    Local CC        =     No
    SCS-MP2         =     False
    SCSN-MP2        =     False
    SCS-CCSD        =     False

MP2 correlation energy -0.3750027805434575
                Solving CC Amplitude Equations
                ------------------------------
  Iter             Energy              RMS        T1Diag      D1Diag    New D1Diag    D2Diag
  ----     ---------------------    ---------   ----------  ----------  ----------   --------
     0        -0.375002780543458    0.000e+00    0.000000    0.000000    0.000000    0.000000
     1        -0.364943137883817    9.631e-02    0.023583    0.000000    0.000000    0.000000
     2        -0.377526212248728    3.230e-02    0.022778    0.000000    0.000000    0.000000
     3        -0.381187849251315    1.910e-02    0.029113    0.000000    0.000000    0.000000
     4        -0.380803308989247    5.995e-03    0.031021    0.000000    0.000000    0.000000
     5        -0.380825416338313    3.145e-03    0.032222    0.000000    0.000000    0.000000
     6        -0.380851837335380    1.252e-03    0.032551    0.000000    0.000000    0.000000
     7        -0.380850088660206    5.506e-04    0.032616    0.000000    0.000000    0.000000
     8        -0.380856454422190    2.014e-04    0.032639    0.000000    0.000000    0.000000
     9        -0.380857040334356    6.502e-05    0.032641    0.000000    0.000000    0.000000
    10        -0.380855054128012    2.589e-05    0.032641    0.000000    0.000000    0.000000
    11        -0.380855668744435    1.164e-05    0.032640    0.000000    0.000000    0.000000
    12        -0.380855447515825    5.259e-06    0.032641    0.000000    0.000000    0.000000
    13        -0.380855548012194    2.386e-06    0.032641    0.000000    0.000000    0.000000
    14        -0.380855622479549    9.705e-07    0.032641    0.000000    0.000000    0.000000
    15        -0.380855595459507    4.089e-07    0.032641    0.000000    0.000000    0.000000
    16        -0.380855592653681    1.929e-07    0.032641    0.000000    0.000000    0.000000
    17        -0.380855590736822    8.669e-08    0.032641    0.000000    0.000000    0.000000

    Iterations converged.


    Largest TIA Amplitudes:
              5  70        -0.0211895530
              4   6         0.0163509462
              4   2         0.0134870362
              5  81         0.0127121065
              5  75        -0.0104291101
              5  69        -0.0095886505
              4   5         0.0091336067
              3   5         0.0082011395
              2  15        -0.0076416021
              2  11        -0.0075716296

    Largest Tia Amplitudes:
              4  71        -0.0448293490
              3   3        -0.0423208796
              3   1         0.0397858340
              4  70        -0.0214589798
              3   4        -0.0213576464
              4  76        -0.0169096784
              3   7        -0.0154255820
              3  15         0.0125599788
              4  74        -0.0124748884
              3  10         0.0119464001

    Largest TIJAB Amplitudes:
      5   3  70  16         0.0095669227
      5   2  70  16         0.0086573511
      5   4  70  15         0.0084505340
      5   3  70  22        -0.0070159429
      5   4  69  15         0.0069477806
      5   4  70  18         0.0065457693
      5   3  69  13        -0.0065378003
      5   3  70  13        -0.0063561019
      5   4  70  32         0.0061035375
      5   3  70  14        -0.0058598089

    Largest Tijab Amplitudes:
      4   3  71   1         0.0182707767
      4   3  71   3        -0.0170726675
      4   3  71  13         0.0119713923
      4   3  70   1         0.0115734545
      4   2  71  17         0.0111632535
      4   3  71   7        -0.0109185165
      4   3  72   1         0.0097685691
      3   2  17   3        -0.0096660678
      4   3  70   3        -0.0096098352
      4   3  71   4        -0.0094314211

    Largest TIjAb Amplitudes:
      5   4  70  71        -0.0509469606
      5   4  69  71        -0.0356146919
      5   3  70   1         0.0294893891
      5   4  70  70        -0.0288455166
      5   3  70   3        -0.0275878343
      5   4  70  72        -0.0233069789
      1   1  70  71        -0.0226061121
      5   4  69  70        -0.0221084799
      5   3  69   1         0.0220272826
      5   4  71  71        -0.0206682766

    SCF energy       (wfn)                    = -113.293688191127160
    Reference energy (file100)                = -113.293688191128226

    Opposite-spin MP2 correlation energy      =   -0.280087539821411
    Same-spin MP2 correlation energy          =   -0.094915240722047
    Singles MP2 correlation energy            =   -0.000000000000000
    MP2 correlation energy                    =   -0.375002780543458
      * MP2 total energy                      = -113.668690971671680

    Opposite-spin CCSD correlation energy     =   -0.298048981851169
    Same-spin CCSD correlation energy         =   -0.082806608885655
    Singles CCSD correlation energy           =    0.000000000000001
    CCSD correlation energy                   =   -0.380855590736822
      * CCSD total energy                     = -113.674543781865054

            **************************
            *                        *
            *        CCTRIPLES       *
            *                        *
            **************************


    Wave function   =    CCSD_T
    Reference wfn   =      UHF

    Nuclear Rep. energy (wfn)                =   26.387569961732233
    SCF energy          (wfn)                = -113.293688191127160
    Reference energy    (file100)            = -113.293688191128226
    CCSD energy         (file100)            =   -0.380855590736822
    Total CCSD energy   (file100)            = -113.674543781865054

    Number of ijk index combinations:
    Spin Case AAA:                                  20
    Spin Case BBB:                                  10
    Spin Case AAB:                                  75
    Spin Case ABB:                                  60
    AAA (T) energy                             =   -0.000401088545082
    BBB (T) energy                             =   -0.000429614445636
    AAB (T) energy                             =   -0.008693714605455
    ABB (T) energy                             =   -0.008430893661829
    (T) energy                                   =   -0.017955311258002
      * CCSD(T) total energy                     = -113.692499093123047


    Psi4 stopped on: Thursday, 28 January 2021 05:02PM
    Psi4 wall time for execution: 0:01:48.21

*** Psi4 exiting successfully. Buy a developer a beer!
