
    -----------------------------------------------------------------------
          Psi4: An Open-Source Ab Initio Electronic Structure Package
                               Psi4 1.2a1.dev938 

                         Git: Rev {HEAD} fc51d9a dirty


    R. M. Parrish, L. A. Burns, D. G. A. Smith, A. C. Simmonett,
    A. E. DePrince III, E. G. Hohenstein, U. Bozkaya, A. Yu. Sokolov,
    R. Di Remigio, R. M. Richard, J. F. Gonthier, A. M. James,
    H. R. McAlexander, A. Kumar, M. Saitow, X. Wang, B. P. Pritchard,
    P. Verma, H. F. Schaefer III, K. Patkowski, R. A. King, E. F. Valeev,
    F. A. Evangelista, J. M. Turney, T. D. Crawford, and C. D. Sherrill,
    J. Chem. Theory Comput. 13(7) pp 3185--3197 (2017).
    (doi: 10.1021/acs.jctc.7b00174)

    -----------------------------------------------------------------------


    Psi4 started on: Thursday, 20 August 2020 08:10PM

    Process ID: 424062
    PSIDATADIR: /home/irmler/Programs/psi4/beforeGrueneis3/stage/usr/local/psi4/share/psi4
    Memory:     500.0 MiB
    Threads:    4
    
  ==> Input File <==

--------------------------------------------------------------------------
# Any line starting with the # character is a comment line
memory 250000 mb
molecule molecule{
0 3
S          0.0000000000        0.0000000000        0.0000000000
}

set {
  reference uhf
  basis aug-cc-pv(t+d)z
  scf_type OUT_OF_CORE
  freeze_core true
}

energy('ccsd')
--------------------------------------------------------------------------

  Memory set to 232.831 GiB by Python driver.

*** tstart() called on cqc05
*** at Thu Aug 20 20:10:52 2020

   => Loading Basis Set <=

    Name: AUG-CC-PV(T+D)Z
    Role: ORBITAL
    Keyword: BASIS
    atoms 1 entry S          line   928 file /home/irmler/Programs/psi4/beforeGrueneis3/stage/usr/local/psi4/share/psi4/basis/aug-cc-pv_tpd_z.gbs 


         ---------------------------------------------------------
                                   SCF
            by Justin Turney, Rob Parrish, Andy Simmonett
                             and Daniel Smith
                              UHF Reference
                        4 Threads, 238418 MiB Core
         ---------------------------------------------------------

  ==> Geometry <==

    Molecular point group: d2h
    Geometry (in Angstrom), charge = 0, multiplicity = 3:

       Center              X                  Y                   Z               Mass       
    ------------   -----------------  -----------------  -----------------  -----------------
           S          0.000000000000     0.000000000000     0.000000000000    31.972070999000

  Running in d2h symmetry.

  Rotational constants: A = ************  B = ************  C = ************ [cm^-1]
  Rotational constants: A = ************  B = ************  C = ************ [MHz]
  Nuclear repulsion =    0.000000000000000

  Charge       = 0
  Multiplicity = 3
  Electrons    = 16
  Nalpha       = 9
  Nbeta        = 7

  ==> Algorithm <==

  SCF Algorithm Type is OUT_OF_CORE.
  DIIS enabled.
  MOM disabled.
  Fractional occupation disabled.
  Guess Type is GWH.
  Energy threshold   = 1.00e-08
  Density threshold  = 1.00e-08
  Integral threshold = 0.00e+00

  ==> Primary Basis <==

  Basis Set: AUG-CC-PV(T+D)Z
    Blend: AUG-CC-PV(T+D)Z
    Number of shells: 17
    Number of basis function: 55
    Number of Cartesian functions: 65
    Spherical Harmonics?: true
    Max angular momentum: 3

  ==> Pre-Iterations <==

   -------------------------------------------------------
    Irrep   Nso     Nmo     Nalpha   Nbeta   Ndocc  Nsocc
   -------------------------------------------------------
     Ag        14      14       0       0       0       0
     B1g        4       4       0       0       0       0
     B2g        4       4       0       0       0       0
     B3g        4       4       0       0       0       0
     Au         2       2       0       0       0       0
     B1u        9       9       0       0       0       0
     B2u        9       9       0       0       0       0
     B3u        9       9       0       0       0       0
   -------------------------------------------------------
    Total      55      55       9       7       7       2
   -------------------------------------------------------

  ==> Integral Setup <==

  ==> DiskJK: Disk-Based J/K Matrices <==

    J tasked:                  Yes
    K tasked:                  Yes
    wK tasked:                  No
    Memory (MB):            178813
    Schwarz Cutoff:          1E-12

  Minimum eigenvalue in the overlap matrix is 1.2157045520E-02.
  Using Symmetric Orthogonalization.

  SCF Guess: Generalized Wolfsberg-Helmholtz.

  ==> Iterations <==

                        Total Energy        Delta E     RMS |[F,P]|

   @UHF iter   1:  -396.10673398227857   -3.96107e+02   1.59908e-01 
   @UHF iter   2:  -397.50311864696550   -1.39638e+00   1.06801e-02 DIIS
   @UHF iter   3:  -397.50941841239535   -6.29977e-03   1.84250e-03 DIIS
   @UHF iter   4:  -397.50984940740352   -4.30995e-04   5.50879e-04 DIIS
   @UHF iter   5:  -397.50996219872104   -1.12791e-04   1.88579e-04 DIIS
   @UHF iter   6:  -397.50998094249161   -1.87438e-05   4.33334e-05 DIIS
   @UHF iter   7:  -397.50998208729715   -1.14481e-06   6.77025e-06 DIIS
   @UHF iter   8:  -397.50998211207343   -2.47763e-08   7.91655e-07 DIIS
   @UHF iter   9:  -397.50998211232650   -2.53067e-10   9.49141e-08 DIIS
   @UHF iter  10:  -397.50998211233025   -3.75167e-12   1.85016e-08 DIIS
   @UHF iter  11:  -397.50998211233053   -2.84217e-13   3.47475e-09 DIIS

  ==> Post-Iterations <==

   @Spin Contamination Metric:   1.334534715E-02
   @S^2 Expected:                2.000000000E+00
   @S^2 Observed:                2.013345347E+00
   @S   Expected:                1.000000000E+00
   @S   Observed:                1.000000000E+00

    Orbital Energies (a.u.)
    -----------------------

    Alpha Occupied:                                                       

       1Ag   -92.013736     2Ag    -9.013571     1B1u   -6.705902  
       1B3u   -6.705902     1B2u   -6.685387     3Ag    -0.990124  
       2B3u   -0.487087     2B1u   -0.487087     2B2u   -0.415726  

    Alpha Virtual:                                                        

       3B1u    0.091732     3B3u    0.091732     3B2u    0.099793  
       4Ag     0.100334     5Ag     0.239008     1B2g    0.239008  
       1B1g    0.257224     1B3g    0.257224     6Ag     0.264164  
       4B3u    0.512246     4B1u    0.512246     4B2u    0.544061  
       2B2g    0.647339     7Ag     0.647339     2B3g    0.683118  
       2B1g    0.683118     8Ag     0.697104     9Ag     0.726517  
       5B3u    0.817183     5B1u    0.817183     1Au     0.834995  
       5B2u    0.834995     6B3u    0.846282     6B1u    0.846282  
       6B2u    0.850181     3B2g    1.864441    10Ag     1.864441  
       3B3g    1.898398     3B1g    1.898398    11Ag     1.910818  
       7B3u    2.273733     7B1u    2.273733     8B3u    2.287846  
       8B1u    2.287846     7B2u    2.305772     2Au     2.305772  
       9B3u    2.326347     9B1u    2.326347     8B2u    2.328071  
       9B2u    2.339958    12Ag     4.082596     4B2g    7.265016  
      13Ag     7.265016     4B1g    7.287876     4B3g    7.287876  
      14Ag     7.295718  

    Beta Occupied:                                                        

       1Ag   -91.996050     2Ag    -8.994839     1B2u   -6.675605  
       1B1u   -6.660348     1B3u   -6.660348     3Ag    -0.774432  
       2B2u   -0.379651  

    Beta Virtual:                                                         

       2B3u    0.001112     2B1u    0.001112     3B2u    0.101464  
       4Ag     0.111470     3B3u    0.119017     3B1u    0.119017  
       5Ag     0.279830     1B1g    0.280842     1B3g    0.280842  
       1B2g    0.285804     6Ag     0.285804     4B2u    0.554983  
       4B3u    0.583696     4B1u    0.583696     7Ag     0.740223  
       2B3g    0.746398     2B1g    0.746398     2B2g    0.767266  
       8Ag     0.767266     9Ag     0.767857     5B3u    0.851400  
       5B1u    0.851400     1Au     0.857507     5B2u    0.857507  
       6B1u    0.861104     6B3u    0.861104     6B2u    0.862261  
       3B2g    1.921334    10Ag     1.921334     3B3g    1.929286  
       3B1g    1.929286    11Ag     1.931821     7B2u    2.348648  
       7B3u    2.351683     7B1u    2.351683     8B2u    2.358517  
       2Au     2.358517     8B3u    2.358630     8B1u    2.358630  
       9B2u    2.364780     9B3u    2.365525     9B1u    2.365525  
      12Ag     4.117368     4B2g    7.286596    13Ag     7.286596  
       4B1g    7.300058     4B3g    7.300058    14Ag     7.304561  

    Final Occupation by Irrep:
             Ag   B1g   B2g   B3g    Au   B1u   B2u   B3u 
    DOCC [     3,    0,    0,    0,    0,    1,    2,    1 ]
    SOCC [     0,    0,    0,    0,    0,    1,    0,    1 ]

  Energy converged.

  @UHF Final Energy:  -397.50998211233053

   => Energetics <=

    Nuclear Repulsion Energy =              0.0000000000000000
    One-Electron Energy =                -549.3741697041602947
    Two-Electron Energy =                 151.8641875918297615
    Total Energy =                       -397.5099821123305333


  UHF NO Occupations:
  HONO-2 :    3 Ag 1.9942467
  HONO-1 :    2B1u 1.0000000
  HONO-0 :    2B3u 1.0000000
  LUNO+0 :    4 Ag 0.0057533
  LUNO+1 :    3B2u 0.0009299
  LUNO+2 :    3B1u 0.0000030
  LUNO+3 :    3B3u 0.0000030



Properties will be evaluated at   0.000000,   0.000000,   0.000000 Bohr

Properties computed using the SCF density matrix

  Nuclear Dipole Moment: (a.u.)
     X:     0.0000      Y:     0.0000      Z:     0.0000

  Electronic Dipole Moment: (a.u.)
     X:     0.0000      Y:     0.0000      Z:     0.0000

  Dipole Moment: (a.u.)
     X:     0.0000      Y:     0.0000      Z:     0.0000     Total:     0.0000

  Dipole Moment: (Debye)
     X:     0.0000      Y:     0.0000      Z:     0.0000     Total:     0.0000


*** tstop() called on cqc05 at Thu Aug 20 20:10:53 2020
Module time:
	user time   =       0.56 seconds =       0.01 minutes
	system time =       0.02 seconds =       0.00 minutes
	total time  =          1 seconds =       0.02 minutes
Total time:
	user time   =       0.56 seconds =       0.01 minutes
	system time =       0.02 seconds =       0.00 minutes
	total time  =          1 seconds =       0.02 minutes

*** tstart() called on cqc05
*** at Thu Aug 20 20:10:53 2020


	Wfn Parameters:
	--------------------
	Wavefunction         = CCSD
	Number of irreps     = 8
	Number of MOs        = 55
	Number of active MOs = 50
	AO-Basis             = NONE
	Semicanonical        = false
	Reference            = UHF
	Print Level          = 1

	IRREP	# MOs	# FZDC	# DOCC	# SOCC	# VIRT	# FZVR
	-----	-----	------	------	------	------	------
	 Ag	   14	    2	    1	    0	    11	    0
	 B1g	   4	    0	    0	    0	    4	    0
	 B2g	   4	    0	    0	    0	    4	    0
	 B3g	   4	    0	    0	    0	    4	    0
	 Au	   2	    0	    0	    0	    2	    0
	 B1u	   9	    1	    0	    1	    7	    0
	 B2u	   9	    1	    1	    0	    7	    0
	 B3u	   9	    1	    0	    1	    7	    0
	Transforming integrals...
	IWL integrals will be deleted.
	(OO|OO)...
	Presorting SO-basis two-electron integrals.
	Sorting File: SO Ints (nn|nn) nbuckets = 1
	Transforming the one-electron integrals and constructing Fock matrices
	Starting AA/AB first half-transformation.
	Sorting AA/AB half-transformed integrals.
	Starting BB first half-transformation.
	Sorting BB half-transformed integrals.
	First half integral transformation complete.
	Starting AA second half-transformation.
	Starting AB second half-transformation.
	Starting BB second half-transformation.
	Two-electron integral transformation complete.
	(OO|OV)...
	Starting AA second half-transformation.
	Starting AB second half-transformation.
	Starting BB second half-transformation.
	Two-electron integral transformation complete.
	(OO|VV)...
	Starting AA second half-transformation.
	Starting AB second half-transformation.
	Starting BB second half-transformation.
	Two-electron integral transformation complete.
	(OV|OO)...
	Starting AA/AB first half-transformation.
	Sorting AA/AB half-transformed integrals.
	Starting BB first half-transformation.
	Sorting BB half-transformed integrals.
	First half integral transformation complete.
	Starting AA second half-transformation.
	Starting AB second half-transformation.
	Starting BB second half-transformation.
	Two-electron integral transformation complete.
	(OV|OV)...
	Starting AA second half-transformation.
	Starting AB second half-transformation.
	Starting BB second half-transformation.
	Two-electron integral transformation complete.
	(OV|VV)...
	Starting AA second half-transformation.
	Starting AB second half-transformation.
	Starting BB second half-transformation.
	Two-electron integral transformation complete.
	(VV|OO)...
	Starting AA/AB first half-transformation.
	Sorting AA/AB half-transformed integrals.
	Starting BB first half-transformation.
	Sorting BB half-transformed integrals.
	First half integral transformation complete.
	Starting AA second half-transformation.
	Starting AB second half-transformation.
	Starting BB second half-transformation.
	Two-electron integral transformation complete.
	(VV|OV)...
	Starting AA second half-transformation.
	Starting AB second half-transformation.
	Starting BB second half-transformation.
	Two-electron integral transformation complete.
	(VV|VV)...
	Starting AA second half-transformation.
	Starting AB second half-transformation.
	Starting BB second half-transformation.
	Two-electron integral transformation complete.
	Frozen core energy     =   -387.55061882103200

	Size of irrep 0 of <AB|CD> integrals:      0.019 (MW) /      0.150 (MB)
	Size of irrep 1 of <AB|CD> integrals:      0.015 (MW) /      0.121 (MB)
	Size of irrep 2 of <AB|CD> integrals:      0.015 (MW) /      0.121 (MB)
	Size of irrep 3 of <AB|CD> integrals:      0.015 (MW) /      0.121 (MB)
	Size of irrep 4 of <AB|CD> integrals:      0.011 (MW) /      0.090 (MB)
	Size of irrep 5 of <AB|CD> integrals:      0.020 (MW) /      0.159 (MB)
	Size of irrep 6 of <AB|CD> integrals:      0.020 (MW) /      0.159 (MB)
	Size of irrep 7 of <AB|CD> integrals:      0.020 (MW) /      0.159 (MB)
	Total:                                     0.135 (MW) /      1.080 (MB)

	Size of irrep 0 of <ab|cd> integrals:      0.023 (MW) /      0.182 (MB)
	Size of irrep 1 of <ab|cd> integrals:      0.017 (MW) /      0.139 (MB)
	Size of irrep 2 of <ab|cd> integrals:      0.019 (MW) /      0.152 (MB)
	Size of irrep 3 of <ab|cd> integrals:      0.017 (MW) /      0.139 (MB)
	Size of irrep 4 of <ab|cd> integrals:      0.013 (MW) /      0.104 (MB)
	Size of irrep 5 of <ab|cd> integrals:      0.024 (MW) /      0.195 (MB)
	Size of irrep 6 of <ab|cd> integrals:      0.022 (MW) /      0.178 (MB)
	Size of irrep 7 of <ab|cd> integrals:      0.024 (MW) /      0.195 (MB)
	Total:                                     0.161 (MW) /      1.284 (MB)

	Size of irrep 0 of <Ab|Cd> integrals:      0.112 (MW) /      0.892 (MB)
	Size of irrep 1 of <Ab|Cd> integrals:      0.065 (MW) /      0.520 (MB)
	Size of irrep 2 of <Ab|Cd> integrals:      0.068 (MW) /      0.541 (MB)
	Size of irrep 3 of <Ab|Cd> integrals:      0.065 (MW) /      0.520 (MB)
	Size of irrep 4 of <Ab|Cd> integrals:      0.048 (MW) /      0.387 (MB)
	Size of irrep 5 of <Ab|Cd> integrals:      0.088 (MW) /      0.706 (MB)
	Size of irrep 6 of <Ab|Cd> integrals:      0.084 (MW) /      0.673 (MB)
	Size of irrep 7 of <Ab|Cd> integrals:      0.088 (MW) /      0.706 (MB)
	Total:                                     0.618 (MW) /      4.945 (MB)

	Size of irrep 0 of <IA|BC> integrals:      0.010 (MW) /      0.082 (MB)
	Size of irrep 1 of <IA|BC> integrals:      0.005 (MW) /      0.039 (MB)
	Size of irrep 2 of <IA|BC> integrals:      0.005 (MW) /      0.039 (MB)
	Size of irrep 3 of <IA|BC> integrals:      0.005 (MW) /      0.039 (MB)
	Size of irrep 4 of <IA|BC> integrals:      0.003 (MW) /      0.024 (MB)
	Size of irrep 5 of <IA|BC> integrals:      0.007 (MW) /      0.059 (MB)
	Size of irrep 6 of <IA|BC> integrals:      0.007 (MW) /      0.059 (MB)
	Size of irrep 7 of <IA|BC> integrals:      0.007 (MW) /      0.059 (MB)
	Total:                                     0.050 (MW) /      0.400 (MB)

	Size of irrep 0 of <ia|bc> integrals:      0.006 (MW) /      0.050 (MB)
	Size of irrep 1 of <ia|bc> integrals:      0.003 (MW) /      0.025 (MB)
	Size of irrep 2 of <ia|bc> integrals:      0.002 (MW) /      0.013 (MB)
	Size of irrep 3 of <ia|bc> integrals:      0.003 (MW) /      0.025 (MB)
	Size of irrep 4 of <ia|bc> integrals:      0.001 (MW) /      0.011 (MB)
	Size of irrep 5 of <ia|bc> integrals:      0.004 (MW) /      0.030 (MB)
	Size of irrep 6 of <ia|bc> integrals:      0.005 (MW) /      0.043 (MB)
	Size of irrep 7 of <ia|bc> integrals:      0.004 (MW) /      0.030 (MB)
	Total:                                     0.029 (MW) /      0.228 (MB)

	Size of irrep 0 of <Ia|Bc> integrals:      0.011 (MW) /      0.091 (MB)
	Size of irrep 1 of <Ia|Bc> integrals:      0.005 (MW) /      0.043 (MB)
	Size of irrep 2 of <Ia|Bc> integrals:      0.006 (MW) /      0.046 (MB)
	Size of irrep 3 of <Ia|Bc> integrals:      0.005 (MW) /      0.043 (MB)
	Size of irrep 4 of <Ia|Bc> integrals:      0.003 (MW) /      0.025 (MB)
	Size of irrep 5 of <Ia|Bc> integrals:      0.008 (MW) /      0.064 (MB)
	Size of irrep 6 of <Ia|Bc> integrals:      0.008 (MW) /      0.060 (MB)
	Size of irrep 7 of <Ia|Bc> integrals:      0.008 (MW) /      0.064 (MB)
	Total:                                     0.054 (MW) /      0.436 (MB)

	Size of irrep 0 of <iA|bC> integrals:      0.006 (MW) /      0.048 (MB)
	Size of irrep 1 of <iA|bC> integrals:      0.003 (MW) /      0.022 (MB)
	Size of irrep 2 of <iA|bC> integrals:      0.002 (MW) /      0.012 (MB)
	Size of irrep 3 of <iA|bC> integrals:      0.003 (MW) /      0.022 (MB)
	Size of irrep 4 of <iA|bC> integrals:      0.001 (MW) /      0.011 (MB)
	Size of irrep 5 of <iA|bC> integrals:      0.003 (MW) /      0.026 (MB)
	Size of irrep 6 of <iA|bC> integrals:      0.005 (MW) /      0.042 (MB)
	Size of irrep 7 of <iA|bC> integrals:      0.003 (MW) /      0.026 (MB)
	Total:                                     0.026 (MW) /      0.210 (MB)

	Size of irrep 0 of tIjAb amplitudes:       0.001 (MW) /      0.005 (MB)
	Size of irrep 1 of tIjAb amplitudes:       0.000 (MW) /      0.002 (MB)
	Size of irrep 2 of tIjAb amplitudes:       0.000 (MW) /      0.000 (MB)
	Size of irrep 3 of tIjAb amplitudes:       0.000 (MW) /      0.002 (MB)
	Size of irrep 4 of tIjAb amplitudes:       0.000 (MW) /      0.000 (MB)
	Size of irrep 5 of tIjAb amplitudes:       0.000 (MW) /      0.002 (MB)
	Size of irrep 6 of tIjAb amplitudes:       0.001 (MW) /      0.005 (MB)
	Size of irrep 7 of tIjAb amplitudes:       0.000 (MW) /      0.002 (MB)
	Total:                                     0.002 (MW) /      0.019 (MB)

	Nuclear Rep. energy          =      0.00000000000000
	SCF energy                   =   -397.50998211233053
	One-electron energy          =    -16.38461930688941
	Two-electron (AA) energy     =      2.33031116131337
	Two-electron (BB) energy     =      0.36160123751011
	Two-electron (AB) energy     =      3.73334361676810
	Two-electron energy          =      6.42525601559158
	Reference energy             =   -397.50998211232985

*** tstop() called on cqc05 at Thu Aug 20 20:10:53 2020
Module time:
	user time   =       0.11 seconds =       0.00 minutes
	system time =       0.10 seconds =       0.00 minutes
	total time  =          0 seconds =       0.00 minutes
Total time:
	user time   =       0.67 seconds =       0.01 minutes
	system time =       0.12 seconds =       0.00 minutes
	total time  =          1 seconds =       0.02 minutes

*** tstart() called on cqc05
*** at Thu Aug 20 20:10:53 2020

            **************************
            *                        *
            *        CCENERGY        *
            *                        *
            **************************

    Nuclear Rep. energy (wfn)     =    0.000000000000000
    SCF energy          (wfn)     = -397.509982112330533
    Reference energy    (file100) = -397.509982112329851

    Input parameters:
    -----------------
    Wave function   =     CCSD
    Reference wfn   =     UHF
    Brueckner       =     No
    Memory (Mbytes) =     250000.0
    Maxiter         =     50
    R_Convergence   =     1.0e-07
    E_Convergence   =     1.0e-06
    Restart         =     Yes
    DIIS            =     Yes
    AO Basis        =     NONE
    ABCD            =     NEW
    Cache Level     =     2
    Cache Type      =     LRU
    Print Level     =     1
    Num. of threads =     4
    # Amps to Print =     10
    Print MP2 Amps? =     No
    Analyze T2 Amps =     No
    Print Pair Ener =     No
    Local CC        =     No
    SCS-MP2         =     False
    SCSN-MP2        =     False
    SCS-CCSD        =     False

MP2 correlation energy -0.1187422930635799
                Solving CC Amplitude Equations
                ------------------------------
  Iter             Energy              RMS        T1Diag      D1Diag    New D1Diag    D2Diag
  ----     ---------------------    ---------   ----------  ----------  ----------   --------
     0        -0.118742293063580    0.000e+00    0.000000    0.000000    0.000000    0.000000
     1        -0.136229617968659    4.666e-02    0.008304    0.000000    0.000000    0.000000
     2        -0.141838023904220    1.615e-02    0.013082    0.000000    0.000000    0.000000
     3        -0.142155990986534    3.674e-03    0.014370    0.000000    0.000000    0.000000
     4        -0.142154736763997    6.989e-04    0.014483    0.000000    0.000000    0.000000
     5        -0.142150163090185    2.390e-04    0.014480    0.000000    0.000000    0.000000
     6        -0.142151487683031    9.478e-05    0.014470    0.000000    0.000000    0.000000
     7        -0.142152275451187    2.888e-05    0.014468    0.000000    0.000000    0.000000
     8        -0.142151972880384    8.938e-06    0.014468    0.000000    0.000000    0.000000
     9        -0.142151961439031    2.080e-06    0.014468    0.000000    0.000000    0.000000
    10        -0.142151971438673    5.712e-07    0.014468    0.000000    0.000000    0.000000
    11        -0.142151969631766    1.274e-07    0.014468    0.000000    0.000000    0.000000
    12        -0.142151966424928    3.641e-08    0.014468    0.000000    0.000000    0.000000
    12        -0.142151966424928    3.641e-08    0.014468    0.000000    0.000000    0.000000

    Iterations converged.


    CCSD corr. energy   =   -0.142151966424928
    PPL corr. energy    =    0.039204056645760
    OS PPL corr. energy =    0.032763684353376
    SS PPL corr. energy =    0.006440372292385
    Largest TIA Amplitudes:
              0   4        -0.0061646906
              0   2         0.0058481199
              2  33         0.0056428099
              0   5         0.0039008051
              2  32        -0.0035034639
              1  25         0.0026795887
              3  39         0.0026795887
              2  35        -0.0018878379
              0   0        -0.0018817302
              2  37        -0.0016042798

    Largest Tia Amplitudes:
              0   3         0.0216396343
              0   1         0.0215221675
              0   5        -0.0079088350
              1  36        -0.0053848413
              0   0         0.0050443824
              0   7         0.0039367326
              1  39         0.0036670258
              1  34        -0.0032526803
              1  33         0.0011582859
              1  37         0.0011248782

    Largest TIJAB Amplitudes:
      3   1  16   3        -0.0308336382
      3   2  12   4         0.0296409588
      2   1  20   4        -0.0296409588
      3   1  15   1        -0.0279236708
      3   1  15   3        -0.0257208226
      3   1  16   1        -0.0257208226
      3   2  11   2        -0.0245033232
      2   1  19   2         0.0245033232
      3   2  11   4         0.0239131606
      2   1  19   4        -0.0239131606

    Largest Tijab Amplitudes:
      1   0  25  20        -0.0172614725
      1   0  40  12        -0.0172614725
      1   0  25  19        -0.0158813846
      1   0  40  11        -0.0158813846
      1   0  34   5        -0.0117328429
      1   0  26  20        -0.0104517910
      1   0  41  12        -0.0104517910
      1   0  27  20         0.0093565245
      1   0  42  12         0.0093565245
      1   0  26  19        -0.0088948882

    Largest TIjAb Amplitudes:
      2   1   4   3        -0.0500192118
      1   0   3  25        -0.0458484766
      1   0  16  40        -0.0458484766
      3   0   3  40         0.0458484766
      3   0  16  25        -0.0458484766
      2   0  12  40        -0.0449693022
      2   0  20  25        -0.0449693022
      1   0   1  25        -0.0411800332
      1   0  15  40        -0.0411800332
      3   0   1  40         0.0411800332

    SCF energy       (wfn)                    = -397.509982112330533
    Reference energy (file100)                = -397.509982112329851

    Opposite-spin MP2 correlation energy      =   -0.091204658356681
    Same-spin MP2 correlation energy          =   -0.027537634706898
    MP2 correlation energy                    =   -0.118742293063580
      * MP2 total energy                      = -397.628724405393427

    Opposite-spin CCSD correlation energy     =   -0.113439441914850
    Same-spin CCSD correlation energy         =   -0.028712523931627
    CCSD correlation energy                   =   -0.142151966424928
      * CCSD total energy                     = -397.652134078754784


*** tstop() called on cqc05 at Thu Aug 20 20:10:54 2020
Module time:
	user time   =       0.34 seconds =       0.01 minutes
	system time =       0.25 seconds =       0.00 minutes
	total time  =          1 seconds =       0.02 minutes
Total time:
	user time   =       1.01 seconds =       0.02 minutes
	system time =       0.37 seconds =       0.01 minutes
	total time  =          2 seconds =       0.03 minutes

*** Psi4 exiting successfully. Buy a developer a beer!
