
    -----------------------------------------------------------------------
          Psi4: An Open-Source Ab Initio Electronic Structure Package
                               Psi4 1.2a1.dev938 

                         Git: Rev {HEAD} fc51d9a dirty


    R. M. Parrish, L. A. Burns, D. G. A. Smith, A. C. Simmonett,
    A. E. DePrince III, E. G. Hohenstein, U. Bozkaya, A. Yu. Sokolov,
    R. Di Remigio, R. M. Richard, J. F. Gonthier, A. M. James,
    H. R. McAlexander, A. Kumar, M. Saitow, X. Wang, B. P. Pritchard,
    P. Verma, H. F. Schaefer III, K. Patkowski, R. A. King, E. F. Valeev,
    F. A. Evangelista, J. M. Turney, T. D. Crawford, and C. D. Sherrill,
    J. Chem. Theory Comput. 13(7) pp 3185--3197 (2017).
    (doi: 10.1021/acs.jctc.7b00174)

    -----------------------------------------------------------------------


    Psi4 started on: Wednesday, 26 August 2020 09:18AM

    Process ID: 498690
    PSIDATADIR: /home/irmler/Programs/psi4/beforeGrueneis4/stage/usr/local/psi4/share/psi4
    Memory:     500.0 MiB
    Threads:    4
    
  ==> Input File <==

--------------------------------------------------------------------------
# Any line starting with the # character is a comment line
memory 250000 mb
molecule molecule{
0 3
S          0.0000000000        0.0000000000        0.0000000000
}

set {
  reference uhf
  basis aug-cc-pv(6+d)z
  scf_type OUT_OF_CORE
  freeze_core true
}

energy('ccsd')
--------------------------------------------------------------------------

  Memory set to 232.831 GiB by Python driver.

*** tstart() called on cqc05
*** at Wed Aug 26 09:18:03 2020

   => Loading Basis Set <=

    Name: AUG-CC-PV(6+D)Z
    Role: ORBITAL
    Keyword: BASIS
    atoms 1 entry S          line  1164 file /home/irmler/Programs/psi4/beforeGrueneis4/stage/usr/local/psi4/share/psi4/basis/aug-cc-pv_6pd_z.gbs 


         ---------------------------------------------------------
                                   SCF
            by Justin Turney, Rob Parrish, Andy Simmonett
                             and Daniel Smith
                              UHF Reference
                        4 Threads, 238418 MiB Core
         ---------------------------------------------------------

  ==> Geometry <==

    Molecular point group: d2h
    Geometry (in Angstrom), charge = 0, multiplicity = 3:

       Center              X                  Y                   Z               Mass       
    ------------   -----------------  -----------------  -----------------  -----------------
           S          0.000000000000     0.000000000000     0.000000000000    31.972070999000

  Running in d2h symmetry.

  Rotational constants: A = ************  B = ************  C = ************ [cm^-1]
  Rotational constants: A = ************  B = ************  C = ************ [MHz]
  Nuclear repulsion =    0.000000000000000

  Charge       = 0
  Multiplicity = 3
  Electrons    = 16
  Nalpha       = 9
  Nbeta        = 7

  ==> Algorithm <==

  SCF Algorithm Type is OUT_OF_CORE.
  DIIS enabled.
  MOM disabled.
  Fractional occupation disabled.
  Guess Type is GWH.
  Energy threshold   = 1.00e-08
  Density threshold  = 1.00e-08
  Integral threshold = 0.00e+00

  ==> Primary Basis <==

  Basis Set: AUG-CC-PV(6+D)Z
    Blend: AUG-CC-PV(6+D)Z
    Number of shells: 38
    Number of basis function: 198
    Number of Cartesian functions: 304
    Spherical Harmonics?: true
    Max angular momentum: 6

  ==> Pre-Iterations <==

   -------------------------------------------------------
    Irrep   Nso     Nmo     Nalpha   Nbeta   Ndocc  Nsocc
   -------------------------------------------------------
     Ag        43      43       0       0       0       0
     B1g       21      21       0       0       0       0
     B2g       21      21       0       0       0       0
     B3g       21      21       0       0       0       0
     Au        11      11       0       0       0       0
     B1u       27      27       0       0       0       0
     B2u       27      27       0       0       0       0
     B3u       27      27       0       0       0       0
   -------------------------------------------------------
    Total     198     198       9       7       7       2
   -------------------------------------------------------

  ==> Integral Setup <==

  ==> DiskJK: Disk-Based J/K Matrices <==

    J tasked:                  Yes
    K tasked:                  Yes
    wK tasked:                  No
    Memory (MB):            178813
    Schwarz Cutoff:          1E-12

  Minimum eigenvalue in the overlap matrix is 3.3254153548E-05.
  Using Symmetric Orthogonalization.

  SCF Guess: Generalized Wolfsberg-Helmholtz.

  ==> Iterations <==

                        Total Energy        Delta E     RMS |[F,P]|

    Occupation by irrep:
             Ag   B1g   B2g   B3g    Au   B1u   B2u   B3u 
    DOCC [     3,    0,    0,    0,    0,    2,    1,    1 ]
    SOCC [     0,    0,    0,    0,    0,    0,    1,    1 ]

   @UHF iter   1:  -384.61498173170526   -3.84615e+02   1.73523e-01 
   @UHF iter   2:  -393.50243380176738   -8.88745e+00   5.01707e-02 DIIS
   @UHF iter   3:  -397.25800529533507   -3.75557e+00   1.73287e-02 DIIS
   @UHF iter   4:  -397.49524674183135   -2.37241e-01   2.97588e-03 DIIS
   @UHF iter   5:  -397.51277337416025   -1.75266e-02   7.56827e-04 DIIS
   @UHF iter   6:  -397.51331162985531   -5.38256e-04   1.34162e-04 DIIS
   @UHF iter   7:  -397.51335249759330   -4.08677e-05   3.45131e-05 DIIS
   @UHF iter   8:  -397.51335604440987   -3.54682e-06   8.52382e-06 DIIS
   @UHF iter   9:  -397.51335638701829   -3.42608e-07   2.03271e-06 DIIS
   @UHF iter  10:  -397.51335640721118   -2.01929e-08   3.53911e-07 DIIS
   @UHF iter  11:  -397.51335640770674   -4.95561e-10   6.67740e-08 DIIS
   @UHF iter  12:  -397.51335640772010   -1.33582e-11   7.77202e-09 DIIS

  ==> Post-Iterations <==

   @Spin Contamination Metric:   1.359328278E-02
   @S^2 Expected:                2.000000000E+00
   @S^2 Observed:                2.013593283E+00
   @S   Expected:                1.000000000E+00
   @S   Observed:                1.000000000E+00

    Orbital Energies (a.u.)
    -----------------------

    Alpha Occupied:                                                       

       1Ag   -92.013168     2Ag    -9.012735     1B3u   -6.706003  
       1B2u   -6.706003     1B1u   -6.685596     3Ag    -0.989826  
       2B3u   -0.486973     2B2u   -0.486973     2B1u   -0.415560  

    Alpha Virtual:                                                        

       3B3u    0.060679     3B2u    0.060679     3B1u    0.065252  
       4Ag     0.066978     5Ag     0.164547     1B1g    0.164547  
       1B3g    0.173301     1B2g    0.173301     6Ag     0.176602  
       4B3u    0.264102     4B2u    0.264102     4B1u    0.279930  
       7Ag     0.378431     8Ag     0.411611     2B1g    0.411611  
       5B2u    0.418075     5B3u    0.418075     5B1u    0.425271  
       1Au     0.425271     6B2u    0.429836     6B3u    0.429836  
       6B1u    0.431418     2B3g    0.439386     2B2g    0.439386  
       9Ag     0.450419    10Ag     0.846623     3B1g    0.846623  
       3B3g    0.854526     3B2g    0.854526     7B3u    0.856744  
       7B2u    0.856744     4B1g    0.860282    11Ag     0.860282  
       4B2g    0.863825     4B3g    0.863825    12Ag     0.865027  
       7B1u    0.890136    13Ag     1.007230     5B1g    1.007230  
       5B2g    1.038399     5B3g    1.038399    14Ag     1.050344  
       8B3u    1.094305     8B2u    1.094305     8B1u    1.113264  
       2Au     1.113264     9B2u    1.125295     9B3u    1.125295  
       9B1u    1.129469    15Ag     1.347961    10B2u    1.922100  
      10B3u    1.922100     3Au     1.933218    10B1u    1.933218  
      11B3u    1.942079    11B2u    1.942079     4Au     1.948532  
      11B1u    1.948532    12B3u    1.952455    12B2u    1.952455  
      12B1u    1.953771    16Ag     2.060087     6B1g    2.060087  
       6B3g    2.077273     6B2g    2.077273     7B1g    2.089587  
      17Ag     2.089587     7B3g    2.097039     7B2g    2.097039  
      18Ag     2.099541    19Ag     2.350670     8B1g    2.350670  
       8B3g    2.382292     8B2g    2.382292    13B2u    2.383893  
      13B3u    2.383893    20Ag     2.394028     5Au     2.412333  
      13B1u    2.412333    14B3u    2.428065    14B2u    2.428065  
      14B1u    2.434617    15B3u    2.467453    15B2u    2.467453  
      15B1u    2.513457     9B1g    4.057063    21Ag     4.057063  
      22Ag     4.064102     9B2g    4.071264     9B3g    4.071264  
      23Ag     4.083031    10B1g    4.083031    10B2g    4.092282  
      10B3g    4.092282    11B1g    4.098946    24Ag     4.098946  
      11B3g    4.102967    11B2g    4.102967    25Ag     4.104311  
      12B1g    4.288672    26Ag     4.288672    12B3g    4.313238  
      12B2g    4.313238    13B1g    4.330890    27Ag     4.330890  
      13B3g    4.341530    13B2g    4.341530    16B2u    4.344650  
      16B3u    4.344650    28Ag     4.345088     6Au     4.363667  
      16B1u    4.363667    17B2u    4.378756    17B3u    4.378756  
       7Au     4.389703    17B1u    4.389703    18B2u    4.396342  
      18B3u    4.396342    18B1u    4.398567    29Ag     5.057805  
      14B1g    5.057805    19B2u    5.060229    19B3u    5.060229  
      19B1u    5.089857     8Au     5.089857    14B3g    5.090049  
      14B2g    5.090049    30Ag     5.102059    20B2u    5.108104  
      20B3u    5.108104    20B1u    5.114277    21B3u    6.978753  
      21B2u    6.978753    21B1u    7.020094    15B1g    8.609476  
      31Ag     8.609476    15B2g    8.633495    15B3g    8.633495  
      32Ag     8.650811    16B1g    8.650811    16B3g    8.661265  
      16B2g    8.661265    33Ag     8.664759    17B1g    8.830827  
      34Ag     8.830827    17B2g    8.849911    17B3g    8.849911  
      18B1g    8.865826    35Ag     8.865826    18B2g    8.878405  
      18B3g    8.878405    19B1g    8.887504    36Ag     8.887504  
      19B3g    8.893012    19B2g    8.893012    37Ag     8.894856  
      22B2u    9.223198    22B3u    9.223198     9Au     9.245138  
      22B1u    9.245138    23B2u    9.262458    23B3u    9.262458  
      10Au     9.274970    23B1u    9.274970    24B2u    9.282535  
      24B3u    9.282535    24B1u    9.285066    38Ag    10.618284  
      20B1g   10.618284    20B3g   10.645406    20B2g   10.645406  
      39Ag    10.654513    25B3u   10.716526    25B2u   10.716526  
      25B1u   10.739543    11Au    10.739543    26B2u   10.753674  
      26B3u   10.753674    26B1u   10.758444    40Ag    12.303094  
      27B3u   29.445843    27B2u   29.445843    27B1u   29.468698  
      41Ag    30.639644    21B1g   30.639644    21B2g   30.655462  
      21B3g   30.655462    42Ag    30.660828    43Ag   242.976892  

    Beta Occupied:                                                        

       1Ag   -91.993967     2Ag    -8.994064     1B1u   -6.675434  
       1B2u   -6.658747     1B3u   -6.658747     3Ag    -0.773882  
       2B1u   -0.379587  

    Beta Virtual:                                                         

       2B2u    0.000836     2B3u    0.000836     3B1u    0.065963  
       4Ag     0.073155     3B2u    0.076557     3B3u    0.076557  
       1B1g    0.179492     5Ag     0.179492     1B2g    0.180536  
       1B3g    0.180536     6Ag     0.181152     4B1u    0.284383  
       4B2u    0.304618     4B3u    0.304618     7Ag     0.400942  
       5B3u    0.424647     5B2u    0.424647     1Au     0.429411  
       5B1u    0.429411     6B3u    0.432386     6B2u    0.432386  
       6B1u    0.433358     8Ag     0.483858     2B2g    0.487963  
       2B3g    0.487963     9Ag     0.504328     2B1g    0.504328  
       3B1g    0.853175    10Ag     0.853175     3B2g    0.859255  
       3B3g    0.859255     4B1g    0.863578    11Ag     0.863578  
       4B2g    0.866143     4B3g    0.866143    12Ag     0.866992  
       7B1u    0.900512     7B2u    0.916364     7B3u    0.916364  
      13Ag     1.080625     5B3g    1.082586     5B2g    1.082586  
       5B1g    1.090026    14Ag     1.090026     8B3u    1.133437  
       8B2u    1.133437     2Au     1.139375     8B1u    1.139375  
       9B3u    1.142918     9B2u    1.142918     9B1u    1.144066  
      15Ag     1.383961    10B3u    1.933987    10B2u    1.933987  
       3Au     1.942530    10B1u    1.942530    11B3u    1.949244  
      11B2u    1.949244     4Au     1.954076    11B1u    1.954076  
      12B3u    1.956989    12B2u    1.956989    12B1u    1.957962  
       6B1g    2.088319    16Ag     2.088319     6B3g    2.098297  
       6B2g    2.098297     7B1g    2.105309    17Ag     2.105309  
       7B2g    2.109472     7B3g    2.109472    18Ag     2.110852  
       8B1g    2.390199    19Ag     2.390199     8B3g    2.403710  
       8B2g    2.403710    20Ag     2.408185    13B2u    2.446239  
      13B3u    2.446239    13B1u    2.454701     5Au     2.454701  
      14B2u    2.459045    14B3u    2.459045    14B1u    2.460348  
      15B2u    2.524190    15B3u    2.524190    15B1u    2.525741  
      21Ag     4.075239     9B1g    4.075239     9B2g    4.086209  
       9B3g    4.086209    22Ag     4.095275    10B1g    4.095275  
      23Ag     4.096226    10B2g    4.102384    10B3g    4.102384  
      11B1g    4.107494    24Ag     4.107494    11B2g    4.110572  
      11B3g    4.110572    25Ag     4.111600    12B1g    4.332558  
      26Ag     4.332558    12B3g    4.346175    12B2g    4.346175  
      27Ag     4.355888    13B1g    4.355888    13B3g    4.361711  
      13B2g    4.361711    28Ag     4.363652    16B2u    4.374502  
      16B3u    4.374502     6Au     4.387364    16B1u    4.387364  
      17B2u    4.397465    17B3u    4.397465    17B1u    4.404731  
       7Au     4.404731    18B2u    4.409111    18B3u    4.409111  
      18B1u    4.410574    29Ag     5.085897    14B1g    5.085897  
      19B2u    5.105511    19B3u    5.105511    14B3g    5.105526  
      14B2g    5.105526    30Ag     5.112440     8Au     5.120684  
      19B1u    5.120684    20B2u    5.129879    20B3u    5.129879  
      20B1u    5.132957    21B2u    7.019089    21B3u    7.019089  
      21B1u    7.029495    15B1g    8.642606    31Ag     8.642606  
      15B2g    8.658451    15B3g    8.658451    16B1g    8.669865  
      32Ag     8.669865    16B3g    8.676751    16B2g    8.676751  
      33Ag     8.679052    17B1g    8.859242    34Ag     8.859242  
      17B2g    8.873409    17B3g    8.873409    18B1g    8.885163  
      35Ag     8.885163    18B2g    8.894410    18B3g    8.894410  
      36Ag     8.901071    19B1g    8.901071    19B3g    8.905092  
      19B2g    8.905092    37Ag     8.906436    22B2u    9.256506  
      22B3u    9.256506     9Au     9.271661    22B1u    9.271661  
      23B2u    9.283586    23B3u    9.283586    10Au     9.292177  
      23B1u    9.292177    24B2u    9.297361    24B3u    9.297361  
      24B1u    9.299094    38Ag    10.642267    20B1g   10.642267  
      20B3g   10.659049    20B2g   10.659049    39Ag    10.664643  
      25B3u   10.733298    25B2u   10.733298    11Au    10.750857  
      25B1u   10.750857    26B2u   10.761573    26B3u   10.761573  
      26B1u   10.765176    40Ag    12.322632    27B2u   29.474689  
      27B3u   29.474689    27B1u   29.475777    41Ag    30.667006  
      21B1g   30.667006    21B3g   30.671683    21B2g   30.671683  
      42Ag    30.673303    43Ag   242.983953  

    Final Occupation by Irrep:
             Ag   B1g   B2g   B3g    Au   B1u   B2u   B3u 
    DOCC [     3,    0,    0,    0,    0,    2,    1,    1 ]
    SOCC [     0,    0,    0,    0,    0,    0,    1,    1 ]

  Energy converged.

  @UHF Final Energy:  -397.51335640772010

   => Energetics <=

    Nuclear Repulsion Energy =              0.0000000000000000
    One-Electron Energy =                -549.3894511329502848
    Two-Electron Energy =                 151.8760947252301889
    PCM Polarization Energy =               0.0000000000000000
    Total Energy =                       -397.5133564077200958

    Alert: EFP and PCM quantities not currently incorporated into SCF psivars.
  UHF NO Occupations:
  HONO-2 :    3 Ag 1.9941617
  HONO-1 :    2B2u 1.0000000
  HONO-0 :    2B3u 1.0000000
  LUNO+0 :    4 Ag 0.0058383
  LUNO+1 :    3B1u 0.0009643
  LUNO+2 :    3B3u 0.0000054
  LUNO+3 :    3B2u 0.0000054



Properties will be evaluated at   0.000000,   0.000000,   0.000000 Bohr

Properties computed using the SCF density matrix

  Nuclear Dipole Moment: (a.u.)
     X:     0.0000      Y:     0.0000      Z:     0.0000

  Electronic Dipole Moment: (a.u.)
     X:     0.0000      Y:     0.0000      Z:     0.0000

  Dipole Moment: (a.u.)
     X:     0.0000      Y:     0.0000      Z:     0.0000     Total:     0.0000

  Dipole Moment: (Debye)
     X:     0.0000      Y:     0.0000      Z:     0.0000     Total:     0.0000


*** tstop() called on cqc05 at Wed Aug 26 09:18:49 2020
Module time:
	user time   =      46.10 seconds =       0.77 minutes
	system time =       0.92 seconds =       0.02 minutes
	total time  =         46 seconds =       0.77 minutes
Total time:
	user time   =      46.10 seconds =       0.77 minutes
	system time =       0.92 seconds =       0.02 minutes
	total time  =         46 seconds =       0.77 minutes

*** tstart() called on cqc05
*** at Wed Aug 26 09:18:49 2020


	Wfn Parameters:
	--------------------
	Wavefunction         = CCSD
	Number of irreps     = 8
	Number of MOs        = 198
	Number of active MOs = 193
	AO-Basis             = NONE
	Semicanonical        = false
	Reference            = UHF
	Print Level          = 1

	IRREP	# MOs	# FZDC	# DOCC	# SOCC	# VIRT	# FZVR
	-----	-----	------	------	------	------	------
	 Ag	   43	    2	    1	    0	    40	    0
	 B1g	   21	    0	    0	    0	    21	    0
	 B2g	   21	    0	    0	    0	    21	    0
	 B3g	   21	    0	    0	    0	    21	    0
	 Au	   11	    0	    0	    0	    11	    0
	 B1u	   27	    1	    1	    0	    25	    0
	 B2u	   27	    1	    0	    1	    25	    0
	 B3u	   27	    1	    0	    1	    25	    0
	Transforming integrals...
	IWL integrals will be deleted.
	(OO|OO)...
	Presorting SO-basis two-electron integrals.
	Sorting File: SO Ints (nn|nn) nbuckets = 1
	Transforming the one-electron integrals and constructing Fock matrices
	Starting AA/AB first half-transformation.
	Sorting AA/AB half-transformed integrals.
	Starting BB first half-transformation.
	Sorting BB half-transformed integrals.
	First half integral transformation complete.
	Starting AA second half-transformation.
	Starting AB second half-transformation.
	Starting BB second half-transformation.
	Two-electron integral transformation complete.
	(OO|OV)...
	Starting AA second half-transformation.
	Starting AB second half-transformation.
	Starting BB second half-transformation.
	Two-electron integral transformation complete.
	(OO|VV)...
	Starting AA second half-transformation.
	Starting AB second half-transformation.
	Starting BB second half-transformation.
	Two-electron integral transformation complete.
	(OV|OO)...
	Starting AA/AB first half-transformation.
	Sorting AA/AB half-transformed integrals.
	Starting BB first half-transformation.
	Sorting BB half-transformed integrals.
	First half integral transformation complete.
	Starting AA second half-transformation.
	Starting AB second half-transformation.
	Starting BB second half-transformation.
	Two-electron integral transformation complete.
	(OV|OV)...
	Starting AA second half-transformation.
	Starting AB second half-transformation.
	Starting BB second half-transformation.
	Two-electron integral transformation complete.
	(OV|VV)...
	Starting AA second half-transformation.
	Starting AB second half-transformation.
	Starting BB second half-transformation.
	Two-electron integral transformation complete.
	(VV|OO)...
	Starting AA/AB first half-transformation.
	Sorting AA/AB half-transformed integrals.
	Starting BB first half-transformation.
	Sorting BB half-transformed integrals.
	First half integral transformation complete.
	Starting AA second half-transformation.
	Starting AB second half-transformation.
	Starting BB second half-transformation.
	Two-electron integral transformation complete.
	(VV|OV)...
	Starting AA second half-transformation.
	Starting AB second half-transformation.
	Starting BB second half-transformation.
	Two-electron integral transformation complete.
	(VV|VV)...
	Starting AA second half-transformation.
	Starting AB second half-transformation.
	Starting BB second half-transformation.
	Two-electron integral transformation complete.
	Frozen core energy     =   -387.55318460887645

	Size of irrep 0 of <AB|CD> integrals:      5.593 (MW) /     44.746 (MB)
	Size of irrep 1 of <AB|CD> integrals:      4.757 (MW) /     38.054 (MB)
	Size of irrep 2 of <AB|CD> integrals:      4.757 (MW) /     38.054 (MB)
	Size of irrep 3 of <AB|CD> integrals:      4.757 (MW) /     38.054 (MB)
	Size of irrep 4 of <AB|CD> integrals:      4.060 (MW) /     32.482 (MB)
	Size of irrep 5 of <AB|CD> integrals:      5.203 (MW) /     41.624 (MB)
	Size of irrep 6 of <AB|CD> integrals:      5.203 (MW) /     41.624 (MB)
	Size of irrep 7 of <AB|CD> integrals:      5.203 (MW) /     41.624 (MB)
	Total:                                    39.533 (MW) /    316.261 (MB)

	Size of irrep 0 of <ab|cd> integrals:      5.832 (MW) /     46.658 (MB)
	Size of irrep 1 of <ab|cd> integrals:      4.982 (MW) /     39.855 (MB)
	Size of irrep 2 of <ab|cd> integrals:      4.915 (MW) /     39.321 (MB)
	Size of irrep 3 of <ab|cd> integrals:      4.915 (MW) /     39.321 (MB)
	Size of irrep 4 of <ab|cd> integrals:      4.231 (MW) /     33.850 (MB)
	Size of irrep 5 of <ab|cd> integrals:      5.396 (MW) /     43.171 (MB)
	Size of irrep 6 of <ab|cd> integrals:      5.485 (MW) /     43.880 (MB)
	Size of irrep 7 of <ab|cd> integrals:      5.485 (MW) /     43.880 (MB)
	Total:                                    41.242 (MW) /    329.934 (MB)

	Size of irrep 0 of <Ab|Cd> integrals:     24.691 (MW) /    197.528 (MB)
	Size of irrep 1 of <Ab|Cd> integrals:     19.466 (MW) /    155.726 (MB)
	Size of irrep 2 of <Ab|Cd> integrals:     19.342 (MW) /    154.739 (MB)
	Size of irrep 3 of <Ab|Cd> integrals:     19.342 (MW) /    154.739 (MB)
	Size of irrep 4 of <Ab|Cd> integrals:     16.581 (MW) /    132.649 (MB)
	Size of irrep 5 of <Ab|Cd> integrals:     21.197 (MW) /    169.575 (MB)
	Size of irrep 6 of <Ab|Cd> integrals:     21.372 (MW) /    170.977 (MB)
	Size of irrep 7 of <Ab|Cd> integrals:     21.372 (MW) /    170.977 (MB)
	Total:                                   163.364 (MW) /   1306.910 (MB)

	Size of irrep 0 of <IA|BC> integrals:      0.566 (MW) /      4.525 (MB)
	Size of irrep 1 of <IA|BC> integrals:      0.358 (MW) /      2.861 (MB)
	Size of irrep 2 of <IA|BC> integrals:      0.358 (MW) /      2.861 (MB)
	Size of irrep 3 of <IA|BC> integrals:      0.358 (MW) /      2.861 (MB)
	Size of irrep 4 of <IA|BC> integrals:      0.298 (MW) /      2.386 (MB)
	Size of irrep 5 of <IA|BC> integrals:      0.488 (MW) /      3.905 (MB)
	Size of irrep 6 of <IA|BC> integrals:      0.488 (MW) /      3.905 (MB)
	Size of irrep 7 of <IA|BC> integrals:      0.488 (MW) /      3.905 (MB)
	Total:                                     3.401 (MW) /     27.211 (MB)

	Size of irrep 0 of <ia|bc> integrals:      0.326 (MW) /      2.611 (MB)
	Size of irrep 1 of <ia|bc> integrals:      0.143 (MW) /      1.143 (MB)
	Size of irrep 2 of <ia|bc> integrals:      0.208 (MW) /      1.667 (MB)
	Size of irrep 3 of <ia|bc> integrals:      0.208 (MW) /      1.667 (MB)
	Size of irrep 4 of <ia|bc> integrals:      0.132 (MW) /      1.053 (MB)
	Size of irrep 5 of <ia|bc> integrals:      0.302 (MW) /      2.416 (MB)
	Size of irrep 6 of <ia|bc> integrals:      0.220 (MW) /      1.761 (MB)
	Size of irrep 7 of <ia|bc> integrals:      0.220 (MW) /      1.761 (MB)
	Total:                                     1.760 (MW) /     14.080 (MB)

	Size of irrep 0 of <Ia|Bc> integrals:      0.581 (MW) /      4.651 (MB)
	Size of irrep 1 of <Ia|Bc> integrals:      0.371 (MW) /      2.965 (MB)
	Size of irrep 2 of <Ia|Bc> integrals:      0.365 (MW) /      2.920 (MB)
	Size of irrep 3 of <Ia|Bc> integrals:      0.365 (MW) /      2.920 (MB)
	Size of irrep 4 of <Ia|Bc> integrals:      0.301 (MW) /      2.411 (MB)
	Size of irrep 5 of <Ia|Bc> integrals:      0.493 (MW) /      3.941 (MB)
	Size of irrep 6 of <Ia|Bc> integrals:      0.499 (MW) /      3.994 (MB)
	Size of irrep 7 of <Ia|Bc> integrals:      0.499 (MW) /      3.994 (MB)
	Total:                                     3.475 (MW) /     27.797 (MB)

	Size of irrep 0 of <iA|bC> integrals:      0.323 (MW) /      2.584 (MB)
	Size of irrep 1 of <iA|bC> integrals:      0.141 (MW) /      1.129 (MB)
	Size of irrep 2 of <iA|bC> integrals:      0.202 (MW) /      1.618 (MB)
	Size of irrep 3 of <iA|bC> integrals:      0.202 (MW) /      1.618 (MB)
	Size of irrep 4 of <iA|bC> integrals:      0.130 (MW) /      1.042 (MB)
	Size of irrep 5 of <iA|bC> integrals:      0.299 (MW) /      2.394 (MB)
	Size of irrep 6 of <iA|bC> integrals:      0.213 (MW) /      1.701 (MB)
	Size of irrep 7 of <iA|bC> integrals:      0.213 (MW) /      1.701 (MB)
	Total:                                     1.724 (MW) /     13.789 (MB)

	Size of irrep 0 of tIjAb amplitudes:       0.010 (MW) /      0.080 (MB)
	Size of irrep 1 of tIjAb amplitudes:       0.000 (MW) /      0.000 (MB)
	Size of irrep 2 of tIjAb amplitudes:       0.004 (MW) /      0.035 (MB)
	Size of irrep 3 of tIjAb amplitudes:       0.004 (MW) /      0.035 (MB)
	Size of irrep 4 of tIjAb amplitudes:       0.000 (MW) /      0.000 (MB)
	Size of irrep 5 of tIjAb amplitudes:       0.009 (MW) /      0.074 (MB)
	Size of irrep 6 of tIjAb amplitudes:       0.005 (MW) /      0.037 (MB)
	Size of irrep 7 of tIjAb amplitudes:       0.005 (MW) /      0.037 (MB)
	Total:                                     0.037 (MW) /      0.298 (MB)

	Nuclear Rep. energy          =      0.00000000000000
	SCF energy                   =   -397.51335640772010
	One-electron energy          =    -16.38754419318796
	Two-electron (AA) energy     =      2.33127417087930
	Two-electron (BB) energy     =      0.36164377372018
	Two-electron (AB) energy     =      3.73445444974457
	Two-electron energy          =      6.42737239434405
	Reference energy             =   -397.51335640772038

*** tstop() called on cqc05 at Wed Aug 26 09:19:10 2020
Module time:
	user time   =      13.86 seconds =       0.23 minutes
	system time =       7.00 seconds =       0.12 minutes
	total time  =         21 seconds =       0.35 minutes
Total time:
	user time   =      59.96 seconds =       1.00 minutes
	system time =       7.92 seconds =       0.13 minutes
	total time  =         67 seconds =       1.12 minutes

*** tstart() called on cqc05
*** at Wed Aug 26 09:19:10 2020

            **************************
            *                        *
            *        CCENERGY        *
            *                        *
            **************************

    Nuclear Rep. energy (wfn)     =    0.000000000000000
    SCF energy          (wfn)     = -397.513356407720096
    Reference energy    (file100) = -397.513356407720380

    Input parameters:
    -----------------
    Wave function   =     CCSD
    Reference wfn   =     UHF
    Brueckner       =     No
    Memory (Mbytes) =     250000.0
    Maxiter         =     50
    R_Convergence   =     1.0e-07
    E_Convergence   =     1.0e-06
    Restart         =     Yes
    DIIS            =     Yes
    AO Basis        =     NONE
    ABCD            =     NEW
    Cache Level     =     2
    Cache Type      =     LRU
    Print Level     =     1
    Num. of threads =     4
    # Amps to Print =     10
    Print MP2 Amps? =     No
    Analyze T2 Amps =     No
    Print Pair Ener =     No
    Local CC        =     No
    SCS-MP2         =     False
    SCSN-MP2        =     False
    SCS-CCSD        =     False

MP2 correlation energy -0.1353454707636801
                Solving CC Amplitude Equations
                ------------------------------
  Iter             Energy              RMS        T1Diag      D1Diag    New D1Diag    D2Diag
  ----     ---------------------    ---------   ----------  ----------  ----------   --------
     0        -0.135345470763681    0.000e+00    0.000000    0.000000    0.000000    0.000000
     1        -0.148307232487786    4.440e-02    0.009442    0.000000    0.000000    0.000000
     2        -0.153775504796758    1.569e-02    0.013903    0.000000    0.000000    0.000000
     3        -0.153995360319145    3.687e-03    0.015194    0.000000    0.000000    0.000000
     4        -0.154016417731074    9.423e-04    0.015395    0.000000    0.000000    0.000000
     5        -0.154011928488305    2.653e-04    0.015403    0.000000    0.000000    0.000000
     6        -0.154011154505899    9.802e-05    0.015400    0.000000    0.000000    0.000000
     7        -0.154012084273839    3.802e-05    0.015395    0.000000    0.000000    0.000000
     8        -0.154012249774784    1.138e-05    0.015394    0.000000    0.000000    0.000000
     9        -0.154012106492762    3.459e-06    0.015394    0.000000    0.000000    0.000000
    10        -0.154012109532514    9.415e-07    0.015394    0.000000    0.000000    0.000000
    11        -0.154012114160320    2.701e-07    0.015394    0.000000    0.000000    0.000000
    12        -0.154012121024913    7.619e-08    0.015394    0.000000    0.000000    0.000000
    12        -0.154012121024913    7.619e-08    0.015394    0.000000    0.000000    0.000000

    Iterations converged.


    CCSD corr. energy   =   -0.154012121024913
    PPL corr. energy    =    0.047212012800327
    OS PPL corr. energy =    0.040200045734515
    SS PPL corr. energy =    0.007011967065813
    Largest TIA Amplitudes:
              0   5        -0.0077818806
              1 115        -0.0071915489
              1 118         0.0054397757
              0  10         0.0043795370
              0   3         0.0040200044
              0   2         0.0038986311
              1 114         0.0038191961
              0  11        -0.0030220996
              1 120        -0.0021868452
              3 168        -0.0020729124

    Largest Tia Amplitudes:
              0   4        -0.0254781067
              0   2         0.0131882613
              0   9        -0.0130642441
              1 115        -0.0059429434
              0   3        -0.0054924764
              1 120         0.0048626434
              0   0         0.0048069091
              1 118         0.0046294834
              1 117        -0.0035939872
              1 114         0.0032716595

    Largest TIJAB Amplitudes:
      3   2  41   4         0.0361673430
      2   1  83   5         0.0338546426
      3   1  62   5         0.0338546424
      3   2  83  62         0.0204647102
      3   2  40   4         0.0191892427
      3   2  41   1         0.0191892427
      3   2  41   9         0.0188680062
      3   2  44   4         0.0188680062
      3   1  62  10        -0.0182384384
      2   1  83  10        -0.0182384384

    Largest Tijab Amplitudes:
      1   0 139  83        -0.0185227833
      1   0 165  62        -0.0185227831
      1   0 139  86        -0.0101013480
      1   0 165  65        -0.0101013479
      1   0 140  83         0.0098138489
      1   0 166  62         0.0098138489
      1   0 141  83        -0.0092510355
      1   0 167  62        -0.0092510354
      1   0 139  82        -0.0091712288
      1   0 165  61        -0.0091712287

    Largest TIjAb Amplitudes:
      1   1   5   4        -0.0533703648
      2   0   4 139         0.0477548004
      2   0  41 165        -0.0477547993
      3   0  41 139        -0.0477547993
      3   0   4 165        -0.0477547982
      1   0  83 139         0.0460777285
      1   0  62 165         0.0460777280
      1   1  83  83        -0.0427712378
      1   1  62  62        -0.0427712376
      1   1   5   9        -0.0297181413

    SCF energy       (wfn)                    = -397.513356407720096
    Reference energy (file100)                = -397.513356407720380

    Opposite-spin MP2 correlation energy      =   -0.106283907037624
    Same-spin MP2 correlation energy          =   -0.029061563726024
    MP2 correlation energy                    =   -0.135345470763680
      * MP2 total energy                      = -397.648701878484076

    Opposite-spin CCSD correlation energy     =   -0.124009303006099
    Same-spin CCSD correlation energy         =   -0.030002821787169
    CCSD correlation energy                   =   -0.154012121024913
      * CCSD total energy                     = -397.667368528745271


*** tstop() called on cqc05 at Wed Aug 26 09:19:25 2020
Module time:
	user time   =       6.35 seconds =       0.11 minutes
	system time =       7.13 seconds =       0.12 minutes
	total time  =         15 seconds =       0.25 minutes
Total time:
	user time   =      66.31 seconds =       1.11 minutes
	system time =      15.05 seconds =       0.25 minutes
	total time  =         82 seconds =       1.37 minutes

*** Psi4 exiting successfully. Buy a developer a beer!
