
    -----------------------------------------------------------------------
          Psi4: An Open-Source Ab Initio Electronic Structure Package
                               Psi4 1.2a1.dev938 

                         Git: Rev {HEAD} fc51d9a dirty


    R. M. Parrish, L. A. Burns, D. G. A. Smith, A. C. Simmonett,
    A. E. DePrince III, E. G. Hohenstein, U. Bozkaya, A. Yu. Sokolov,
    R. Di Remigio, R. M. Richard, J. F. Gonthier, A. M. James,
    H. R. McAlexander, A. Kumar, M. Saitow, X. Wang, B. P. Pritchard,
    P. Verma, H. F. Schaefer III, K. Patkowski, R. A. King, E. F. Valeev,
    F. A. Evangelista, J. M. Turney, T. D. Crawford, and C. D. Sherrill,
    J. Chem. Theory Comput. 13(7) pp 3185--3197 (2017).
    (doi: 10.1021/acs.jctc.7b00174)

    -----------------------------------------------------------------------


    Psi4 started on: Thursday, 20 August 2020 10:41PM

    Process ID: 425384
    PSIDATADIR: /home/irmler/Programs/psi4/beforeGrueneis3/stage/usr/local/psi4/share/psi4
    Memory:     500.0 MiB
    Threads:    4
    
  ==> Input File <==

--------------------------------------------------------------------------
# Any line starting with the # character is a comment line
memory 250000 mb
molecule molecule{
0 3
S          0.0000000000        0.0000000000        0.0000000000
}

set {
  reference uhf
  basis aug-cc-pv(q+d)z
  scf_type OUT_OF_CORE
  freeze_core true
}

energy('ccsd')
--------------------------------------------------------------------------

  Memory set to 232.831 GiB by Python driver.

*** tstart() called on cqc05
*** at Thu Aug 20 22:41:06 2020

   => Loading Basis Set <=

    Name: AUG-CC-PV(Q+D)Z
    Role: ORBITAL
    Keyword: BASIS
    atoms 1 entry S          line  1148 file /home/irmler/Programs/psi4/beforeGrueneis3/stage/usr/local/psi4/share/psi4/basis/aug-cc-pv_qpd_z.gbs 


         ---------------------------------------------------------
                                   SCF
            by Justin Turney, Rob Parrish, Andy Simmonett
                             and Daniel Smith
                              UHF Reference
                        4 Threads, 238418 MiB Core
         ---------------------------------------------------------

  ==> Geometry <==

    Molecular point group: d2h
    Geometry (in Angstrom), charge = 0, multiplicity = 3:

       Center              X                  Y                   Z               Mass       
    ------------   -----------------  -----------------  -----------------  -----------------
           S          0.000000000000     0.000000000000     0.000000000000    31.972070999000

  Running in d2h symmetry.

  Rotational constants: A = ************  B = ************  C = ************ [cm^-1]
  Rotational constants: A = ************  B = ************  C = ************ [MHz]
  Nuclear repulsion =    0.000000000000000

  Charge       = 0
  Multiplicity = 3
  Electrons    = 16
  Nalpha       = 9
  Nbeta        = 7

  ==> Algorithm <==

  SCF Algorithm Type is OUT_OF_CORE.
  DIIS enabled.
  MOM disabled.
  Fractional occupation disabled.
  Guess Type is GWH.
  Energy threshold   = 1.00e-08
  Density threshold  = 1.00e-08
  Integral threshold = 0.00e+00

  ==> Primary Basis <==

  Basis Set: AUG-CC-PV(Q+D)Z
    Blend: AUG-CC-PV(Q+D)Z
    Number of shells: 23
    Number of basis function: 89
    Number of Cartesian functions: 115
    Spherical Harmonics?: true
    Max angular momentum: 4

  ==> Pre-Iterations <==

   -------------------------------------------------------
    Irrep   Nso     Nmo     Nalpha   Nbeta   Ndocc  Nsocc
   -------------------------------------------------------
     Ag        23      23       0       0       0       0
     B1g        9       9       0       0       0       0
     B2g        9       9       0       0       0       0
     B3g        9       9       0       0       0       0
     Au         3       3       0       0       0       0
     B1u       12      12       0       0       0       0
     B2u       12      12       0       0       0       0
     B3u       12      12       0       0       0       0
   -------------------------------------------------------
    Total      89      89       9       7       7       2
   -------------------------------------------------------

  ==> Integral Setup <==

  ==> DiskJK: Disk-Based J/K Matrices <==

    J tasked:                  Yes
    K tasked:                  Yes
    wK tasked:                  No
    Memory (MB):            178813
    Schwarz Cutoff:          1E-12

  Minimum eigenvalue in the overlap matrix is 8.2028148627E-04.
  Using Symmetric Orthogonalization.

  SCF Guess: Generalized Wolfsberg-Helmholtz.

  ==> Iterations <==

                        Total Energy        Delta E     RMS |[F,P]|

    Occupation by irrep:
             Ag   B1g   B2g   B3g    Au   B1u   B2u   B3u 
    DOCC [     3,    0,    0,    0,    0,    1,    1,    2 ]
    SOCC [     0,    0,    0,    0,    0,    1,    1,    0 ]

   @UHF iter   1:  -370.88044367914750   -3.70880e+02   3.79656e-01 
   @UHF iter   2:  -390.61931774378434   -1.97389e+01   1.31661e-01 DIIS
   @UHF iter   3:  -397.13388141865505   -6.51456e+00   3.00318e-02 DIIS
   @UHF iter   4:  -397.50653158119542   -3.72650e-01   4.36516e-03 DIIS
   @UHF iter   5:  -397.51196859195204   -5.43701e-03   1.42158e-03 DIIS
   @UHF iter   6:  -397.51269782040549   -7.29228e-04   2.23240e-04 DIIS
   @UHF iter   7:  -397.51274018196835   -4.23616e-05   6.42462e-05 DIIS
   @UHF iter   8:  -397.51274469721301   -4.51524e-06   1.55402e-05 DIIS
   @UHF iter   9:  -397.51274512621796   -4.29005e-07   2.67989e-06 DIIS
   @UHF iter  10:  -397.51274513740935   -1.11914e-08   4.26493e-07 DIIS
   @UHF iter  11:  -397.51274513758716   -1.77806e-10   6.08115e-08 DIIS
   @UHF iter  12:  -397.51274513759103   -3.86535e-12   8.85458e-09 DIIS

  ==> Post-Iterations <==

   @Spin Contamination Metric:   1.352581168E-02
   @S^2 Expected:                2.000000000E+00
   @S^2 Observed:                2.013525812E+00
   @S   Expected:                1.000000000E+00
   @S   Observed:                1.000000000E+00

    Orbital Energies (a.u.)
    -----------------------

    Alpha Occupied:                                                       

       1Ag   -92.012634     2Ag    -9.013103     1B2u   -6.705810  
       1B1u   -6.705810     1B3u   -6.685326     3Ag    -0.989884  
       2B2u   -0.487012     2B1u   -0.487012     2B3u   -0.415534  

    Alpha Virtual:                                                        

       3B2u    0.078668     3B1u    0.078668     4Ag     0.080854  
       3B3u    0.085169     5Ag     0.188623     1B3g    0.188623  
       1B2g    0.200137     1B1g    0.200137     6Ag     0.204528  
       4B2u    0.391417     4B1u    0.391417     4B3u    0.415855  
       2B3g    0.476844     7Ag     0.476844     8Ag     0.506944  
       2B1g    0.507642     2B2g    0.507642     9Ag     0.520841  
       5B1u    0.539799     5B2u    0.539799     5B3u    0.550292  
       1Au     0.550292     6B2u    0.557057     6B1u    0.557057  
       6B3u    0.559446     3B3g    1.259759    10Ag     1.259759  
       3B1g    1.293213     3B2g    1.293213    11Ag     1.305966  
      12Ag     1.437170     4B3g    1.437170     4B2g    1.452208  
       4B1g    1.452208    13Ag     1.463353     5B3g    1.463353  
       5B1g    1.470227     5B2g    1.470227     7B1u    1.471503  
       7B2u    1.471503    14Ag     1.472555     2Au     1.497429  
       7B3u    1.497429     8B2u    1.498463     8B1u    1.498463  
       8B3u    1.515315     9B2u    1.519691     9B1u    1.519691  
       9B3u    1.553829    15Ag     2.113377     6B3g    3.021167  
      16Ag     3.021167     6B1g    3.053073     6B2g    3.053073  
      17Ag     3.065119    10B1u    3.620163    10B2u    3.620163  
      10B3u    3.651769     3Au     3.651769    11B2u    3.671316  
      11B1u    3.671316    11B3u    3.677948    18Ag     3.777581  
       7B3g    3.777581     7B2g    3.803449     7B1g    3.803449  
       8B3g    3.822432    19Ag     3.822432     8B1g    3.834042  
       8B2g    3.834042    20Ag     3.837952    12B2u    5.582372  
      12B1u    5.582372    12B3u    5.627716    21Ag     9.229856  
       9B3g    9.229856     9B2g    9.252739     9B1g    9.252739  
      22Ag     9.260531    23Ag    17.142654  

    Beta Occupied:                                                        

       1Ag   -91.994815     2Ag    -8.994085     1B3u   -6.675333  
       1B1u   -6.659630     1B2u   -6.659630     3Ag    -0.774031  
       2B3u   -0.379576  

    Beta Virtual:                                                         

       2B1u    0.001138     2B2u    0.001138     3B3u    0.086366  
       4Ag     0.088925     3B1u    0.100912     3B2u    0.100912  
       1B1g    0.211505     1B2g    0.211505     1B3g    0.211686  
       5Ag     0.211686     6Ag     0.211797     4B3u    0.423614  
       4B1u    0.449104     4B2u    0.449104     7Ag     0.537952  
       5B1u    0.553247     5B2u    0.553247     1Au     0.558921  
       5B3u    0.558921     8Ag     0.559307     6B2u    0.562534  
       6B1u    0.562534     2B2g    0.563380     2B1g    0.563380  
       6B3u    0.563663     9Ag     0.582806     2B3g    0.582806  
      10Ag     1.334152     3B2g    1.334746     3B1g    1.334746  
       3B3g    1.337157    11Ag     1.337157    12Ag     1.459803  
       4B3g    1.459803     4B1g    1.468903     4B2g    1.468903  
      13Ag     1.475537     5B3g    1.475537     5B1g    1.479572  
       5B2g    1.479572    14Ag     1.480926     7B2u    1.532311  
       7B1u    1.532311     7B3u    1.538279     2Au     1.538279  
       8B3u    1.539842     8B1u    1.540297     8B2u    1.540297  
       9B3u    1.566983     9B1u    1.578173     9B2u    1.578173  
      15Ag     2.155130     6B3g    3.056591    16Ag     3.056591  
       6B2g    3.072598     6B1g    3.072598    17Ag     3.077983  
      10B2u    3.684183    10B1u    3.684183    10B3u    3.695177  
       3Au     3.695177    11B1u    3.701704    11B2u    3.701704  
      11B3u    3.703865    18Ag     3.830272     7B3g    3.830272  
       7B1g    3.842952     7B2g    3.842952    19Ag     3.852059  
       8B3g    3.852059     8B2g    3.857541     8B1g    3.857541  
      20Ag     3.859371    12B1u    5.629648    12B2u    5.629648  
      12B3u    5.638627    21Ag     9.252961     9B3g    9.252961  
       9B2g    9.265907     9B1g    9.265907    22Ag     9.270256  
      23Ag    17.165292  

    Final Occupation by Irrep:
             Ag   B1g   B2g   B3g    Au   B1u   B2u   B3u 
    DOCC [     3,    0,    0,    0,    0,    1,    1,    2 ]
    SOCC [     0,    0,    0,    0,    0,    1,    1,    0 ]

  Energy converged.

  @UHF Final Energy:  -397.51274513759103

   => Energetics <=

    Nuclear Repulsion Energy =              0.0000000000000000
    One-Electron Energy =                -549.3862657240206318
    Two-Electron Energy =                 151.8735205864295779
    PCM Polarization Energy =               0.0000000000000000
    Total Energy =                       -397.5127451375910823

    Alert: EFP and PCM quantities not currently incorporated into SCF psivars.
  UHF NO Occupations:
  HONO-2 :    3 Ag 1.9941878
  HONO-1 :    2B2u 1.0000000
  HONO-0 :    2B1u 1.0000000
  LUNO+0 :    4 Ag 0.0058122
  LUNO+1 :    3B3u 0.0009602
  LUNO+2 :    3B2u 0.0000037
  LUNO+3 :    3B1u 0.0000037



Properties will be evaluated at   0.000000,   0.000000,   0.000000 Bohr

Properties computed using the SCF density matrix

  Nuclear Dipole Moment: (a.u.)
     X:     0.0000      Y:     0.0000      Z:     0.0000

  Electronic Dipole Moment: (a.u.)
     X:     0.0000      Y:     0.0000      Z:     0.0000

  Dipole Moment: (a.u.)
     X:     0.0000      Y:     0.0000      Z:     0.0000     Total:     0.0000

  Dipole Moment: (Debye)
     X:     0.0000      Y:     0.0000      Z:     0.0000     Total:     0.0000


*** tstop() called on cqc05 at Thu Aug 20 22:41:08 2020
Module time:
	user time   =       1.90 seconds =       0.03 minutes
	system time =       0.08 seconds =       0.00 minutes
	total time  =          2 seconds =       0.03 minutes
Total time:
	user time   =       1.90 seconds =       0.03 minutes
	system time =       0.08 seconds =       0.00 minutes
	total time  =          2 seconds =       0.03 minutes

*** tstart() called on cqc05
*** at Thu Aug 20 22:41:08 2020


	Wfn Parameters:
	--------------------
	Wavefunction         = CCSD
	Number of irreps     = 8
	Number of MOs        = 89
	Number of active MOs = 84
	AO-Basis             = NONE
	Semicanonical        = false
	Reference            = UHF
	Print Level          = 1

	IRREP	# MOs	# FZDC	# DOCC	# SOCC	# VIRT	# FZVR
	-----	-----	------	------	------	------	------
	 Ag	   23	    2	    1	    0	    20	    0
	 B1g	   9	    0	    0	    0	    9	    0
	 B2g	   9	    0	    0	    0	    9	    0
	 B3g	   9	    0	    0	    0	    9	    0
	 Au	   3	    0	    0	    0	    3	    0
	 B1u	   12	    1	    0	    1	    10	    0
	 B2u	   12	    1	    0	    1	    10	    0
	 B3u	   12	    1	    1	    0	    10	    0
	Transforming integrals...
	IWL integrals will be deleted.
	(OO|OO)...
	Presorting SO-basis two-electron integrals.
	Sorting File: SO Ints (nn|nn) nbuckets = 1
	Transforming the one-electron integrals and constructing Fock matrices
	Starting AA/AB first half-transformation.
	Sorting AA/AB half-transformed integrals.
	Starting BB first half-transformation.
	Sorting BB half-transformed integrals.
	First half integral transformation complete.
	Starting AA second half-transformation.
	Starting AB second half-transformation.
	Starting BB second half-transformation.
	Two-electron integral transformation complete.
	(OO|OV)...
	Starting AA second half-transformation.
	Starting AB second half-transformation.
	Starting BB second half-transformation.
	Two-electron integral transformation complete.
	(OO|VV)...
	Starting AA second half-transformation.
	Starting AB second half-transformation.
	Starting BB second half-transformation.
	Two-electron integral transformation complete.
	(OV|OO)...
	Starting AA/AB first half-transformation.
	Sorting AA/AB half-transformed integrals.
	Starting BB first half-transformation.
	Sorting BB half-transformed integrals.
	First half integral transformation complete.
	Starting AA second half-transformation.
	Starting AB second half-transformation.
	Starting BB second half-transformation.
	Two-electron integral transformation complete.
	(OV|OV)...
	Starting AA second half-transformation.
	Starting AB second half-transformation.
	Starting BB second half-transformation.
	Two-electron integral transformation complete.
	(OV|VV)...
	Starting AA second half-transformation.
	Starting AB second half-transformation.
	Starting BB second half-transformation.
	Two-electron integral transformation complete.
	(VV|OO)...
	Starting AA/AB first half-transformation.
	Sorting AA/AB half-transformed integrals.
	Starting BB first half-transformation.
	Sorting BB half-transformed integrals.
	First half integral transformation complete.
	Starting AA second half-transformation.
	Starting AB second half-transformation.
	Starting BB second half-transformation.
	Two-electron integral transformation complete.
	(VV|OV)...
	Starting AA second half-transformation.
	Starting AB second half-transformation.
	Starting BB second half-transformation.
	Two-electron integral transformation complete.
	(VV|VV)...
	Starting AA second half-transformation.
	Starting AB second half-transformation.
	Starting BB second half-transformation.
	Two-electron integral transformation complete.
	Frozen core energy     =   -387.55287442031954

	Size of irrep 0 of <AB|CD> integrals:      0.190 (MW) /      1.521 (MB)
	Size of irrep 1 of <AB|CD> integrals:      0.153 (MW) /      1.223 (MB)
	Size of irrep 2 of <AB|CD> integrals:      0.153 (MW) /      1.223 (MB)
	Size of irrep 3 of <AB|CD> integrals:      0.153 (MW) /      1.223 (MB)
	Size of irrep 4 of <AB|CD> integrals:      0.109 (MW) /      0.871 (MB)
	Size of irrep 5 of <AB|CD> integrals:      0.166 (MW) /      1.325 (MB)
	Size of irrep 6 of <AB|CD> integrals:      0.166 (MW) /      1.325 (MB)
	Size of irrep 7 of <AB|CD> integrals:      0.166 (MW) /      1.325 (MB)
	Total:                                     1.255 (MW) /     10.037 (MB)

	Size of irrep 0 of <ab|cd> integrals:      0.208 (MW) /      1.663 (MB)
	Size of irrep 1 of <ab|cd> integrals:      0.163 (MW) /      1.306 (MB)
	Size of irrep 2 of <ab|cd> integrals:      0.163 (MW) /      1.306 (MB)
	Size of irrep 3 of <ab|cd> integrals:      0.170 (MW) /      1.358 (MB)
	Size of irrep 4 of <ab|cd> integrals:      0.121 (MW) /      0.969 (MB)
	Size of irrep 5 of <ab|cd> integrals:      0.190 (MW) /      1.521 (MB)
	Size of irrep 6 of <ab|cd> integrals:      0.190 (MW) /      1.521 (MB)
	Size of irrep 7 of <ab|cd> integrals:      0.181 (MW) /      1.445 (MB)
	Total:                                     1.386 (MW) /     11.088 (MB)

	Size of irrep 0 of <Ab|Cd> integrals:      0.945 (MW) /      7.558 (MB)
	Size of irrep 1 of <Ab|Cd> integrals:      0.632 (MW) /      5.056 (MB)
	Size of irrep 2 of <Ab|Cd> integrals:      0.632 (MW) /      5.056 (MB)
	Size of irrep 3 of <Ab|Cd> integrals:      0.643 (MW) /      5.146 (MB)
	Size of irrep 4 of <Ab|Cd> integrals:      0.460 (MW) /      3.677 (MB)
	Size of irrep 5 of <Ab|Cd> integrals:      0.711 (MW) /      5.685 (MB)
	Size of irrep 6 of <Ab|Cd> integrals:      0.711 (MW) /      5.685 (MB)
	Size of irrep 7 of <Ab|Cd> integrals:      0.692 (MW) /      5.538 (MB)
	Total:                                     5.425 (MW) /     43.402 (MB)

	Size of irrep 0 of <IA|BC> integrals:      0.048 (MW) /      0.381 (MB)
	Size of irrep 1 of <IA|BC> integrals:      0.025 (MW) /      0.200 (MB)
	Size of irrep 2 of <IA|BC> integrals:      0.025 (MW) /      0.200 (MB)
	Size of irrep 3 of <IA|BC> integrals:      0.025 (MW) /      0.200 (MB)
	Size of irrep 4 of <IA|BC> integrals:      0.020 (MW) /      0.158 (MB)
	Size of irrep 5 of <IA|BC> integrals:      0.039 (MW) /      0.313 (MB)
	Size of irrep 6 of <IA|BC> integrals:      0.039 (MW) /      0.313 (MB)
	Size of irrep 7 of <IA|BC> integrals:      0.039 (MW) /      0.313 (MB)
	Total:                                     0.260 (MW) /      2.078 (MB)

	Size of irrep 0 of <ia|bc> integrals:      0.030 (MW) /      0.239 (MB)
	Size of irrep 1 of <ia|bc> integrals:      0.016 (MW) /      0.129 (MB)
	Size of irrep 2 of <ia|bc> integrals:      0.016 (MW) /      0.129 (MB)
	Size of irrep 3 of <ia|bc> integrals:      0.010 (MW) /      0.079 (MB)
	Size of irrep 4 of <ia|bc> integrals:      0.008 (MW) /      0.067 (MB)
	Size of irrep 5 of <ia|bc> integrals:      0.017 (MW) /      0.140 (MB)
	Size of irrep 6 of <ia|bc> integrals:      0.017 (MW) /      0.140 (MB)
	Size of irrep 7 of <ia|bc> integrals:      0.025 (MW) /      0.204 (MB)
	Total:                                     0.141 (MW) /      1.126 (MB)

	Size of irrep 0 of <Ia|Bc> integrals:      0.051 (MW) /      0.404 (MB)
	Size of irrep 1 of <Ia|Bc> integrals:      0.026 (MW) /      0.210 (MB)
	Size of irrep 2 of <Ia|Bc> integrals:      0.026 (MW) /      0.210 (MB)
	Size of irrep 3 of <Ia|Bc> integrals:      0.027 (MW) /      0.218 (MB)
	Size of irrep 4 of <Ia|Bc> integrals:      0.020 (MW) /      0.163 (MB)
	Size of irrep 5 of <Ia|Bc> integrals:      0.041 (MW) /      0.330 (MB)
	Size of irrep 6 of <Ia|Bc> integrals:      0.041 (MW) /      0.330 (MB)
	Size of irrep 7 of <Ia|Bc> integrals:      0.040 (MW) /      0.319 (MB)
	Total:                                     0.273 (MW) /      2.185 (MB)

	Size of irrep 0 of <iA|bC> integrals:      0.029 (MW) /      0.233 (MB)
	Size of irrep 1 of <iA|bC> integrals:      0.015 (MW) /      0.121 (MB)
	Size of irrep 2 of <iA|bC> integrals:      0.015 (MW) /      0.121 (MB)
	Size of irrep 3 of <iA|bC> integrals:      0.010 (MW) /      0.077 (MB)
	Size of irrep 4 of <iA|bC> integrals:      0.008 (MW) /      0.065 (MB)
	Size of irrep 5 of <iA|bC> integrals:      0.016 (MW) /      0.128 (MB)
	Size of irrep 6 of <iA|bC> integrals:      0.016 (MW) /      0.128 (MB)
	Size of irrep 7 of <iA|bC> integrals:      0.025 (MW) /      0.200 (MB)
	Total:                                     0.134 (MW) /      1.073 (MB)

	Size of irrep 0 of tIjAb amplitudes:       0.002 (MW) /      0.016 (MB)
	Size of irrep 1 of tIjAb amplitudes:       0.001 (MW) /      0.006 (MB)
	Size of irrep 2 of tIjAb amplitudes:       0.001 (MW) /      0.006 (MB)
	Size of irrep 3 of tIjAb amplitudes:       0.000 (MW) /      0.000 (MB)
	Size of irrep 4 of tIjAb amplitudes:       0.000 (MW) /      0.000 (MB)
	Size of irrep 5 of tIjAb amplitudes:       0.001 (MW) /      0.007 (MB)
	Size of irrep 6 of tIjAb amplitudes:       0.001 (MW) /      0.007 (MB)
	Size of irrep 7 of tIjAb amplitudes:       0.002 (MW) /      0.013 (MB)
	Total:                                     0.007 (MW) /      0.055 (MB)

	Nuclear Rep. energy          =      0.00000000000000
	SCF energy                   =   -397.51274513759103
	One-electron energy          =    -16.38669188088129
	Two-electron (AA) energy     =      2.33106060797464
	Two-electron (BB) energy     =      0.36162488469347
	Two-electron (AB) energy     =      3.73413567094029
	Two-electron energy          =      6.42682116360839
	Reference energy             =   -397.51274513759245

*** tstop() called on cqc05 at Thu Aug 20 22:41:09 2020
Module time:
	user time   =       0.57 seconds =       0.01 minutes
	system time =       0.38 seconds =       0.01 minutes
	total time  =          1 seconds =       0.02 minutes
Total time:
	user time   =       2.47 seconds =       0.04 minutes
	system time =       0.46 seconds =       0.01 minutes
	total time  =          3 seconds =       0.05 minutes

*** tstart() called on cqc05
*** at Thu Aug 20 22:41:09 2020

            **************************
            *                        *
            *        CCENERGY        *
            *                        *
            **************************

    Nuclear Rep. energy (wfn)     =    0.000000000000000
    SCF energy          (wfn)     = -397.512745137591025
    Reference energy    (file100) = -397.512745137592447

    Input parameters:
    -----------------
    Wave function   =     CCSD
    Reference wfn   =     UHF
    Brueckner       =     No
    Memory (Mbytes) =     250000.0
    Maxiter         =     50
    R_Convergence   =     1.0e-07
    E_Convergence   =     1.0e-06
    Restart         =     Yes
    DIIS            =     Yes
    AO Basis        =     NONE
    ABCD            =     NEW
    Cache Level     =     2
    Cache Type      =     LRU
    Print Level     =     1
    Num. of threads =     4
    # Amps to Print =     10
    Print MP2 Amps? =     No
    Analyze T2 Amps =     No
    Print Pair Ener =     No
    Local CC        =     No
    SCS-MP2         =     False
    SCSN-MP2        =     False
    SCS-CCSD        =     False

MP2 correlation energy -0.1285672514475110
                Solving CC Amplitude Equations
                ------------------------------
  Iter             Energy              RMS        T1Diag      D1Diag    New D1Diag    D2Diag
  ----     ---------------------    ---------   ----------  ----------  ----------   --------
     0        -0.128567251447511    0.000e+00    0.000000    0.000000    0.000000    0.000000
     1        -0.144354814419026    4.523e-02    0.008896    0.000000    0.000000    0.000000
     2        -0.149716831976631    1.577e-02    0.013583    0.000000    0.000000    0.000000
     3        -0.150019698751274    3.623e-03    0.014884    0.000000    0.000000    0.000000
     4        -0.150018247219375    7.621e-04    0.015015    0.000000    0.000000    0.000000
     5        -0.150011598303813    2.494e-04    0.015018    0.000000    0.000000    0.000000
     6        -0.150012667876354    9.344e-05    0.015012    0.000000    0.000000    0.000000
     7        -0.150013530531288    3.256e-05    0.015009    0.000000    0.000000    0.000000
     8        -0.150013401733195    1.072e-05    0.015008    0.000000    0.000000    0.000000
     9        -0.150013340489608    2.617e-06    0.015008    0.000000    0.000000    0.000000
    10        -0.150013348159358    6.804e-07    0.015008    0.000000    0.000000    0.000000
    11        -0.150013347088996    1.740e-07    0.015008    0.000000    0.000000    0.000000
    12        -0.150013347634063    4.776e-08    0.015008    0.000000    0.000000    0.000000
    12        -0.150013347634063    4.776e-08    0.015008    0.000000    0.000000    0.000000

    Iterations converged.


    CCSD corr. energy   =   -0.150013347634063
    PPL corr. energy    =    0.043971733586271
    OS PPL corr. energy =    0.037158554959889
    SS PPL corr. energy =    0.006813178626381
    Largest TIA Amplitudes:
              3  71         0.0069936569
              0   5         0.0062921225
              0   4        -0.0057701410
              0   2        -0.0045926162
              3  70        -0.0042414112
              0   7        -0.0031641969
              3  75        -0.0026881637
              3  76        -0.0025901579
              0  11         0.0021262609
              3  73        -0.0021155467

    Largest Tia Amplitudes:
              0   4         0.0259712281
              0   2        -0.0159622365
              0   6         0.0096380323
              1  73         0.0051227816
              0   0        -0.0050203890
              1  75         0.0045274520
              1  78        -0.0043155887
              1  77         0.0033161197
              1  72        -0.0031213871
              1  80        -0.0014512586

    Largest TIJAB Amplitudes:
      2   1  39   3        -0.0359475262
      3   1  30   5        -0.0330017194
      3   2  21   5        -0.0330017193
      2   1  39   1        -0.0224766814
      2   1  38   3        -0.0224766814
      2   1  30  21         0.0207856088
      3   1  30   2         0.0199187023
      3   2  21   2         0.0199187022
      3   1  29   5        -0.0193688656
      3   2  20   5        -0.0193688651

    Largest Tijab Amplitudes:
      1   0  50  30        -0.0189671516
      1   0  61  21        -0.0189671511
      1   0  50  29        -0.0113775914
      1   0  61  20        -0.0113775912
      1   0  51  30         0.0107793681
      1   0  62  21         0.0107793680
      1   0  52  30        -0.0095552811
      1   0  63  21        -0.0095552809
      1   0  73   4        -0.0085229319
      1   0  73   3        -0.0079539726

    Largest TIjAb Amplitudes:
      3   1   5   4        -0.0540204888
      1   0   3  50        -0.0488378892
      2   0  39  50        -0.0488378881
      1   0  39  61        -0.0488378876
      2   0   3  61         0.0488378866
      3   0  30  50         0.0475257715
      3   0  21  61         0.0475257707
      3   1  30  30        -0.0444786293
      3   1  21  21        -0.0444786292
      3   1  71  73        -0.0331799581

    SCF energy       (wfn)                    = -397.512745137591025
    Reference energy (file100)                = -397.512745137592447

    Opposite-spin MP2 correlation energy      =   -0.100093467228982
    Same-spin MP2 correlation energy          =   -0.028473784218509
    MP2 correlation energy                    =   -0.128567251447511
      * MP2 total energy                      = -397.641312389039967

    Opposite-spin CCSD correlation energy     =   -0.120468609054112
    Same-spin CCSD correlation energy         =   -0.029544740595992
    CCSD correlation energy                   =   -0.150013347634063
      * CCSD total energy                     = -397.662758485226504


*** tstop() called on cqc05 at Thu Aug 20 22:41:11 2020
Module time:
	user time   =       0.60 seconds =       0.01 minutes
	system time =       0.40 seconds =       0.01 minutes
	total time  =          2 seconds =       0.03 minutes
Total time:
	user time   =       3.07 seconds =       0.05 minutes
	system time =       0.86 seconds =       0.01 minutes
	total time  =          5 seconds =       0.08 minutes

*** Psi4 exiting successfully. Buy a developer a beer!
