
    -----------------------------------------------------------------------
          Psi4: An Open-Source Ab Initio Electronic Structure Package
                               Psi4 1.2a1.dev938 

                         Git: Rev {HEAD} fc51d9a dirty


    R. M. Parrish, L. A. Burns, D. G. A. Smith, A. C. Simmonett,
    A. E. DePrince III, E. G. Hohenstein, U. Bozkaya, A. Yu. Sokolov,
    R. Di Remigio, R. M. Richard, J. F. Gonthier, A. M. James,
    H. R. McAlexander, A. Kumar, M. Saitow, X. Wang, B. P. Pritchard,
    P. Verma, H. F. Schaefer III, K. Patkowski, R. A. King, E. F. Valeev,
    F. A. Evangelista, J. M. Turney, T. D. Crawford, and C. D. Sherrill,
    J. Chem. Theory Comput. 13(7) pp 3185--3197 (2017).
    (doi: 10.1021/acs.jctc.7b00174)

    -----------------------------------------------------------------------


    Psi4 started on: Thursday, 20 August 2020 07:56PM

    Process ID: 422989
    PSIDATADIR: /home/irmler/Programs/psi4/beforeGrueneis3/stage/usr/local/psi4/share/psi4
    Memory:     500.0 MiB
    Threads:    4
    
  ==> Input File <==

--------------------------------------------------------------------------
# Any line starting with the # character is a comment line
memory 250000 mb
molecule molecule{
0 3
S          0.0000000000        0.0000000000        0.0000000000
}

set {
  reference uhf
  basis aug-cc-pv(d+d)z
  scf_type OUT_OF_CORE
  freeze_core true
}

energy('ccsd')
--------------------------------------------------------------------------

  Memory set to 232.831 GiB by Python driver.

*** tstart() called on cqc05
*** at Thu Aug 20 19:56:12 2020

   => Loading Basis Set <=

    Name: AUG-CC-PV(D+D)Z
    Role: ORBITAL
    Keyword: BASIS
    atoms 1 entry S          line   724 file /home/irmler/Programs/psi4/beforeGrueneis3/stage/usr/local/psi4/share/psi4/basis/aug-cc-pv_dpd_z.gbs 


         ---------------------------------------------------------
                                   SCF
            by Justin Turney, Rob Parrish, Andy Simmonett
                             and Daniel Smith
                              UHF Reference
                        4 Threads, 238418 MiB Core
         ---------------------------------------------------------

  ==> Geometry <==

    Molecular point group: d2h
    Geometry (in Angstrom), charge = 0, multiplicity = 3:

       Center              X                  Y                   Z               Mass       
    ------------   -----------------  -----------------  -----------------  -----------------
           S          0.000000000000     0.000000000000     0.000000000000    31.972070999000

  Running in d2h symmetry.

  Rotational constants: A = ************  B = ************  C = ************ [cm^-1]
  Rotational constants: A = ************  B = ************  C = ************ [MHz]
  Nuclear repulsion =    0.000000000000000

  Charge       = 0
  Multiplicity = 3
  Electrons    = 16
  Nalpha       = 9
  Nbeta        = 7

  ==> Algorithm <==

  SCF Algorithm Type is OUT_OF_CORE.
  DIIS enabled.
  MOM disabled.
  Fractional occupation disabled.
  Guess Type is GWH.
  Energy threshold   = 1.00e-08
  Density threshold  = 1.00e-08
  Integral threshold = 0.00e+00

  ==> Primary Basis <==

  Basis Set: AUG-CC-PV(D+D)Z
    Blend: AUG-CC-PV(D+D)Z
    Number of shells: 12
    Number of basis function: 32
    Number of Cartesian functions: 35
    Spherical Harmonics?: true
    Max angular momentum: 2

  ==> Pre-Iterations <==

   -------------------------------------------------------
    Irrep   Nso     Nmo     Nalpha   Nbeta   Ndocc  Nsocc
   -------------------------------------------------------
     Ag        11      11       0       0       0       0
     B1g        3       3       0       0       0       0
     B2g        3       3       0       0       0       0
     B3g        3       3       0       0       0       0
     Au         0       0       0       0       0       0
     B1u        4       4       0       0       0       0
     B2u        4       4       0       0       0       0
     B3u        4       4       0       0       0       0
   -------------------------------------------------------
    Total      32      32       9       7       7       2
   -------------------------------------------------------

  ==> Integral Setup <==

  ==> DiskJK: Disk-Based J/K Matrices <==

    J tasked:                  Yes
    K tasked:                  Yes
    wK tasked:                  No
    Memory (MB):            178813
    Schwarz Cutoff:          1E-12

  Minimum eigenvalue in the overlap matrix is 4.6684866848E-02.
  Using Symmetric Orthogonalization.

  SCF Guess: Generalized Wolfsberg-Helmholtz.

  ==> Iterations <==

                        Total Energy        Delta E     RMS |[F,P]|

    Occupation by irrep:
             Ag   B1g   B2g   B3g    Au   B1u   B2u   B3u 
    DOCC [     3,    0,    0,    0,    0,    1,    2,    1 ]
    SOCC [     0,    0,    0,    0,    0,    1,    0,    1 ]

   @UHF iter   1:  -381.10641267097037   -3.81106e+02   4.65036e-01 
   @UHF iter   2:  -393.98439027700243   -1.28780e+01   1.95511e-01 DIIS
   @UHF iter   3:  -397.40733702056440   -3.42295e+00   3.25778e-02 DIIS
   @UHF iter   4:  -397.49754243563200   -9.02054e-02   4.41830e-03 DIIS
   @UHF iter   5:  -397.49882644127763   -1.28401e-03   1.36340e-03 DIIS
   @UHF iter   6:  -397.49896800013880   -1.41559e-04   2.18676e-04 DIIS
   @UHF iter   7:  -397.49897407633983   -6.07620e-06   3.43198e-05 DIIS
   @UHF iter   8:  -397.49897424394595   -1.67606e-07   6.95083e-06 DIIS
   @UHF iter   9:  -397.49897425432607   -1.03801e-08   1.51921e-06 DIIS
   @UHF iter  10:  -397.49897425493663   -6.10555e-10   4.41725e-07 DIIS
   @UHF iter  11:  -397.49897425497954   -4.29168e-11   5.21447e-08 DIIS
   @UHF iter  12:  -397.49897425497983   -2.84217e-13   4.44723e-09 DIIS

  ==> Post-Iterations <==

   @Spin Contamination Metric:   1.025690184E-02
   @S^2 Expected:                2.000000000E+00
   @S^2 Observed:                2.010256902E+00
   @S   Expected:                1.000000000E+00
   @S   Observed:                1.000000000E+00

    Orbital Energies (a.u.)
    -----------------------

    Alpha Occupied:                                                       

       1Ag   -92.015420     2Ag    -9.015647     1B3u   -6.708177  
       1B1u   -6.708177     1B2u   -6.686777     3Ag    -0.991573  
       2B3u   -0.486286     2B1u   -0.486286     2B2u   -0.417211  

    Alpha Virtual:                                                        

       4Ag     0.109710     3B3u    0.111125     3B1u    0.111125  
       3B2u    0.122412     1B2g    0.319206     5Ag     0.319206  
       1B3g    0.347898     1B1g    0.347898     6Ag     0.358198  
       4B3u    0.759948     4B1u    0.759948     4B2u    0.802313  
       7Ag     0.885917     2B2g    0.992058     8Ag     0.992058  
       2B1g    1.030429     2B3g    1.030429     9Ag     1.045778  
       3B2g    4.983799    10Ag     4.983799     3B3g    5.009003  
       3B1g    5.009003    11Ag     5.017442  

    Beta Occupied:                                                        

       1Ag   -91.997699     2Ag    -8.996690     1B2u   -6.676562  
       1B1u   -6.663228     1B3u   -6.663228     3Ag    -0.775891  
       2B2u   -0.375762  

    Beta Virtual:                                                         

       2B1u   -0.001709     2B3u   -0.001709     4Ag     0.123043  
       3B2u    0.125360     3B1u    0.145618     3B3u    0.145618  
       5Ag     0.392680     1B3g    0.395250     1B1g    0.395250  
       1B2g    0.408260     6Ag     0.408260     4B2u    0.819669  
       4B1u    0.850572     4B3u    0.850572     7Ag     0.931555  
       8Ag     1.086318     2B3g    1.088009     2B1g    1.088009  
       9Ag     1.096343     2B2g    1.096343    10Ag     5.002967  
       3B2g    5.002967     3B3g    5.020066     3B1g    5.020066  
      11Ag     5.025743  

    Final Occupation by Irrep:
             Ag   B1g   B2g   B3g    Au   B1u   B2u   B3u 
    DOCC [     3,    0,    0,    0,    0,    1,    2,    1 ]
    SOCC [     0,    0,    0,    0,    0,    1,    0,    1 ]

  Energy converged.

  @UHF Final Energy:  -397.49897425497983

   => Energetics <=

    Nuclear Repulsion Energy =              0.0000000000000000
    One-Electron Energy =                -549.3333358091590526
    Two-Electron Energy =                 151.8343615541791962
    Total Energy =                       -397.4989742549798848


  UHF NO Occupations:
  HONO-2 :    3 Ag 1.9953068
  HONO-1 :    2B3u 1.0000000
  HONO-0 :    2B1u 1.0000000
  LUNO+0 :    4 Ag 0.0046932
  LUNO+1 :    3B2u 0.0004447
  LUNO+2 :    3B3u 0.0000008
  LUNO+3 :    3B1u 0.0000008



Properties will be evaluated at   0.000000,   0.000000,   0.000000 Bohr

Properties computed using the SCF density matrix

  Nuclear Dipole Moment: (a.u.)
     X:     0.0000      Y:     0.0000      Z:     0.0000

  Electronic Dipole Moment: (a.u.)
     X:     0.0000      Y:     0.0000      Z:     0.0000

  Dipole Moment: (a.u.)
     X:     0.0000      Y:     0.0000      Z:     0.0000     Total:     0.0000

  Dipole Moment: (Debye)
     X:     0.0000      Y:     0.0000      Z:     0.0000     Total:     0.0000


*** tstop() called on cqc05 at Thu Aug 20 19:56:12 2020
Module time:
	user time   =       0.28 seconds =       0.00 minutes
	system time =       0.01 seconds =       0.00 minutes
	total time  =          0 seconds =       0.00 minutes
Total time:
	user time   =       0.28 seconds =       0.00 minutes
	system time =       0.01 seconds =       0.00 minutes
	total time  =          0 seconds =       0.00 minutes

*** tstart() called on cqc05
*** at Thu Aug 20 19:56:12 2020


	Wfn Parameters:
	--------------------
	Wavefunction         = CCSD
	Number of irreps     = 8
	Number of MOs        = 32
	Number of active MOs = 27
	AO-Basis             = NONE
	Semicanonical        = false
	Reference            = UHF
	Print Level          = 1

	IRREP	# MOs	# FZDC	# DOCC	# SOCC	# VIRT	# FZVR
	-----	-----	------	------	------	------	------
	 Ag	   11	    2	    1	    0	    8	    0
	 B1g	   3	    0	    0	    0	    3	    0
	 B2g	   3	    0	    0	    0	    3	    0
	 B3g	   3	    0	    0	    0	    3	    0
	 Au	   0	    0	    0	    0	    0	    0
	 B1u	   4	    1	    0	    1	    2	    0
	 B2u	   4	    1	    1	    0	    2	    0
	 B3u	   4	    1	    0	    1	    2	    0
	Transforming integrals...
	IWL integrals will be deleted.
	(OO|OO)...
	Presorting SO-basis two-electron integrals.
	Sorting File: SO Ints (nn|nn) nbuckets = 1
	Transforming the one-electron integrals and constructing Fock matrices
	Starting AA/AB first half-transformation.
	Sorting AA/AB half-transformed integrals.
	Starting BB first half-transformation.
	Sorting BB half-transformed integrals.
	First half integral transformation complete.
	Starting AA second half-transformation.
	Starting AB second half-transformation.
	Starting BB second half-transformation.
	Two-electron integral transformation complete.
	(OO|OV)...
	Starting AA second half-transformation.
	Starting AB second half-transformation.
	Starting BB second half-transformation.
	Two-electron integral transformation complete.
	(OO|VV)...
	Starting AA second half-transformation.
	Starting AB second half-transformation.
	Starting BB second half-transformation.
	Two-electron integral transformation complete.
	(OV|OO)...
	Starting AA/AB first half-transformation.
	Sorting AA/AB half-transformed integrals.
	Starting BB first half-transformation.
	Sorting BB half-transformed integrals.
	First half integral transformation complete.
	Starting AA second half-transformation.
	Starting AB second half-transformation.
	Starting BB second half-transformation.
	Two-electron integral transformation complete.
	(OV|OV)...
	Starting AA second half-transformation.
	Starting AB second half-transformation.
	Starting BB second half-transformation.
	Two-electron integral transformation complete.
	(OV|VV)...
	Starting AA second half-transformation.
	Starting AB second half-transformation.
	Starting BB second half-transformation.
	Two-electron integral transformation complete.
	(VV|OO)...
	Starting AA/AB first half-transformation.
	Sorting AA/AB half-transformed integrals.
	Starting BB first half-transformation.
	Sorting BB half-transformed integrals.
	First half integral transformation complete.
	Starting AA second half-transformation.
	Starting AB second half-transformation.
	Starting BB second half-transformation.
	Two-electron integral transformation complete.
	(VV|OV)...
	Starting AA second half-transformation.
	Starting AB second half-transformation.
	Starting BB second half-transformation.
	Two-electron integral transformation complete.
	(VV|VV)...
	Starting AA second half-transformation.
	Starting AB second half-transformation.
	Starting BB second half-transformation.
	Two-electron integral transformation complete.
	Frozen core energy     =   -387.54520069529099

	Size of irrep 0 of <AB|CD> integrals:      0.002 (MW) /      0.013 (MB)
	Size of irrep 1 of <AB|CD> integrals:      0.001 (MW) /      0.011 (MB)
	Size of irrep 2 of <AB|CD> integrals:      0.001 (MW) /      0.011 (MB)
	Size of irrep 3 of <AB|CD> integrals:      0.001 (MW) /      0.011 (MB)
	Size of irrep 4 of <AB|CD> integrals:      0.000 (MW) /      0.003 (MB)
	Size of irrep 5 of <AB|CD> integrals:      0.001 (MW) /      0.006 (MB)
	Size of irrep 6 of <AB|CD> integrals:      0.001 (MW) /      0.006 (MB)
	Size of irrep 7 of <AB|CD> integrals:      0.001 (MW) /      0.006 (MB)
	Total:                                     0.008 (MW) /      0.067 (MB)

	Size of irrep 0 of <ab|cd> integrals:      0.002 (MW) /      0.015 (MB)
	Size of irrep 1 of <ab|cd> integrals:      0.002 (MW) /      0.012 (MB)
	Size of irrep 2 of <ab|cd> integrals:      0.002 (MW) /      0.014 (MB)
	Size of irrep 3 of <ab|cd> integrals:      0.002 (MW) /      0.012 (MB)
	Size of irrep 4 of <ab|cd> integrals:      0.001 (MW) /      0.005 (MB)
	Size of irrep 5 of <ab|cd> integrals:      0.002 (MW) /      0.012 (MB)
	Size of irrep 6 of <ab|cd> integrals:      0.001 (MW) /      0.009 (MB)
	Size of irrep 7 of <ab|cd> integrals:      0.002 (MW) /      0.012 (MB)
	Total:                                     0.012 (MW) /      0.092 (MB)

	Size of irrep 0 of <Ab|Cd> integrals:      0.011 (MW) /      0.092 (MB)
	Size of irrep 1 of <Ab|Cd> integrals:      0.006 (MW) /      0.046 (MB)
	Size of irrep 2 of <Ab|Cd> integrals:      0.006 (MW) /      0.049 (MB)
	Size of irrep 3 of <Ab|Cd> integrals:      0.006 (MW) /      0.046 (MB)
	Size of irrep 4 of <Ab|Cd> integrals:      0.002 (MW) /      0.014 (MB)
	Size of irrep 5 of <Ab|Cd> integrals:      0.004 (MW) /      0.036 (MB)
	Size of irrep 6 of <Ab|Cd> integrals:      0.004 (MW) /      0.031 (MB)
	Size of irrep 7 of <Ab|Cd> integrals:      0.004 (MW) /      0.036 (MB)
	Total:                                     0.044 (MW) /      0.349 (MB)

	Size of irrep 0 of <IA|BC> integrals:      0.001 (MW) /      0.012 (MB)
	Size of irrep 1 of <IA|BC> integrals:      0.001 (MW) /      0.004 (MB)
	Size of irrep 2 of <IA|BC> integrals:      0.001 (MW) /      0.004 (MB)
	Size of irrep 3 of <IA|BC> integrals:      0.001 (MW) /      0.004 (MB)
	Size of irrep 4 of <IA|BC> integrals:      0.000 (MW) /      0.003 (MB)
	Size of irrep 5 of <IA|BC> integrals:      0.001 (MW) /      0.007 (MB)
	Size of irrep 6 of <IA|BC> integrals:      0.001 (MW) /      0.007 (MB)
	Size of irrep 7 of <IA|BC> integrals:      0.001 (MW) /      0.007 (MB)
	Total:                                     0.006 (MW) /      0.048 (MB)

	Size of irrep 0 of <ia|bc> integrals:      0.001 (MW) /      0.009 (MB)
	Size of irrep 1 of <ia|bc> integrals:      0.000 (MW) /      0.004 (MB)
	Size of irrep 2 of <ia|bc> integrals:      0.000 (MW) /      0.002 (MB)
	Size of irrep 3 of <ia|bc> integrals:      0.000 (MW) /      0.004 (MB)
	Size of irrep 4 of <ia|bc> integrals:      0.000 (MW) /      0.001 (MB)
	Size of irrep 5 of <ia|bc> integrals:      0.000 (MW) /      0.004 (MB)
	Size of irrep 6 of <ia|bc> integrals:      0.001 (MW) /      0.005 (MB)
	Size of irrep 7 of <ia|bc> integrals:      0.000 (MW) /      0.004 (MB)
	Total:                                     0.004 (MW) /      0.033 (MB)

	Size of irrep 0 of <Ia|Bc> integrals:      0.002 (MW) /      0.014 (MB)
	Size of irrep 1 of <Ia|Bc> integrals:      0.001 (MW) /      0.005 (MB)
	Size of irrep 2 of <Ia|Bc> integrals:      0.001 (MW) /      0.006 (MB)
	Size of irrep 3 of <Ia|Bc> integrals:      0.001 (MW) /      0.005 (MB)
	Size of irrep 4 of <Ia|Bc> integrals:      0.000 (MW) /      0.003 (MB)
	Size of irrep 5 of <Ia|Bc> integrals:      0.001 (MW) /      0.009 (MB)
	Size of irrep 6 of <Ia|Bc> integrals:      0.001 (MW) /      0.008 (MB)
	Size of irrep 7 of <Ia|Bc> integrals:      0.001 (MW) /      0.009 (MB)
	Total:                                     0.007 (MW) /      0.058 (MB)

	Size of irrep 0 of <iA|bC> integrals:      0.001 (MW) /      0.009 (MB)
	Size of irrep 1 of <iA|bC> integrals:      0.000 (MW) /      0.003 (MB)
	Size of irrep 2 of <iA|bC> integrals:      0.000 (MW) /      0.002 (MB)
	Size of irrep 3 of <iA|bC> integrals:      0.000 (MW) /      0.003 (MB)
	Size of irrep 4 of <iA|bC> integrals:      0.000 (MW) /      0.001 (MB)
	Size of irrep 5 of <iA|bC> integrals:      0.000 (MW) /      0.003 (MB)
	Size of irrep 6 of <iA|bC> integrals:      0.001 (MW) /      0.005 (MB)
	Size of irrep 7 of <iA|bC> integrals:      0.000 (MW) /      0.003 (MB)
	Total:                                     0.003 (MW) /      0.028 (MB)

	Size of irrep 0 of tIjAb amplitudes:       0.000 (MW) /      0.002 (MB)
	Size of irrep 1 of tIjAb amplitudes:       0.000 (MW) /      0.001 (MB)
	Size of irrep 2 of tIjAb amplitudes:       0.000 (MW) /      0.000 (MB)
	Size of irrep 3 of tIjAb amplitudes:       0.000 (MW) /      0.001 (MB)
	Size of irrep 4 of tIjAb amplitudes:       0.000 (MW) /      0.000 (MB)
	Size of irrep 5 of tIjAb amplitudes:       0.000 (MW) /      0.001 (MB)
	Size of irrep 6 of tIjAb amplitudes:       0.000 (MW) /      0.001 (MB)
	Size of irrep 7 of tIjAb amplitudes:       0.000 (MW) /      0.001 (MB)
	Total:                                     0.001 (MW) /      0.005 (MB)

	Nuclear Rep. energy          =      0.00000000000000
	SCF energy                   =   -397.49897425497983
	One-electron energy          =    -16.37453834313948
	Two-electron (AA) energy     =      2.32725693826213
	Two-electron (BB) energy     =      0.36158936940977
	Two-electron (AB) energy     =      3.73191847577885
	Two-electron energy          =      6.42076478345076
	Reference energy             =   -397.49897425497971

*** tstop() called on cqc05 at Thu Aug 20 19:56:13 2020
Module time:
	user time   =       0.05 seconds =       0.00 minutes
	system time =       0.03 seconds =       0.00 minutes
	total time  =          1 seconds =       0.02 minutes
Total time:
	user time   =       0.33 seconds =       0.01 minutes
	system time =       0.04 seconds =       0.00 minutes
	total time  =          1 seconds =       0.02 minutes

*** tstart() called on cqc05
*** at Thu Aug 20 19:56:13 2020

            **************************
            *                        *
            *        CCENERGY        *
            *                        *
            **************************

    Nuclear Rep. energy (wfn)     =    0.000000000000000
    SCF energy          (wfn)     = -397.498974254979828
    Reference energy    (file100) = -397.498974254979714

    Input parameters:
    -----------------
    Wave function   =     CCSD
    Reference wfn   =     UHF
    Brueckner       =     No
    Memory (Mbytes) =     250000.0
    Maxiter         =     50
    R_Convergence   =     1.0e-07
    E_Convergence   =     1.0e-06
    Restart         =     Yes
    DIIS            =     Yes
    AO Basis        =     NONE
    ABCD            =     NEW
    Cache Level     =     2
    Cache Type      =     LRU
    Print Level     =     1
    Num. of threads =     4
    # Amps to Print =     10
    Print MP2 Amps? =     No
    Analyze T2 Amps =     No
    Print Pair Ener =     No
    Local CC        =     No
    SCS-MP2         =     False
    SCSN-MP2        =     False
    SCS-CCSD        =     False

MP2 correlation energy -0.0919071944785503
                Solving CC Amplitude Equations
                ------------------------------
  Iter             Energy              RMS        T1Diag      D1Diag    New D1Diag    D2Diag
  ----     ---------------------    ---------   ----------  ----------  ----------   --------
     0        -0.091907194478550    0.000e+00    0.000000    0.000000    0.000000    0.000000
     1        -0.108029682978909    4.528e-02    0.007434    0.000000    0.000000    0.000000
     2        -0.112966592808162    1.576e-02    0.012184    0.000000    0.000000    0.000000
     3        -0.113303981169051    3.699e-03    0.013337    0.000000    0.000000    0.000000
     4        -0.113322145032086    8.260e-04    0.013357    0.000000    0.000000    0.000000
     5        -0.113318881316909    3.099e-04    0.013336    0.000000    0.000000    0.000000
     6        -0.113319213172168    1.182e-04    0.013323    0.000000    0.000000    0.000000
     7        -0.113320416201160    2.904e-05    0.013323    0.000000    0.000000    0.000000
     8        -0.113319839194922    5.955e-06    0.013323    0.000000    0.000000    0.000000
     9        -0.113319903924845    1.391e-06    0.013324    0.000000    0.000000    0.000000
    10        -0.113319909669925    3.544e-07    0.013324    0.000000    0.000000    0.000000
    11        -0.113319905936715    9.503e-08    0.013324    0.000000    0.000000    0.000000
    11        -0.113319905936715    9.503e-08    0.013324    0.000000    0.000000    0.000000

    Iterations converged.


    CCSD corr. energy   =   -0.113319905936715
    PPL corr. energy    =    0.027705581380300
    OS PPL corr. energy =    0.022738719938900
    SS PPL corr. energy =    0.004966861441400
    Largest TIA Amplitudes:
              1  17         0.0056536544
              3  21         0.0056536530
              0   2         0.0044752062
              0   3         0.0030411803
              0   5         0.0025667587
              2  20         0.0021451694
              2  19         0.0014541132
              1  18        -0.0009530532
              3  22        -0.0009530529
              0   0        -0.0003622445

    Largest Tia Amplitudes:
              0   1        -0.0260846583
              0   4         0.0146274033
              1  20         0.0063173565
              0   3         0.0040238212
              0   0        -0.0024722122
              0   7         0.0002892593
              1  21        -0.0000085896

    Largest TIJAB Amplitudes:
      3   1  11   1        -0.0405212615
      2   1  14   2         0.0388480151
      3   2   8   2        -0.0388480150
      3   1  14   8         0.0236873153
      3   1  22  18        -0.0210175720
      2   1  20  18        -0.0206851270
      3   2  22  20        -0.0206851270
      3   1  11   4        -0.0204538157
      3   1  12   1        -0.0204538157
      2   1  14   5         0.0203178573

    Largest Tijab Amplitudes:
      1   0  17  14        -0.0194837606
      1   0  22   8        -0.0194837605
      1   0  23   8        -0.0114888175
      1   0  18  14        -0.0114888175
      1   0  21   3        -0.0112189392
      1   0  17  15        -0.0107755402
      1   0  22   9        -0.0107755402
      1   0  23   9        -0.0072137891
      1   0  18  15        -0.0072137891
      1   0  21   0         0.0070439181

    Largest TIjAb Amplitudes:
      2   1   2   1        -0.0607814645
      1   0   1  17         0.0535045814
      3   0  11  17         0.0535045812
      1   0  11  22         0.0535045812
      3   0   1  22        -0.0535045810
      2   0  14  17         0.0497421764
      2   0   8  22         0.0497421763
      2   1   8   8        -0.0480827548
      2   1  14  14        -0.0480827548
      2   1  20  21        -0.0409151830

    SCF energy       (wfn)                    = -397.498974254979828
    Reference energy (file100)                = -397.498974254979714

    Opposite-spin MP2 correlation energy      =   -0.068860712237861
    Same-spin MP2 correlation energy          =   -0.023046482240689
    MP2 correlation energy                    =   -0.091907194478550
      * MP2 total energy                      = -397.590881449458266

    Opposite-spin CCSD correlation energy     =   -0.089431935214805
    Same-spin CCSD correlation energy         =   -0.023887970659709
    CCSD correlation energy                   =   -0.113319905936715
      * CCSD total energy                     = -397.612294160916406


*** tstop() called on cqc05 at Thu Aug 20 19:56:14 2020
Module time:
	user time   =       0.13 seconds =       0.00 minutes
	system time =       0.15 seconds =       0.00 minutes
	total time  =          1 seconds =       0.02 minutes
Total time:
	user time   =       0.46 seconds =       0.01 minutes
	system time =       0.19 seconds =       0.00 minutes
	total time  =          2 seconds =       0.03 minutes

*** Psi4 exiting successfully. Buy a developer a beer!
