
    -----------------------------------------------------------------------
          Psi4: An Open-Source Ab Initio Electronic Structure Package
                               Psi4 1.2a1.dev938 

                         Git: Rev {HEAD} fc51d9a dirty


    R. M. Parrish, L. A. Burns, D. G. A. Smith, A. C. Simmonett,
    A. E. DePrince III, E. G. Hohenstein, U. Bozkaya, A. Yu. Sokolov,
    R. Di Remigio, R. M. Richard, J. F. Gonthier, A. M. James,
    H. R. McAlexander, A. Kumar, M. Saitow, X. Wang, B. P. Pritchard,
    P. Verma, H. F. Schaefer III, K. Patkowski, R. A. King, E. F. Valeev,
    F. A. Evangelista, J. M. Turney, T. D. Crawford, and C. D. Sherrill,
    J. Chem. Theory Comput. 13(7) pp 3185--3197 (2017).
    (doi: 10.1021/acs.jctc.7b00174)

    -----------------------------------------------------------------------


    Psi4 started on: Friday, 21 August 2020 06:47AM

    Process ID: 428023
    PSIDATADIR: /home/irmler/Programs/psi4/beforeGrueneis3/stage/usr/local/psi4/share/psi4
    Memory:     500.0 MiB
    Threads:    4
    
  ==> Input File <==

--------------------------------------------------------------------------
# Any line starting with the # character is a comment line
memory 250000 mb
molecule molecule{
0 3
S          0.0000000000        0.0000000000        0.0000000000
}

set {
  reference uhf
  basis aug-cc-pv(5+d)z
  scf_type OUT_OF_CORE
  freeze_core true
}

energy('ccsd')
--------------------------------------------------------------------------

  Memory set to 232.831 GiB by Python driver.

*** tstart() called on cqc05
*** at Fri Aug 21 06:47:20 2020

   => Loading Basis Set <=

    Name: AUG-CC-PV(5+D)Z
    Role: ORBITAL
    Keyword: BASIS
    atoms 1 entry S          line   971 file /home/irmler/Programs/psi4/beforeGrueneis3/stage/usr/local/psi4/share/psi4/basis/aug-cc-pv_5pd_z.gbs 


         ---------------------------------------------------------
                                   SCF
            by Justin Turney, Rob Parrish, Andy Simmonett
                             and Daniel Smith
                              UHF Reference
                        4 Threads, 238418 MiB Core
         ---------------------------------------------------------

  ==> Geometry <==

    Molecular point group: d2h
    Geometry (in Angstrom), charge = 0, multiplicity = 3:

       Center              X                  Y                   Z               Mass       
    ------------   -----------------  -----------------  -----------------  -----------------
           S          0.000000000000     0.000000000000     0.000000000000    31.972070999000

  Running in d2h symmetry.

  Rotational constants: A = ************  B = ************  C = ************ [cm^-1]
  Rotational constants: A = ************  B = ************  C = ************ [MHz]
  Nuclear repulsion =    0.000000000000000

  Charge       = 0
  Multiplicity = 3
  Electrons    = 16
  Nalpha       = 9
  Nbeta        = 7

  ==> Algorithm <==

  SCF Algorithm Type is OUT_OF_CORE.
  DIIS enabled.
  MOM disabled.
  Fractional occupation disabled.
  Guess Type is GWH.
  Energy threshold   = 1.00e-08
  Density threshold  = 1.00e-08
  Integral threshold = 0.00e+00

  ==> Primary Basis <==

  Basis Set: AUG-CC-PV(5+D)Z
    Blend: AUG-CC-PV(5+D)Z
    Number of shells: 30
    Number of basis function: 136
    Number of Cartesian functions: 192
    Spherical Harmonics?: true
    Max angular momentum: 5

  ==> Pre-Iterations <==

   -------------------------------------------------------
    Irrep   Nso     Nmo     Nalpha   Nbeta   Ndocc  Nsocc
   -------------------------------------------------------
     Ag        29      29       0       0       0       0
     B1g       12      12       0       0       0       0
     B2g       12      12       0       0       0       0
     B3g       12      12       0       0       0       0
     Au         8       8       0       0       0       0
     B1u       21      21       0       0       0       0
     B2u       21      21       0       0       0       0
     B3u       21      21       0       0       0       0
   -------------------------------------------------------
    Total     136     136       9       7       7       2
   -------------------------------------------------------

  ==> Integral Setup <==

  ==> DiskJK: Disk-Based J/K Matrices <==

    J tasked:                  Yes
    K tasked:                  Yes
    wK tasked:                  No
    Memory (MB):            178813
    Schwarz Cutoff:          1E-12

  Minimum eigenvalue in the overlap matrix is 9.7491445103E-05.
  Using Symmetric Orthogonalization.

  SCF Guess: Generalized Wolfsberg-Helmholtz.

  ==> Iterations <==

                        Total Energy        Delta E     RMS |[F,P]|

    Occupation by irrep:
             Ag   B1g   B2g   B3g    Au   B1u   B2u   B3u 
    DOCC [     3,    0,    0,    0,    0,    2,    1,    1 ]
    SOCC [     0,    0,    0,    0,    0,    0,    1,    1 ]

   @UHF iter   1:  -376.82550586412043   -3.76826e+02   2.78408e-01 
   @UHF iter   2:  -390.91383250656605   -1.40883e+01   9.03624e-02 DIIS
   @UHF iter   3:  -396.99593081989951   -6.08210e+00   3.37676e-02 DIIS
   @UHF iter   4:  -397.48610710668191   -4.90176e-01   5.04291e-03 DIIS
   @UHF iter   5:  -397.51185674135337   -2.57496e-02   1.66734e-03 DIIS
   @UHF iter   6:  -397.51315146031112   -1.29472e-03   2.21702e-04 DIIS
   @UHF iter   7:  -397.51320978828198   -5.83280e-05   6.48190e-05 DIIS
   @UHF iter   8:  -397.51321692471134   -7.13643e-06   1.41036e-05 DIIS
   @UHF iter   9:  -397.51321746943518   -5.44724e-07   2.83245e-06 DIIS
   @UHF iter  10:  -397.51321749054944   -2.11143e-08   4.19856e-07 DIIS
   @UHF iter  11:  -397.51321749090334   -3.53907e-10   6.97019e-08 DIIS
   @UHF iter  12:  -397.51321749091028   -6.93490e-12   8.49199e-09 DIIS

  ==> Post-Iterations <==

   @Spin Contamination Metric:   1.357185946E-02
   @S^2 Expected:                2.000000000E+00
   @S^2 Observed:                2.013571859E+00
   @S   Expected:                1.000000000E+00
   @S   Observed:                1.000000000E+00

    Orbital Energies (a.u.)
    -----------------------

    Alpha Occupied:                                                       

       1Ag   -92.013204     2Ag    -9.012694     1B2u   -6.705923  
       1B3u   -6.705923     1B1u   -6.685446     3Ag    -0.989837  
       2B2u   -0.486998     2B3u   -0.486998     2B1u   -0.415534  

    Alpha Virtual:                                                        

       3B2u    0.070628     3B3u    0.070628     4Ag     0.074183  
       3B1u    0.076249     5Ag     0.176530     1B1g    0.176530  
       1B2g    0.186649     1B3g    0.186649     6Ag     0.190485  
       4B2u    0.331386     4B3u    0.331386     4B1u    0.351824  
       7Ag     0.428511     8Ag     0.445256     2B1g    0.445256  
       5B2u    0.446546     5B3u    0.446546     5B1u    0.454397  
       1Au     0.454397     6B2u    0.459468     6B3u    0.459468  
       6B1u    0.461272     2B3g    0.474797     2B2g    0.474797  
       9Ag     0.486562     3B1g    1.054294    10Ag     1.054294  
       3B3g    1.064803     3B2g    1.064803    11Ag     1.072270  
       4B1g    1.072270     4B3g    1.076975     4B2g    1.076975  
      12Ag     1.078579     5B1g    1.123307    13Ag     1.123307  
       7B2u    1.152501     7B3u    1.152501     5B3g    1.155291  
       5B2g    1.155291    14Ag     1.167466     7B1u    1.172404  
       2Au     1.172404     8B2u    1.174938     8B3u    1.174938  
       8B1u    1.185883     9B2u    1.193459     9B3u    1.193459  
       9B1u    1.228324    15Ag     1.614182    10B2u    2.534129  
      10B3u    2.534129     3Au     2.563408    10B1u    2.563408  
      11B2u    2.581429    11B3u    2.581429    11B1u    2.587534  
      16Ag     2.650196     6B1g    2.650196    12B3u    2.664554  
      12B2u    2.664554     6B3g    2.671811     6B2g    2.671811  
      12B1u    2.679841     4Au     2.679841     7B1g    2.685464  
      17Ag     2.685464    13B3u    2.692048    13B2u    2.692048  
       7B2g    2.694267     7B3g    2.694267    18Ag     2.697282  
       5Au     2.700975    13B1u    2.700975    14B2u    2.706435  
      14B3u    2.706435    14B1u    2.708275    19Ag     2.739851  
       8B1g    2.739851     8B2g    2.773514     8B3g    2.773514  
      20Ag     2.785892    15B2u    3.850528    15B3u    3.850528  
      15B1u    3.895941    16B2u    5.314640    16B3u    5.314640  
      16B1u    5.343438     6Au     5.343438    17B3u    5.361199  
      17B2u    5.361199    17B1u    5.367213    21Ag     5.645686  
      22Ag     5.882777     9B1g    5.882777     9B2g    5.912571  
       9B3g    5.912571    23Ag     5.925579    24Ag     6.091269  
      10B1g    6.091269    10B2g    6.117306    10B3g    6.117306  
      25Ag     6.136915    11B1g    6.136915    11B2g    6.149232  
      11B3g    6.149232    26Ag     6.153467    18B2u    6.201094  
      18B3u    6.201094     7Au     6.223082    18B1u    6.223082  
      19B3u    6.240505    19B2u    6.240505    19B1u    6.253130  
       8Au     6.253130    20B3u    6.260778    20B2u    6.260778  
      20B1u    6.263341    27Ag    16.219301    12B1g   16.219301  
      12B2g   16.239028    12B3g   16.239028    28Ag    16.245765  
      21B2u   24.304136    21B3u   24.304136    21B1u   24.326705  
      29Ag    56.296500  

    Beta Occupied:                                                        

       1Ag   -91.994035     2Ag    -8.994205     1B1u   -6.675387  
       1B3u   -6.659021     1B2u   -6.659021     3Ag    -0.773927  
       2B1u   -0.379563  

    Beta Virtual:                                                         

       2B3u    0.001037     2B2u    0.001037     3B1u    0.077217  
       4Ag     0.081223     3B3u    0.090008     3B2u    0.090008  
       1B1g    0.195384     5Ag     0.195384     1B3g    0.195868  
       1B2g    0.195868     6Ag     0.196340     4B1u    0.358000  
       4B3u    0.381337     4B2u    0.381337     7Ag     0.453975  
       5B2u    0.454319     5B3u    0.454319     1Au     0.459312  
       5B1u    0.459312     6B2u    0.462565     6B3u    0.462565  
       6B1u    0.463562     8Ag     0.523074     2B2g    0.527625  
       2B3g    0.527625     2B1g    0.545862     9Ag     0.545862  
      10Ag     1.065813     3B1g    1.065813     3B2g    1.073201  
       3B3g    1.073201     4B1g    1.078372    11Ag     1.078372  
       4B3g    1.081382     4B2g    1.081382    12Ag     1.082367  
       7B2u    1.194381     7B3u    1.194381    13Ag     1.196184  
       5B2g    1.197270     5B3g    1.197270     2Au     1.200385  
       7B1u    1.200385     5B1g    1.201667    14Ag     1.201667  
       8B3u    1.202761     8B2u    1.202761     8B1u    1.202864  
       9B1u    1.240208     9B3u    1.253378     9B2u    1.253378  
      15Ag     1.653666    10B2u    2.598107    10B3u    2.598107  
      10B1u    2.607013     3Au     2.607013    11B3u    2.612181  
      11B2u    2.612181    11B1u    2.613874    12B3u    2.686165  
      12B2u    2.686165    16Ag     2.690469     6B1g    2.690469  
      12B1u    2.696886     4Au     2.696886     6B3g    2.701889  
       6B2g    2.701889    13B3u    2.705304    13B2u    2.705304  
      17Ag     2.709376     7B1g    2.709376     5Au     2.711358  
      13B1u    2.711358     7B2g    2.713778     7B3g    2.713778  
      14B2u    2.715007    14B3u    2.715007    18Ag     2.715236  
      14B1u    2.716226     8B1g    2.777346    19Ag     2.777346  
       8B2g    2.793077     8B3g    2.793077    20Ag     2.798332  
      15B3u    3.905798    15B2u    3.905798    15B1u    3.907888  
      16B2u    5.356775    16B3u    5.356775     6Au     5.372048  
      16B1u    5.372048    17B3u    5.381320    17B2u    5.381320  
      17B1u    5.384426    21Ag     5.676648     9B1g    5.910237  
      22Ag     5.910237     9B2g    5.928820     9B3g    5.928820  
      23Ag     5.936142    24Ag     6.137114    10B1g    6.137114  
      10B2g    6.151735    10B3g    6.151735    25Ag     6.162465  
      11B1g    6.162465    11B2g    6.169038    11B3g    6.169038  
      26Ag     6.171256    18B2u    6.238593    18B3u    6.238593  
       7Au     6.252918    18B1u    6.252918    19B3u    6.264191  
      19B2u    6.264191    19B1u    6.272313     8Au     6.272313  
      20B3u    6.277215    20B2u    6.277215    20B1u    6.278853  
      27Ag    16.244375    12B1g   16.244375    12B2g   16.253610  
      12B3g   16.253610    28Ag    16.256767    21B1u   24.334601  
      21B3u   24.339599    21B2u   24.339599    29Ag    56.310368  

    Final Occupation by Irrep:
             Ag   B1g   B2g   B3g    Au   B1u   B2u   B3u 
    DOCC [     3,    0,    0,    0,    0,    2,    1,    1 ]
    SOCC [     0,    0,    0,    0,    0,    0,    1,    1 ]

  Energy converged.

  @UHF Final Energy:  -397.51321749091028

   => Energetics <=

    Nuclear Repulsion Energy =              0.0000000000000000
    One-Electron Energy =                -549.3887207766958909
    Two-Electron Energy =                 151.8755032857856122
    PCM Polarization Energy =               0.0000000000000000
    Total Energy =                       -397.5132174909102787

    Alert: EFP and PCM quantities not currently incorporated into SCF psivars.
  UHF NO Occupations:
  HONO-2 :    3 Ag 1.9941699
  HONO-1 :    2B2u 1.0000000
  HONO-0 :    2B3u 1.0000000
  LUNO+0 :    4 Ag 0.0058301
  LUNO+1 :    3B1u 0.0009631
  LUNO+2 :    3B2u 0.0000047
  LUNO+3 :    3B3u 0.0000047



Properties will be evaluated at   0.000000,   0.000000,   0.000000 Bohr

Properties computed using the SCF density matrix

  Nuclear Dipole Moment: (a.u.)
     X:     0.0000      Y:     0.0000      Z:     0.0000

  Electronic Dipole Moment: (a.u.)
     X:     0.0000      Y:     0.0000      Z:     0.0000

  Dipole Moment: (a.u.)
     X:     0.0000      Y:     0.0000      Z:     0.0000     Total:     0.0000

  Dipole Moment: (Debye)
     X:     0.0000      Y:     0.0000      Z:     0.0000     Total:     0.0000


*** tstop() called on cqc05 at Fri Aug 21 06:47:28 2020
Module time:
	user time   =       8.58 seconds =       0.14 minutes
	system time =       0.24 seconds =       0.00 minutes
	total time  =          8 seconds =       0.13 minutes
Total time:
	user time   =       8.58 seconds =       0.14 minutes
	system time =       0.24 seconds =       0.00 minutes
	total time  =          8 seconds =       0.13 minutes

*** tstart() called on cqc05
*** at Fri Aug 21 06:47:28 2020


	Wfn Parameters:
	--------------------
	Wavefunction         = CCSD
	Number of irreps     = 8
	Number of MOs        = 136
	Number of active MOs = 131
	AO-Basis             = NONE
	Semicanonical        = false
	Reference            = UHF
	Print Level          = 1

	IRREP	# MOs	# FZDC	# DOCC	# SOCC	# VIRT	# FZVR
	-----	-----	------	------	------	------	------
	 Ag	   29	    2	    1	    0	    26	    0
	 B1g	   12	    0	    0	    0	    12	    0
	 B2g	   12	    0	    0	    0	    12	    0
	 B3g	   12	    0	    0	    0	    12	    0
	 Au	   8	    0	    0	    0	    8	    0
	 B1u	   21	    1	    1	    0	    19	    0
	 B2u	   21	    1	    0	    1	    19	    0
	 B3u	   21	    1	    0	    1	    19	    0
	Transforming integrals...
	IWL integrals will be deleted.
	(OO|OO)...
	Presorting SO-basis two-electron integrals.
	Sorting File: SO Ints (nn|nn) nbuckets = 1
	Transforming the one-electron integrals and constructing Fock matrices
	Starting AA/AB first half-transformation.
	Sorting AA/AB half-transformed integrals.
	Starting BB first half-transformation.
	Sorting BB half-transformed integrals.
	First half integral transformation complete.
	Starting AA second half-transformation.
	Starting AB second half-transformation.
	Starting BB second half-transformation.
	Two-electron integral transformation complete.
	(OO|OV)...
	Starting AA second half-transformation.
	Starting AB second half-transformation.
	Starting BB second half-transformation.
	Two-electron integral transformation complete.
	(OO|VV)...
	Starting AA second half-transformation.
	Starting AB second half-transformation.
	Starting BB second half-transformation.
	Two-electron integral transformation complete.
	(OV|OO)...
	Starting AA/AB first half-transformation.
	Sorting AA/AB half-transformed integrals.
	Starting BB first half-transformation.
	Sorting BB half-transformed integrals.
	First half integral transformation complete.
	Starting AA second half-transformation.
	Starting AB second half-transformation.
	Starting BB second half-transformation.
	Two-electron integral transformation complete.
	(OV|OV)...
	Starting AA second half-transformation.
	Starting AB second half-transformation.
	Starting BB second half-transformation.
	Two-electron integral transformation complete.
	(OV|VV)...
	Starting AA second half-transformation.
	Starting AB second half-transformation.
	Starting BB second half-transformation.
	Two-electron integral transformation complete.
	(VV|OO)...
	Starting AA/AB first half-transformation.
	Sorting AA/AB half-transformed integrals.
	Starting BB first half-transformation.
	Sorting BB half-transformed integrals.
	First half integral transformation complete.
	Starting AA second half-transformation.
	Starting AB second half-transformation.
	Starting BB second half-transformation.
	Two-electron integral transformation complete.
	(VV|OV)...
	Starting AA second half-transformation.
	Starting AB second half-transformation.
	Starting BB second half-transformation.
	Two-electron integral transformation complete.
	(VV|VV)...
	Starting AA second half-transformation.
	Starting AB second half-transformation.
	Starting BB second half-transformation.
	Two-electron integral transformation complete.
	Frozen core energy     =   -387.55313465545481

	Size of irrep 0 of <AB|CD> integrals:      1.132 (MW) /      9.057 (MB)
	Size of irrep 1 of <AB|CD> integrals:      0.939 (MW) /      7.512 (MB)
	Size of irrep 2 of <AB|CD> integrals:      0.939 (MW) /      7.512 (MB)
	Size of irrep 3 of <AB|CD> integrals:      0.939 (MW) /      7.512 (MB)
	Size of irrep 4 of <AB|CD> integrals:      0.796 (MW) /      6.365 (MB)
	Size of irrep 5 of <AB|CD> integrals:      1.094 (MW) /      8.753 (MB)
	Size of irrep 6 of <AB|CD> integrals:      1.094 (MW) /      8.753 (MB)
	Size of irrep 7 of <AB|CD> integrals:      1.094 (MW) /      8.753 (MB)
	Total:                                     8.027 (MW) /     64.216 (MB)

	Size of irrep 0 of <ab|cd> integrals:      1.214 (MW) /      9.715 (MB)
	Size of irrep 1 of <ab|cd> integrals:      1.016 (MW) /      8.129 (MB)
	Size of irrep 2 of <ab|cd> integrals:      0.992 (MW) /      7.936 (MB)
	Size of irrep 3 of <ab|cd> integrals:      0.992 (MW) /      7.936 (MB)
	Size of irrep 4 of <ab|cd> integrals:      0.839 (MW) /      6.712 (MB)
	Size of irrep 5 of <ab|cd> integrals:      1.145 (MW) /      9.159 (MB)
	Size of irrep 6 of <ab|cd> integrals:      1.175 (MW) /      9.400 (MB)
	Size of irrep 7 of <ab|cd> integrals:      1.175 (MW) /      9.400 (MB)
	Total:                                     8.549 (MW) /     68.389 (MB)

	Size of irrep 0 of <Ab|Cd> integrals:      5.258 (MW) /     42.063 (MB)
	Size of irrep 1 of <Ab|Cd> integrals:      3.905 (MW) /     31.237 (MB)
	Size of irrep 2 of <Ab|Cd> integrals:      3.861 (MW) /     30.890 (MB)
	Size of irrep 3 of <Ab|Cd> integrals:      3.861 (MW) /     30.890 (MB)
	Size of irrep 4 of <Ab|Cd> integrals:      3.269 (MW) /     26.151 (MB)
	Size of irrep 5 of <Ab|Cd> integrals:      4.477 (MW) /     35.820 (MB)
	Size of irrep 6 of <Ab|Cd> integrals:      4.537 (MW) /     36.295 (MB)
	Size of irrep 7 of <Ab|Cd> integrals:      4.537 (MW) /     36.295 (MB)
	Total:                                    33.705 (MW) /    269.640 (MB)

	Size of irrep 0 of <IA|BC> integrals:      0.187 (MW) /      1.497 (MB)
	Size of irrep 1 of <IA|BC> integrals:      0.112 (MW) /      0.899 (MB)
	Size of irrep 2 of <IA|BC> integrals:      0.112 (MW) /      0.899 (MB)
	Size of irrep 3 of <IA|BC> integrals:      0.112 (MW) /      0.899 (MB)
	Size of irrep 4 of <IA|BC> integrals:      0.078 (MW) /      0.628 (MB)
	Size of irrep 5 of <IA|BC> integrals:      0.144 (MW) /      1.155 (MB)
	Size of irrep 6 of <IA|BC> integrals:      0.144 (MW) /      1.155 (MB)
	Size of irrep 7 of <IA|BC> integrals:      0.144 (MW) /      1.155 (MB)
	Total:                                     1.036 (MW) /      8.287 (MB)

	Size of irrep 0 of <ia|bc> integrals:      0.105 (MW) /      0.840 (MB)
	Size of irrep 1 of <ia|bc> integrals:      0.040 (MW) /      0.323 (MB)
	Size of irrep 2 of <ia|bc> integrals:      0.064 (MW) /      0.510 (MB)
	Size of irrep 3 of <ia|bc> integrals:      0.064 (MW) /      0.510 (MB)
	Size of irrep 4 of <ia|bc> integrals:      0.037 (MW) /      0.293 (MB)
	Size of irrep 5 of <ia|bc> integrals:      0.096 (MW) /      0.770 (MB)
	Size of irrep 6 of <ia|bc> integrals:      0.069 (MW) /      0.555 (MB)
	Size of irrep 7 of <ia|bc> integrals:      0.069 (MW) /      0.555 (MB)
	Total:                                     0.544 (MW) /      4.356 (MB)

	Size of irrep 0 of <Ia|Bc> integrals:      0.195 (MW) /      1.559 (MB)
	Size of irrep 1 of <Ia|Bc> integrals:      0.119 (MW) /      0.948 (MB)
	Size of irrep 2 of <Ia|Bc> integrals:      0.116 (MW) /      0.927 (MB)
	Size of irrep 3 of <Ia|Bc> integrals:      0.116 (MW) /      0.927 (MB)
	Size of irrep 4 of <Ia|Bc> integrals:      0.080 (MW) /      0.636 (MB)
	Size of irrep 5 of <Ia|Bc> integrals:      0.146 (MW) /      1.168 (MB)
	Size of irrep 6 of <Ia|Bc> integrals:      0.149 (MW) /      1.193 (MB)
	Size of irrep 7 of <Ia|Bc> integrals:      0.149 (MW) /      1.193 (MB)
	Total:                                     1.069 (MW) /      8.553 (MB)

	Size of irrep 0 of <iA|bC> integrals:      0.103 (MW) /      0.825 (MB)
	Size of irrep 1 of <iA|bC> integrals:      0.040 (MW) /      0.316 (MB)
	Size of irrep 2 of <iA|bC> integrals:      0.061 (MW) /      0.487 (MB)
	Size of irrep 3 of <iA|bC> integrals:      0.061 (MW) /      0.487 (MB)
	Size of irrep 4 of <iA|bC> integrals:      0.036 (MW) /      0.289 (MB)
	Size of irrep 5 of <iA|bC> integrals:      0.095 (MW) /      0.762 (MB)
	Size of irrep 6 of <iA|bC> integrals:      0.066 (MW) /      0.528 (MB)
	Size of irrep 7 of <iA|bC> integrals:      0.066 (MW) /      0.528 (MB)
	Total:                                     0.528 (MW) /      4.224 (MB)

	Size of irrep 0 of tIjAb amplitudes:       0.005 (MW) /      0.037 (MB)
	Size of irrep 1 of tIjAb amplitudes:       0.000 (MW) /      0.000 (MB)
	Size of irrep 2 of tIjAb amplitudes:       0.002 (MW) /      0.016 (MB)
	Size of irrep 3 of tIjAb amplitudes:       0.002 (MW) /      0.016 (MB)
	Size of irrep 4 of tIjAb amplitudes:       0.000 (MW) /      0.000 (MB)
	Size of irrep 5 of tIjAb amplitudes:       0.004 (MW) /      0.034 (MB)
	Size of irrep 6 of tIjAb amplitudes:       0.002 (MW) /      0.017 (MB)
	Size of irrep 7 of tIjAb amplitudes:       0.002 (MW) /      0.017 (MB)
	Total:                                     0.017 (MW) /      0.136 (MB)

	Nuclear Rep. energy          =      0.00000000000000
	SCF energy                   =   -397.51321749091028
	One-electron energy          =    -16.38730930503926
	Two-electron (AA) energy     =      2.33122126451806
	Two-electron (BB) energy     =      0.36164212934009
	Two-electron (AB) energy     =      3.73436307572609
	Two-electron energy          =      6.42722646958424
	Reference energy             =   -397.51321749090982

*** tstop() called on cqc05 at Fri Aug 21 06:47:33 2020
Module time:
	user time   =       2.97 seconds =       0.05 minutes
	system time =       1.53 seconds =       0.03 minutes
	total time  =          5 seconds =       0.08 minutes
Total time:
	user time   =      11.55 seconds =       0.19 minutes
	system time =       1.77 seconds =       0.03 minutes
	total time  =         13 seconds =       0.22 minutes

*** tstart() called on cqc05
*** at Fri Aug 21 06:47:33 2020

            **************************
            *                        *
            *        CCENERGY        *
            *                        *
            **************************

    Nuclear Rep. energy (wfn)     =    0.000000000000000
    SCF energy          (wfn)     = -397.513217490910279
    Reference energy    (file100) = -397.513217490909824

    Input parameters:
    -----------------
    Wave function   =     CCSD
    Reference wfn   =     UHF
    Brueckner       =     No
    Memory (Mbytes) =     250000.0
    Maxiter         =     50
    R_Convergence   =     1.0e-07
    E_Convergence   =     1.0e-06
    Restart         =     Yes
    DIIS            =     Yes
    AO Basis        =     NONE
    ABCD            =     NEW
    Cache Level     =     2
    Cache Type      =     LRU
    Print Level     =     1
    Num. of threads =     4
    # Amps to Print =     10
    Print MP2 Amps? =     No
    Analyze T2 Amps =     No
    Print Pair Ener =     No
    Local CC        =     No
    SCS-MP2         =     False
    SCSN-MP2        =     False
    SCS-CCSD        =     False

MP2 correlation energy -0.1330856530424959
                Solving CC Amplitude Equations
                ------------------------------
  Iter             Energy              RMS        T1Diag      D1Diag    New D1Diag    D2Diag
  ----     ---------------------    ---------   ----------  ----------  ----------   --------
     0        -0.133085653042497    0.000e+00    0.000000    0.000000    0.000000    0.000000
     1        -0.147163043603029    4.460e-02    0.009254    0.000000    0.000000    0.000000
     2        -0.152508852331136    1.568e-02    0.013809    0.000000    0.000000    0.000000
     3        -0.152779544179472    3.640e-03    0.015104    0.000000    0.000000    0.000000
     4        -0.152788370518331    8.538e-04    0.015269    0.000000    0.000000    0.000000
     5        -0.152781582555195    2.585e-04    0.015275    0.000000    0.000000    0.000000
     6        -0.152781940264954    9.457e-05    0.015271    0.000000    0.000000    0.000000
     7        -0.152782959380396    3.586e-05    0.015266    0.000000    0.000000    0.000000
     8        -0.152782914922207    1.108e-05    0.015266    0.000000    0.000000    0.000000
     9        -0.152782826889590    3.032e-06    0.015266    0.000000    0.000000    0.000000
    10        -0.152782830855064    7.870e-07    0.015266    0.000000    0.000000    0.000000
    11        -0.152782833493165    2.274e-07    0.015266    0.000000    0.000000    0.000000
    12        -0.152782837357786    6.200e-08    0.015266    0.000000    0.000000    0.000000
    12        -0.152782837357786    6.200e-08    0.015266    0.000000    0.000000    0.000000

    Iterations converged.


    CCSD corr. energy   =   -0.152782837357786
    PPL corr. energy    =    0.046112044326383
    OS PPL corr. energy =    0.039150725614872
    SS PPL corr. energy =    0.006961318711511
    Largest TIA Amplitudes:
              0   5         0.0077026138
              1  71         0.0074364568
              0   2        -0.0043027598
              1  70        -0.0042377137
              0   3        -0.0041626689
              0  10        -0.0037492636
              1  76        -0.0034873876
              1  75        -0.0033219847
              0  11         0.0026835580
              2  94        -0.0021794581

    Largest Tia Amplitudes:
              0   4         0.0256671258
              0   2        -0.0146405012
              0   9         0.0112090638
              1  71         0.0058712743
              0   0        -0.0049595962
              0   3         0.0049514555
              1  76        -0.0048397649
              1  73         0.0038949306
              1  75         0.0036747556
              1  70        -0.0034866678

    Largest TIJAB Amplitudes:
      3   2  27   4         0.0363896694
      3   1  39   5         0.0343900875
      2   1  51   5         0.0343900873
      3   2  27   1         0.0210396392
      3   2  26   4         0.0210396392
      3   2  51  39         0.0208343499
      3   1  38   5         0.0187399433
      2   1  50   5         0.0187399424
      3   1  39   2        -0.0184483897
      2   1  51   2        -0.0184483895

    Largest Tijab Amplitudes:
      1   0 109  39         0.0188642672
      1   0  89  51         0.0188642663
      1   0 110  39        -0.0104125760
      1   0  90  51        -0.0104125759
      1   0 109  38         0.0103090116
      1   0  89  50         0.0103090112
      1   0 111  39         0.0094700649
      1   0  91  51         0.0094700646
      1   0 109  42         0.0087482572
      1   0  89  54         0.0087482568

    Largest TIjAb Amplitudes:
      1   1   5   4        -0.0549542233
      3   0   4 109        -0.0485408121
      2   0  27 109        -0.0485408102
      3   0  27  89        -0.0485408094
      2   0   4  89         0.0485408076
      1   0  39 109        -0.0470603196
      1   0  51  89        -0.0470603181
      1   1  39  39        -0.0440535796
      1   1  51  51        -0.0440535795
      1   1  71  71        -0.0294046678

    SCF energy       (wfn)                    = -397.513217490910279
    Reference energy (file100)                = -397.513217490909824

    Opposite-spin MP2 correlation energy      =   -0.104165914230624
    Same-spin MP2 correlation energy          =   -0.028919738811846
    MP2 correlation energy                    =   -0.133085653042496
      * MP2 total energy                      = -397.646303143952309

    Opposite-spin CCSD correlation energy     =   -0.122883923576685
    Same-spin CCSD correlation energy         =   -0.029898917294517
    CCSD correlation energy                   =   -0.152782837357786
      * CCSD total energy                     = -397.666000328267614


*** tstop() called on cqc05 at Fri Aug 21 06:47:37 2020
Module time:
	user time   =       1.84 seconds =       0.03 minutes
	system time =       1.16 seconds =       0.02 minutes
	total time  =          4 seconds =       0.07 minutes
Total time:
	user time   =      13.39 seconds =       0.22 minutes
	system time =       2.93 seconds =       0.05 minutes
	total time  =         17 seconds =       0.28 minutes

*** Psi4 exiting successfully. Buy a developer a beer!
