
    -----------------------------------------------------------------------
          Psi4: An Open-Source Ab Initio Electronic Structure Package
                               Psi4 1.4a3.dev88 

                         Git: Rev {master} 262e345 


    D. G. A. Smith, L. A. Burns, A. C. Simmonett, R. M. Parrish,
    M. C. Schieber, R. Galvelis, P. Kraus, H. Kruse, R. Di Remigio,
    A. Alenaizan, A. M. James, S. Lehtola, J. P. Misiewicz, M. Scheurer,
    R. A. Shaw, J. B. Schriber, Y. Xie, Z. L. Glick, D. A. Sirianni,
    J. S. O'Brien, J. M. Waldrop, A. Kumar, E. G. Hohenstein,
    B. P. Pritchard, B. R. Brooks, H. F. Schaefer III, A. Yu. Sokolov,
    K. Patkowski, A. E. DePrince III, U. Bozkaya, R. A. King,
    F. A. Evangelista, J. M. Turney, T. D. Crawford, C. D. Sherrill,
    J. Chem. Phys. 152(18) 184108 (2020). https://doi.org/10.1063/5.0006002

                            Additional Code Authors
    E. T. Seidl, C. L. Janssen, E. F. Valeev, M. L. Leininger,
    J. F. Gonthier, R. M. Richard, H. R. McAlexander, M. Saitow, X. Wang,
    P. Verma, and M. H. Lechner

             Previous Authors, Complete List of Code Contributors,
                       and Citations for Specific Modules
    https://github.com/psi4/psi4/blob/master/codemeta.json
    https://github.com/psi4/psi4/graphs/contributors
    http://psicode.org/psi4manual/master/introduction.html#citing-psifour

    -----------------------------------------------------------------------


    Psi4 started on: Wednesday, 20 January 2021 09:11PM

    Process ID: 455855
    Host:       l43
    PSIDATADIR: /home/fs71337/gallo4/psi4/psi4/build/stage/share/psi4
    Memory:     500.0 MiB
    Threads:    48
    
  ==> Input File <==

--------------------------------------------------------------------------
# Any line starting with the # character is a comment line
memory 250000 mb
molecule molecule{
0 2
O          0.0000000000        0.0000000000       -0.5412437487
N          0.0000000000        0.0000000000        0.6182452136
}

set {
  reference uhf
  basis aug-cc-pV(Q+d)Z
  scf_type OUT_OF_CORE
  freeze_core true
}

energy('ccsd(t)')
--------------------------------------------------------------------------

  Memory set to 232.831 GiB by Python driver.

Scratch directory: /tmp/

*** tstart() called on l43
*** at Wed Jan 20 21:11:34 2021

   => Loading Basis Set <=

    Name: AUG-CC-PV(Q+D)Z
    Role: ORBITAL
    Keyword: BASIS
    atoms 1 entry O          line   451 file /home/fs71337/gallo4/psi4/psi4/build/stage/share/psi4/basis/aug-cc-pv_qpd_z.gbs 
    atoms 2 entry N          line   391 file /home/fs71337/gallo4/psi4/psi4/build/stage/share/psi4/basis/aug-cc-pv_qpd_z.gbs 


         ---------------------------------------------------------
                                   SCF
               by Justin Turney, Rob Parrish, Andy Simmonett
                          and Daniel G. A. Smith
                              UHF Reference
                       48 Threads, 238418 MiB Core
         ---------------------------------------------------------

  ==> Geometry <==

    Molecular point group: c2v
    Full point group: C_inf_v

    Geometry (in Angstrom), charge = 0, multiplicity = 2:

       Center              X                  Y                   Z               Mass       
    ------------   -----------------  -----------------  -----------------  -----------------
         O            0.000000000000     0.000000000000    -0.541249946785    15.994914619570
         N            0.000000000000     0.000000000000     0.618239015515    14.003074004430

  Running in c2v symmetry.

  Rotational constants: A = ************  B =      1.67938  C =      1.67938 [cm^-1]
  Rotational constants: A = ************  B =  50346.67426  C =  50346.67426 [MHz]
  Nuclear repulsion =   25.557745490510911

  Charge       = 0
  Multiplicity = 2
  Electrons    = 15
  Nalpha       = 8
  Nbeta        = 7

  ==> Algorithm <==

  SCF Algorithm Type is OUT_OF_CORE.
  DIIS enabled.
  MOM disabled.
  Fractional occupation disabled.
  Guess Type is SAD.
  Energy threshold   = 1.00e-08
  Density threshold  = 1.00e-08
  Integral threshold = 1.00e-12

  ==> Primary Basis <==

  Basis Set: AUG-CC-PV(Q+D)Z
    Blend: AUG-CC-PV(Q+D)Z
    Number of shells: 40
    Number of basis function: 160
    Number of Cartesian functions: 210
    Spherical Harmonics?: true
    Max angular momentum: 4

  ==> Integral Setup <==

  ==> DiskJK: Disk-Based J/K Matrices <==

    J tasked:                  Yes
    K tasked:                  Yes
    wK tasked:                  No
    Memory [MiB]:           178813
    Schwarz Cutoff:          1E-12

  Minimum eigenvalue in the overlap matrix is 9.0575336336E-05.
  Reciprocal condition number of the overlap matrix is 1.6045385044E-05.
    Using symmetric orthogonalization.

  ==> Pre-Iterations <==

  SCF Guess: Superposition of Atomic Densities via on-the-fly atomic UHF (no occupation information).


 WARNING: Atomic UHF is not converging! Try casting from a smaller basis or call Rob at CCMST.

 WARNING: Atomic UHF is not converging! Try casting from a smaller basis or call Rob at CCMST.
   -------------------------
    Irrep   Nso     Nmo    
   -------------------------
     A1        62      62 
     A2        22      22 
     B1        38      38 
     B2        38      38 
   -------------------------
    Total     160     160
   -------------------------

  ==> Iterations <==

                        Total Energy        Delta E     RMS |[F,P]|

   @UHF iter SAD:   -73.75086363995915   -7.37509e+01   0.00000e+00 
   @UHF iter   1:  -122.34670189991613   -4.85958e+01   6.39352e-02 DIIS
   @UHF iter   2:  -118.52933872628532    3.81736e+00   3.88468e-02 DIIS
   @UHF iter   3:  -126.34333981628357   -7.81400e+00   3.31656e-02 DIIS
   @UHF iter   4:  -128.79197923805665   -2.44864e+00   1.32768e-02 DIIS
   @UHF iter   5:  -129.25072144968965   -4.58742e-01   3.97969e-03 DIIS
   @UHF iter   6:  -129.30350053149863   -5.27791e-02   4.80471e-04 DIIS
   @UHF iter   7:  -129.30466034757870   -1.15982e-03   2.65509e-04 DIIS
   @UHF iter   8:  -129.30505652283574   -3.96175e-04   1.28739e-04 DIIS
   @UHF iter   9:  -129.30518372314941   -1.27200e-04   3.63042e-05 DIIS
   @UHF iter  10:  -129.30521021706650   -2.64939e-05   3.09205e-05 DIIS
   @UHF iter  11:  -129.30524808315360   -3.78661e-05   2.83698e-05 DIIS
   @UHF iter  12:  -129.30530008117145   -5.19980e-05   2.64536e-05 DIIS
   @UHF iter  13:  -129.30536680802066   -6.67268e-05   2.37321e-05 DIIS
   @UHF iter  14:  -129.30550084696816   -1.34039e-04   1.86121e-05 DIIS
   @UHF iter  15:  -129.30557027026757   -6.94233e-05   9.13535e-06 DIIS
   @UHF iter  16:  -129.30558325006507   -1.29798e-05   1.86606e-06 DIIS
   @UHF iter  17:  -129.30558344539662   -1.95332e-07   1.42374e-06 DIIS
   @UHF iter  18:  -129.30558340534293    4.00537e-08   1.45568e-06 DIIS
   @UHF iter  19:  -129.30558347956423   -7.42213e-08   3.30856e-07 DIIS
   @UHF iter  20:  -129.30558348459115   -5.02692e-09   3.98647e-08 DIIS
   @UHF iter  21:  -129.30558348464939   -5.82361e-11   8.49244e-09 DIIS
  Energy and wave function converged.


  ==> Post-Iterations <==

   @Spin Contamination Metric:   7.602591184E-02
   @S^2 Expected:                7.500000000E-01
   @S^2 Observed:                8.260259118E-01
   @S   Expected:                5.000000000E-01
   @S   Observed:                5.000000000E-01

    Orbital Energies [Eh]
    ---------------------

    Alpha Occupied:                                                       

       1A1   -20.698449     2A1   -15.736687     3A1    -1.604232  
       4A1    -0.972584     1B1    -0.786501     5A1    -0.698354  
       1B2    -0.639336     2B1    -0.431797  

    Alpha Virtual:                                                        

       2B2     0.069669     6A1     0.073774     7A1     0.101864  
       3B1     0.107633     3B2     0.113063     8A1     0.156647  
       4B1     0.159799     4B2     0.170329     9A1     0.271335  
       1A2     0.328717    10A1     0.328829    11A1     0.386324  
       5B1     0.406864     5B2     0.413483    12A1     0.511013  
       6B1     0.516956     6B2     0.523851    13A1     0.544831  
       2A2     0.547339    14A1     0.549884     7B1     0.607109  
       7B2     0.626063    15A1     0.715721    16A1     0.851333  
       8B1     0.919971    17A1     0.922356     8B2     0.939016  
       9B1     0.989463     9B2     0.989481     3A2     1.059900  
      18A1     1.060376    10B1     1.115721    10B2     1.116422  
      19A1     1.133759     4A2     1.134811    20A1     1.151539  
      21A1     1.406126    11B1     1.410558    11B2     1.416278  
      12B1     1.449457    12B2     1.449484     5A2     1.529043  
      22A1     1.529178    23A1     1.639555    13B1     1.711202  
      13B2     1.716468    24A1     1.815982    14B1     1.867858  
      14B2     1.890094     6A2     1.911293    25A1     1.911725  
      26A1     2.018395    15B1     2.427734    15B2     2.442471  
      27A1     2.784738     7A2     2.784738    28A1     2.834437  
      29A1     2.944882    16B1     2.991178    16B2     2.991182  
      17B1     3.042274    17B2     3.043139     8A2     3.058552  
      30A1     3.059485    18B1     3.089809    18B2     3.089831  
      31A1     3.133269     9A2     3.133378    19B1     3.188071  
      19B2     3.197988    32A1     3.259099    33A1     3.299447  
      20B2     3.416783    20B1     3.418386    10A2     3.615534  
      34A1     3.615597    11A2     3.725692    35A1     3.725692  
      21B2     3.957659    21B1     3.960941    22B1     4.062978  
      22B2     4.062981    36A1     4.086198    37A1     4.170973  
      12A2     4.189404    38A1     4.190230    23B2     4.261300  
      23B1     4.266147    24B2     4.364231    24B1     4.364241  
      39A1     4.438083    13A2     4.525579    40A1     4.525930  
      41A1     5.195083    25B2     5.400876    25B1     5.403562  
      14A2     5.540288    42A1     5.540358    43A1     5.828126  
      26B2     6.056999    26B1     6.060022    44A1     6.554220  
      45A1     8.144781    15A2     8.144781    27B2     8.200693  
      27B1     8.200707    28B2     8.375380    28B1     8.387075  
      46A1     8.429125    16A2     8.429664    29B2     8.597292  
      29B1     8.604916    47A1     8.692492    30B2     9.061210  
      30B1     9.061211    48A1     9.075230    17A2     9.206680  
      49A1     9.207499    31B2     9.510015    31B1     9.521073  
      18A2     9.711239    50A1     9.711282    51A1     9.849787  
      19A2    10.580422    52A1    10.580422    32B2    10.624639  
      32B1    10.626657    33B1    10.832372    33B2    10.832372  
      53A1    10.886519    34B2    11.293815    34B1    11.297667  
      54A1    11.325752    20A2    11.325915    55A1    11.630730  
      35B2    11.762158    35B1    11.775593    36B2    11.830059  
      36B1    11.830059    56A1    12.270608    21A2    12.270907  
      57A1    12.430046    37B2    12.783879    37B1    12.794855  
      22A2    12.804424    58A1    12.804457    59A1    14.173792  
      38B2    14.456311    38B1    14.466091    60A1    15.769874  
      61A1    32.532238    62A1    43.233833  

    Beta Occupied:                                                        

       1A1   -20.693928     2A1   -15.700275     3A1    -1.573415  
       4A1    -0.888511     1B2    -0.666695     5A1    -0.651135  
       1B1    -0.613971  

    Beta Virtual:                                                         

       6A1     0.074033     2B2     0.078310     2B1     0.094327  
       7A1     0.104624     3B2     0.133652     3B1     0.147112  
       8A1     0.157714     4B2     0.170734     4B1     0.191418  
       9A1     0.272400     1A2     0.332870    10A1     0.332897  
      11A1     0.388469     5B2     0.410503     5B1     0.417394  
      12A1     0.517359     6B2     0.532205     6B1     0.543240  
      13A1     0.546807     2A2     0.546821    14A1     0.559520  
       7B2     0.641805     7B1     0.658969    15A1     0.732250  
      16A1     0.866082     8B2     0.925407    17A1     0.934685  
       8B1     0.941899     9B2     0.994545     9B1     0.994555  
       3A2     1.098061    18A1     1.098101    10B2     1.118393  
      10B1     1.131009    19A1     1.135875     4A2     1.136719  
      20A1     1.157457    21A1     1.408428    11B2     1.416534  
      11B1     1.434620    12B2     1.449475    12B1     1.449586  
       5A2     1.532263    22A1     1.532516    23A1     1.643753  
      13B2     1.719014    13B1     1.734809    24A1     1.822629  
      14B2     1.905401     6A2     1.917964    25A1     1.918149  
      14B1     1.931369    26A1     2.022067    15B2     2.446462  
      15B1     2.477666    27A1     2.795186     7A2     2.795186  
      28A1     2.863331    29A1     2.962323    16B2     3.000248  
      16B1     3.000270    17B2     3.046527    17B1     3.073267  
      30A1     3.100242     8A2     3.100417    18B2     3.118954  
      18B1     3.119326    31A1     3.167629     9A2     3.167640  
      19B2     3.196481    19B1     3.227912    32A1     3.272771  
      33A1     3.308858    20B2     3.423868    20B1     3.450380  
      10A2     3.636695    34A1     3.637334    11A2     3.725944  
      35A1     3.725944    21B2     3.954947    21B1     3.981472  
      22B2     4.065916    22B1     4.066112    36A1     4.089437  
      37A1     4.185393    12A2     4.195630    38A1     4.197311  
      23B2     4.257662    23B1     4.279611    24B2     4.367193  
      24B1     4.367235    39A1     4.440031    13A2     4.531037  
      40A1     4.532046    41A1     5.200711    25B2     5.397100  
      25B1     5.426615    14A2     5.552035    42A1     5.552504  
      43A1     5.844329    26B2     6.059890    26B1     6.093458  
      44A1     6.566320    45A1     8.177688    15A2     8.177689  
      27B2     8.223452    27B1     8.223513    28B2     8.392921  
      28B1     8.426381    46A1     8.446535    16A2     8.447702  
      29B2     8.617956    29B1     8.659023    47A1     8.706141  
      48A1     9.096930    30B2     9.115110    30B1     9.115155  
      17A2     9.242783    49A1     9.246670    31B2     9.519733  
      31B1     9.548962    50A1     9.768953    18A2     9.768983  
      51A1     9.858210    52A1    10.582481    19A2    10.582481  
      32B2    10.624677    32B1    10.664659    33B2    10.834239  
      33B1    10.834255    53A1    10.899317    34B2    11.289479  
      34B1    11.330373    54A1    11.330686    20A2    11.331207  
      55A1    11.635265    35B2    11.757945    35B1    11.791250  
      36B2    11.835838    36B1    11.835867    56A1    12.272314  
      21A2    12.273906    57A1    12.435610    37B2    12.776169  
      37B1    12.809005    22A2    12.812782    58A1    12.812990  
      59A1    14.176988    38B2    14.449890    38B1    14.485731  
      60A1    15.774325    61A1    32.554388    62A1    43.236772  

    Final Occupation by Irrep:
             A1    A2    B1    B2 
    DOCC [     5,    0,    1,    1 ]
    SOCC [     0,    0,    1,    0 ]

  @UHF Final Energy:  -129.30558348464939

   => Energetics <=

    Nuclear Repulsion Energy =             25.5577454905109107
    One-Electron Energy =                -227.3707886381139929
    Two-Electron Energy =                  72.5074596629536927
    Total Energy =                       -129.3055834846493894

  UHF NO Occupations:
  HONO-2 :    1 B1 1.9963991
  HONO-1 :    1 B2 1.9680422
  HONO-0 :    2 B1 1.0000000
  LUNO+0 :    2 B2 0.0319578
  LUNO+1 :    3 B1 0.0036009
  LUNO+2 :    6 A1 0.0024360
  LUNO+3 :    7 A1 0.0003526


Computation Completed


Properties will be evaluated at   0.000000,   0.000000,   0.000000 [a0]

Properties computed using the SCF density matrix

  Nuclear Dipole Moment: [e a0]
     X:     0.0000      Y:     0.0000      Z:    -0.0044

  Electronic Dipole Moment: [e a0]
     X:     0.0000      Y:     0.0000      Z:     0.1027

  Dipole Moment: [e a0]
     X:     0.0000      Y:     0.0000      Z:     0.0983     Total:     0.0983

  Dipole Moment: [D]
     X:     0.0000      Y:     0.0000      Z:     0.2499     Total:     0.2499


*** tstop() called on l43 at Wed Jan 20 21:12:05 2021
Module time:
	user time   =      33.48 seconds =       0.56 minutes
	system time =       5.62 seconds =       0.09 minutes
	total time  =         31 seconds =       0.52 minutes
Total time:
	user time   =      33.48 seconds =       0.56 minutes
	system time =       5.62 seconds =       0.09 minutes
	total time  =         31 seconds =       0.52 minutes

*** tstart() called on l43
*** at Wed Jan 20 21:12:05 2021


	Wfn Parameters:
	--------------------
	Wavefunction         = CCSD_T
	Number of irreps     = 4
	Number of MOs        = 160
	Number of active MOs = 158
	AO-Basis             = NONE
	Semicanonical        = false
	Reference            = UHF
	Print Level          = 1

	IRREP	# MOs	# FZDC	# DOCC	# SOCC	# VIRT	# FZVR
	-----	-----	------	------	------	------	------
	 A1	   62	    2	    3	    0	    57	    0
	 A2	   22	    0	    0	    0	    22	    0
	 B1	   38	    0	    1	    1	    36	    0
	 B2	   38	    0	    1	    0	    37	    0
	Transforming integrals...
	IWL integrals will be deleted.
	(OO|OO)...
	Presorting SO-basis two-electron integrals.
	Sorting File: SO Ints (nn|nn) nbuckets = 1
	Constructing frozen core operators
	Starting AA/AB first half-transformation.
	Sorting AA/AB half-transformed integrals.
	Starting BB first half-transformation.
	Sorting BB half-transformed integrals.
	First half integral transformation complete.
	Starting AA second half-transformation.
	Starting AB second half-transformation.
	Starting BB second half-transformation.
	Two-electron integral transformation complete.
	(OO|OV)...
	Starting AA second half-transformation.
	Starting AB second half-transformation.
	Starting BB second half-transformation.
	Two-electron integral transformation complete.
	(OO|VV)...
	Starting AA second half-transformation.
	Starting AB second half-transformation.
	Starting BB second half-transformation.
	Two-electron integral transformation complete.
	(OV|OO)...
	Starting AA/AB first half-transformation.
	Sorting AA/AB half-transformed integrals.
	Starting BB first half-transformation.
	Sorting BB half-transformed integrals.
	First half integral transformation complete.
	Starting AA second half-transformation.
	Starting AB second half-transformation.
	Starting BB second half-transformation.
	Two-electron integral transformation complete.
	(OV|OV)...
	Starting AA second half-transformation.
	Starting AB second half-transformation.
	Starting BB second half-transformation.
	Two-electron integral transformation complete.
	(OV|VV)...
	Starting AA second half-transformation.
	Starting AB second half-transformation.
	Starting BB second half-transformation.
	Two-electron integral transformation complete.
	(VV|OO)...
	Starting AA/AB first half-transformation.
	Sorting AA/AB half-transformed integrals.
	Starting BB first half-transformation.
	Sorting BB half-transformed integrals.
	First half integral transformation complete.
	Starting AA second half-transformation.
	Starting AB second half-transformation.
	Starting BB second half-transformation.
	Two-electron integral transformation complete.
	(VV|OV)...
	Starting AA second half-transformation.
	Starting AB second half-transformation.
	Starting BB second half-transformation.
	Two-electron integral transformation complete.
	(VV|VV)...
	Starting AA second half-transformation.
	Starting AB second half-transformation.
	Starting BB second half-transformation.
	Two-electron integral transformation complete.
	Frozen core energy     =   -115.70836314064918

	Size of irrep 0 of <AB|CD> integrals:      9.753 (MW) /     78.025 (MB)
	Size of irrep 1 of <AB|CD> integrals:      6.687 (MW) /     53.499 (MB)
	Size of irrep 2 of <AB|CD> integrals:      8.214 (MW) /     65.712 (MB)
	Size of irrep 3 of <AB|CD> integrals:      8.416 (MW) /     67.326 (MB)
	Total:                                    33.070 (MW) /    264.562 (MB)

	Size of irrep 0 of <ab|cd> integrals:      9.979 (MW) /     79.834 (MB)
	Size of irrep 1 of <ab|cd> integrals:      6.880 (MW) /     55.041 (MB)
	Size of irrep 2 of <ab|cd> integrals:      8.544 (MW) /     68.351 (MB)
	Size of irrep 3 of <ab|cd> integrals:      8.544 (MW) /     68.351 (MB)
	Total:                                    33.947 (MW) /    271.578 (MB)

	Size of irrep 0 of <Ab|Cd> integrals:     41.396 (MW) /    331.171 (MB)
	Size of irrep 1 of <Ab|Cd> integrals:     27.134 (MW) /    217.069 (MB)
	Size of irrep 2 of <Ab|Cd> integrals:     33.513 (MW) /    268.100 (MB)
	Size of irrep 3 of <Ab|Cd> integrals:     33.919 (MW) /    271.352 (MB)
	Total:                                   135.962 (MW) /   1087.692 (MB)

	Size of irrep 0 of <IA|BC> integrals:      1.791 (MW) /     14.332 (MB)
	Size of irrep 1 of <IA|BC> integrals:      0.910 (MW) /      7.282 (MB)
	Size of irrep 2 of <IA|BC> integrals:      1.399 (MW) /     11.189 (MB)
	Size of irrep 3 of <IA|BC> integrals:      1.230 (MW) /      9.840 (MB)
	Total:                                     5.330 (MW) /     42.643 (MB)

	Size of irrep 0 of <ia|bc> integrals:      1.585 (MW) /     12.683 (MB)
	Size of irrep 1 of <ia|bc> integrals:      0.734 (MW) /      5.876 (MB)
	Size of irrep 2 of <ia|bc> integrals:      1.111 (MW) /      8.886 (MB)
	Size of irrep 3 of <ia|bc> integrals:      1.111 (MW) /      8.886 (MB)
	Total:                                     4.541 (MW) /     36.331 (MB)

	Size of irrep 0 of <Ia|Bc> integrals:      1.814 (MW) /     14.515 (MB)
	Size of irrep 1 of <Ia|Bc> integrals:      0.922 (MW) /      7.376 (MB)
	Size of irrep 2 of <Ia|Bc> integrals:      1.430 (MW) /     11.439 (MB)
	Size of irrep 3 of <Ia|Bc> integrals:      1.235 (MW) /      9.878 (MB)
	Total:                                     5.401 (MW) /     43.208 (MB)

	Size of irrep 0 of <iA|bC> integrals:      1.570 (MW) /     12.559 (MB)
	Size of irrep 1 of <iA|bC> integrals:      0.724 (MW) /      5.792 (MB)
	Size of irrep 2 of <iA|bC> integrals:      1.083 (MW) /      8.660 (MB)
	Size of irrep 3 of <iA|bC> integrals:      1.107 (MW) /      8.852 (MB)
	Total:                                     4.483 (MW) /     35.864 (MB)

	Size of irrep 0 of tIjAb amplitudes:       0.077 (MW) /      0.618 (MB)
	Size of irrep 1 of tIjAb amplitudes:       0.016 (MW) /      0.125 (MB)
	Size of irrep 2 of tIjAb amplitudes:       0.052 (MW) /      0.417 (MB)
	Size of irrep 3 of tIjAb amplitudes:       0.035 (MW) /      0.280 (MB)
	Total:                                     0.180 (MW) /      1.439 (MB)

	Nuclear Rep. energy          =     25.55774549051091
	SCF energy                   =   -129.30558348464939
	One-electron energy          =    -68.78340206605600
	Two-electron (AA) energy     =      7.34575176838099
	Two-electron (BB) energy     =      4.98034813104881
	Two-electron (AB) energy     =     17.30233633211366
	Two-electron energy          =     29.62843623154346
	Reference energy             =   -129.30558348465081

*** tstop() called on l43 at Wed Jan 20 21:12:34 2021
Module time:
	user time   =      20.24 seconds =       0.34 minutes
	system time =       9.30 seconds =       0.15 minutes
	total time  =         29 seconds =       0.48 minutes
Total time:
	user time   =      53.72 seconds =       0.90 minutes
	system time =      14.92 seconds =       0.25 minutes
	total time  =         60 seconds =       1.00 minutes
            **************************
            *                        *
            *        CCENERGY        *
            *                        *
            **************************

    Nuclear Rep. energy (wfn)     =   25.557745490510911
    SCF energy          (wfn)     = -129.305583484649389
    Reference energy    (file100) = -129.305583484650811

    Input parameters:
    -----------------
    Wave function   =     CCSD_T
    Reference wfn   =     UHF
    Brueckner       =     No
    Memory (Mbytes) =     250000.0
    Maxiter         =     50
    R_Convergence   =     1.0e-07
    E_Convergence   =     1.0e-06
    Restart         =     Yes
    DIIS            =     Yes
    AO Basis        =     NONE
    ABCD            =     NEW
    Cache Level     =     2
    Cache Type      =     LRU
    Print Level     =     1
    Num. of threads =     48
    # Amps to Print =     10
    Print MP2 Amps? =     No
    Analyze T2 Amps =     No
    Print Pair Ener =     No
    Local CC        =     No
    SCS-MP2         =     False
    SCSN-MP2        =     False
    SCS-CCSD        =     False

MP2 correlation energy -0.4264886445534836
                Solving CC Amplitude Equations
                ------------------------------
  Iter             Energy              RMS        T1Diag      D1Diag    New D1Diag    D2Diag
  ----     ---------------------    ---------   ----------  ----------  ----------   --------
     0        -0.426488644553484    0.000e+00    0.000000    0.000000    0.000000    0.000000
     1        -0.409801008860519    1.020e-01    0.025438    0.000000    0.000000    0.000000
     2        -0.425855798082036    3.774e-02    0.028108    0.000000    0.000000    0.000000
     3        -0.431023806739173    2.640e-02    0.040009    0.000000    0.000000    0.000000
     4        -0.431081918240025    1.182e-02    0.045651    0.000000    0.000000    0.000000
     5        -0.431259599085042    5.925e-03    0.049792    0.000000    0.000000    0.000000
     6        -0.431323029536938    1.637e-03    0.050381    0.000000    0.000000    0.000000
     7        -0.431330079273114    4.918e-04    0.050420    0.000000    0.000000    0.000000
     8        -0.431334551249857    1.910e-04    0.050424    0.000000    0.000000    0.000000
     9        -0.431331614868041    8.050e-05    0.050423    0.000000    0.000000    0.000000
    10        -0.431332502044227    3.890e-05    0.050419    0.000000    0.000000    0.000000
    11        -0.431332855477361    1.564e-05    0.050421    0.000000    0.000000    0.000000
    12        -0.431333583158539    5.706e-06    0.050421    0.000000    0.000000    0.000000
    13        -0.431333731686587    2.002e-06    0.050421    0.000000    0.000000    0.000000
    14        -0.431333734552558    5.273e-07    0.050421    0.000000    0.000000    0.000000
    15        -0.431333734859908    2.453e-07    0.050421    0.000000    0.000000    0.000000
    16        -0.431333729480936    9.078e-08    0.050421    0.000000    0.000000    0.000000

    Iterations converged.


    Largest TIA Amplitudes:
              5 115         0.0614388358
              5 117         0.0289466560
              5 121         0.0232491640
              5 118         0.0173154134
              4  79         0.0120596382
              5 116         0.0114656707
              5 119         0.0114319330
              4  83        -0.0110870036
              5 128         0.0108932701
              4  80        -0.0103375482

    Largest Tia Amplitudes:
              4 116        -0.0721797954
              4 117        -0.0640820611
              3  81        -0.0542236438
              4 118        -0.0491903512
              3  80        -0.0398381881
              3  79        -0.0321797462
              4 121        -0.0270425603
              3  84        -0.0236071724
              4 120         0.0182562218
              3  83         0.0149584476

    Largest TIJAB Amplitudes:
      5   2 115   9         0.0191355984
      5   2 115  10         0.0183440831
      5   4 115  84        -0.0105083521
      5   2 115   6        -0.0103190762
      5   2 116   9         0.0090509417
      5   2 117  10         0.0088475543
      5   4 115  87        -0.0082973549
      5   2 117   9         0.0079443725
      4   2  90   9        -0.0077818672
      5   3  59  12        -0.0074407744

    Largest Tijab Amplitudes:
      4   3 116  81        -0.0242137853
      4   3 118  81        -0.0180962133
      4   3 117  81        -0.0169913185
      4   3 116  79        -0.0162760176
      3   2  81  10         0.0154709153
      3   2  81   9         0.0146087911
      4   2 116  10         0.0138592357
      4   3 118  79        -0.0120277053
      4   2 116   9         0.0119861525
      4   2 117   9         0.0112350221

    Largest TIjAb Amplitudes:
      5   4 115 116        -0.0676510873
      5   4 115 118        -0.0503168488
      5   4 115 117        -0.0491508681
      5   3 115  81        -0.0490097913
      5   3 115  79        -0.0316725413
      5   4 117 116        -0.0310202812
      5   3 115  80        -0.0250488385
      2   2   9   9        -0.0249198397
      5   4 115 121        -0.0243789490
      5   4 117 118        -0.0231937627

    SCF energy       (wfn)                    = -129.305583484649389
    Reference energy (file100)                = -129.305583484650811

    Opposite-spin MP2 correlation energy      =   -0.318145678808129
    Same-spin MP2 correlation energy          =   -0.108342965745355
    Singles MP2 correlation energy            =   -0.000000000000000
    MP2 correlation energy                    =   -0.426488644553484
      * MP2 total energy                      = -129.732072129204283

    Opposite-spin CCSD correlation energy     =   -0.337932597143283
    Same-spin CCSD correlation energy         =   -0.093401132337650
    Singles CCSD correlation energy           =   -0.000000000000003
    CCSD correlation energy                   =   -0.431333729480936
      * CCSD total energy                     = -129.736917214131751

            **************************
            *                        *
            *        CCTRIPLES       *
            *                        *
            **************************


    Wave function   =    CCSD_T
    Reference wfn   =      UHF

    Nuclear Rep. energy (wfn)                =   25.557745490510911
    SCF energy          (wfn)                = -129.305583484649389
    Reference energy    (file100)            = -129.305583484650811
    CCSD energy         (file100)            =   -0.431333729480936
    Total CCSD energy   (file100)            = -129.736917214131751

    Number of ijk index combinations:
    Spin Case AAA:                                  20
    Spin Case BBB:                                  10
    Spin Case AAB:                                  75
    Spin Case ABB:                                  60
    AAA (T) energy                             =   -0.000453311511478
    BBB (T) energy                             =   -0.000471365395433
    AAB (T) energy                             =   -0.010283144970000
    ABB (T) energy                             =   -0.009782534948032
    (T) energy                                   =   -0.020990356824943
      * CCSD(T) total energy                     = -129.757907570956689


    Psi4 stopped on: Wednesday, 20 January 2021 09:13PM
    Psi4 wall time for execution: 0:01:54.84

*** Psi4 exiting successfully. Buy a developer a beer!
