
    -----------------------------------------------------------------------
          Psi4: An Open-Source Ab Initio Electronic Structure Package
                               Psi4 1.4a3.dev88 

                         Git: Rev {master} 262e345 


    D. G. A. Smith, L. A. Burns, A. C. Simmonett, R. M. Parrish,
    M. C. Schieber, R. Galvelis, P. Kraus, H. Kruse, R. Di Remigio,
    A. Alenaizan, A. M. James, S. Lehtola, J. P. Misiewicz, M. Scheurer,
    R. A. Shaw, J. B. Schriber, Y. Xie, Z. L. Glick, D. A. Sirianni,
    J. S. O'Brien, J. M. Waldrop, A. Kumar, E. G. Hohenstein,
    B. P. Pritchard, B. R. Brooks, H. F. Schaefer III, A. Yu. Sokolov,
    K. Patkowski, A. E. DePrince III, U. Bozkaya, R. A. King,
    F. A. Evangelista, J. M. Turney, T. D. Crawford, C. D. Sherrill,
    J. Chem. Phys. 152(18) 184108 (2020). https://doi.org/10.1063/5.0006002

                            Additional Code Authors
    E. T. Seidl, C. L. Janssen, E. F. Valeev, M. L. Leininger,
    J. F. Gonthier, R. M. Richard, H. R. McAlexander, M. Saitow, X. Wang,
    P. Verma, and M. H. Lechner

             Previous Authors, Complete List of Code Contributors,
                       and Citations for Specific Modules
    https://github.com/psi4/psi4/blob/master/codemeta.json
    https://github.com/psi4/psi4/graphs/contributors
    http://psicode.org/psi4manual/master/introduction.html#citing-psifour

    -----------------------------------------------------------------------


    Psi4 started on: Thursday, 21 January 2021 11:49AM

    Process ID: 410836
    Host:       n412-045.vsc4.prov
    PSIDATADIR: /home/fs71337/gallo4/psi4/psi4/build/stage/share/psi4
    Memory:     500.0 MiB
    Threads:    48
    
  ==> Input File <==

--------------------------------------------------------------------------
# Any line starting with the # character is a comment line
memory 250000 mb
molecule molecule{
0 1
Cl         0.0000000000        0.0000000000        0.9943524372
Cl         0.0000000000        0.0000000000       -0.9943524372
}

set {
  reference rhf
  basis aug-cc-pV(5+d)Z
  scf_type OUT_OF_CORE
  freeze_core true
}

energy('ccsd(t)')
--------------------------------------------------------------------------

  Memory set to 232.831 GiB by Python driver.

Scratch directory: /binfl/lv71337/airmler/temp/

*** tstart() called on n412-045.vsc4.prov
*** at Thu Jan 21 11:49:04 2021

   => Loading Basis Set <=

    Name: AUG-CC-PV(5+D)Z
    Role: ORBITAL
    Keyword: BASIS
    atoms 1-2 entry CL         line  1572 file /home/fs71337/gallo4/psi4/psi4/build/stage/share/psi4/basis/aug-cc-pv_5pd_z.gbs 


         ---------------------------------------------------------
                                   SCF
               by Justin Turney, Rob Parrish, Andy Simmonett
                          and Daniel G. A. Smith
                              RHF Reference
                       48 Threads, 238418 MiB Core
         ---------------------------------------------------------

  ==> Geometry <==

    Molecular point group: d2h
    Full point group: D_inf_h

    Geometry (in Angstrom), charge = 0, multiplicity = 1:

       Center              X                  Y                   Z               Mass       
    ------------   -----------------  -----------------  -----------------  -----------------
         CL           0.000000000000     0.000000000000     0.994352437200    34.968852682000
         CL           0.000000000000     0.000000000000    -0.994352437200    34.968852682000

  Running in d2h symmetry.

  Rotational constants: A = ************  B =      0.24378  C =      0.24378 [cm^-1]
  Rotational constants: A = ************  B =   7308.44756  C =   7308.44756 [MHz]
  Nuclear repulsion =   76.900406818668969

  Charge       = 0
  Multiplicity = 1
  Electrons    = 34
  Nalpha       = 17
  Nbeta        = 17

  ==> Algorithm <==

  SCF Algorithm Type is OUT_OF_CORE.
  DIIS enabled.
  MOM disabled.
  Fractional occupation disabled.
  Guess Type is SAD.
  Energy threshold   = 1.00e-08
  Density threshold  = 1.00e-08
  Integral threshold = 1.00e-12

  ==> Primary Basis <==

  Basis Set: AUG-CC-PV(5+D)Z
    Blend: AUG-CC-PV(5+D)Z
    Number of shells: 60
    Number of basis function: 272
    Number of Cartesian functions: 384
    Spherical Harmonics?: true
    Max angular momentum: 5

  ==> Integral Setup <==

  ==> DiskJK: Disk-Based J/K Matrices <==

    J tasked:                  Yes
    K tasked:                  Yes
    wK tasked:                  No
    Memory [MiB]:           178813
    Schwarz Cutoff:          1E-12

  Minimum eigenvalue in the overlap matrix is 4.4589349960E-05.
  Reciprocal condition number of the overlap matrix is 7.4800531667E-06.
    Using symmetric orthogonalization.

  ==> Pre-Iterations <==

  SCF Guess: Superposition of Atomic Densities via on-the-fly atomic UHF (no occupation information).


 WARNING: Atomic UHF is not converging! Try casting from a smaller basis or call Rob at CCMST.
   -------------------------
    Irrep   Nso     Nmo    
   -------------------------
     Ag        50      50 
     B1g       20      20 
     B2g       33      33 
     B3g       33      33 
     Au        20      20 
     B1u       50      50 
     B2u       33      33 
     B3u       33      33 
   -------------------------
    Total     272     272
   -------------------------

  ==> Iterations <==

                        Total Energy        Delta E     RMS |[F,P]|

   @RHF iter SAD:    37.98035270810510    3.79804e+01   0.00000e+00 
    Occupation by irrep:
             Ag   B1g   B2g   B3g    Au   B1u   B2u   B3u 
    DOCC [     5,    0,    2,    1,    0,    5,    2,    2 ]

   @RHF iter   1:  -898.85782095327306   -9.36838e+02   1.27599e-01 DIIS
    Occupation by irrep:
             Ag   B1g   B2g   B3g    Au   B1u   B2u   B3u 
    DOCC [     5,    0,    2,    2,    0,    4,    2,    2 ]

   @RHF iter   2:  -902.57022534667158   -3.71240e+00   5.13439e-02 DIIS
   @RHF iter   3:  -916.73752682547740   -1.41673e+01   2.33526e-02 DIIS
   @RHF iter   4:  -918.91257599006326   -2.17505e+00   5.97876e-03 DIIS
   @RHF iter   5:  -919.00792298151725   -9.53470e-02   7.79153e-04 DIIS
   @RHF iter   6:  -919.01001322486184   -2.09024e-03   2.37381e-04 DIIS
   @RHF iter   7:  -919.01034900593265   -3.35781e-04   4.70032e-05 DIIS
   @RHF iter   8:  -919.01037515739108   -2.61515e-05   1.05608e-05 DIIS
   @RHF iter   9:  -919.01037633437886   -1.17699e-06   1.11730e-06 DIIS
   @RHF iter  10:  -919.01037634473266   -1.03538e-08   2.22219e-07 DIIS
   @RHF iter  11:  -919.01037634503359   -3.00929e-10   2.97475e-08 DIIS
   @RHF iter  12:  -919.01037634504121   -7.61702e-12   3.62963e-09 DIIS
  Energy and wave function converged.


  ==> Post-Iterations <==

    Orbital Energies [Eh]
    ---------------------

    Doubly Occupied:                                                      

       1Ag  -104.898036     1B1u -104.898034     2Ag   -10.619813  
       2B1u  -10.619643     3Ag    -8.086913     3B1u   -8.086642  
       1B3u   -8.084222     1B2u   -8.084222     1B2g   -8.084215  
       1B3g   -8.084215     4Ag    -1.218472     4B1u   -1.014751  
       5Ag    -0.597954     2B3u   -0.569991     2B2u   -0.569991  
       2B2g   -0.443802     2B3g   -0.443802  

    Virtual:                                                              

       5B1u    0.022893     6B1u    0.072721     6Ag     0.076570  
       3B3u    0.084070     3B2u    0.084070     3B2g    0.106245  
       3B3g    0.106245     7Ag     0.108545     7B1u    0.189397  
       8Ag     0.209533     1B1g    0.209533     4B3u    0.262430  
       4B2u    0.262430     9Ag     0.271306     8B1u    0.292938  
       1Au     0.292938     9B1u    0.309181     4B2g    0.316882  
       4B3g    0.316882     5B3u    0.386105     5B2u    0.386105  
      10Ag     0.435239     5B2g    0.448353     5B3g    0.448353  
      10B1u    0.462607    11Ag     0.474609     6B3u    0.502130  
       6B2u    0.502130    12Ag     0.535490     2B1g    0.535490  
       7B2u    0.570584     7B3u    0.570584    11B1u    0.618365  
       2Au     0.618365    13Ag     0.619741    14Ag     0.666933  
       3B1g    0.666933     6B2g    0.693500     6B3g    0.693500  
       7B3g    0.694405     7B2g    0.694405    12B1u    0.730371  
      13B1u    0.819442     8B3u    0.827707     8B2u    0.827707  
      14B1u    0.847786     3Au     0.847786    15Ag     0.932378  
       8B2g    0.993433     8B3g    0.993433    15B1u    1.037344  
      16Ag     1.187605     9B3u    1.246428     9B2u    1.246428  
       9B2g    1.255039     9B3g    1.255039     4B1g    1.274594  
      17Ag     1.274594    10B2u    1.302769    10B3u    1.302769  
       5B1g    1.369828    18Ag     1.369828    11B3u    1.387697  
      11B2u    1.387697    16B1u    1.412945     4Au     1.414072  
      17B1u    1.414072    19Ag     1.424960     6B1g    1.424960  
       5Au     1.427526    18B1u    1.427526    20Ag     1.463117  
      12B2u    1.492989    12B3u    1.492989    10B2g    1.566236  
      10B3g    1.566236    11B3g    1.585719    11B2g    1.585719  
      13B3u    1.593978    13B2u    1.593978     7B1g    1.623616  
      21Ag     1.623616    22Ag     1.651899    12B3g    1.653093  
      12B2g    1.653093     6Au     1.689919    19B1u    1.689919  
      20B1u    1.737176    13B3g    1.824443    13B2g    1.824443  
      21B1u    1.850445    14B3u    1.971478    14B2u    1.971478  
       7Au     2.055972    22B1u    2.055972    23Ag     2.061492  
      23B1u    2.088712    24Ag     2.430762    14B2g    2.488145  
      14B3g    2.488145    24B1u    2.933360    15B3u    2.986775  
      15B2u    2.986775     8B1g    2.989496    25Ag     2.989496  
      26Ag     3.026191    16B2u    3.069844    16B3u    3.069844  
       9B1g    3.218631    27Ag     3.218631    17B2u    3.223996  
      17B3u    3.223996    15B3g    3.273410    15B2g    3.273410  
      10B1g    3.274105    28Ag     3.274105    16B3g    3.279268  
      16B2g    3.279268    11B1g    3.304462    29Ag     3.304462  
       8Au     3.334419    25B1u    3.334419    18B2u    3.378984  
      18B3u    3.378984     9Au     3.383525    26B1u    3.383525  
      12B1g    3.389259    30Ag     3.389259    19B2u    3.396446  
      19B3u    3.396446    31Ag     3.398887    10Au     3.407033  
      27B1u    3.407033    20B2u    3.448048    20B3u    3.448048  
      17B2g    3.461960    17B3g    3.461960    28B1u    3.462272  
      18B3g    3.483558    18B2g    3.483558    19B3g    3.555334  
      19B2g    3.555334    21B2u    3.571750    21B3u    3.571750  
      29B1u    3.586744    32Ag     3.664621    11Au     3.669463  
      30B1u    3.669463    12Au     3.751787    31B1u    3.751787  
      20B3g    3.792869    20B2g    3.792869    33Ag     3.941442  
      13B1g    3.959648    34Ag     3.959648    22B2u    4.138203  
      22B3u    4.138203    21B3g    4.141317    21B2g    4.141317  
      32B1u    4.476719    33B1u    4.707144    13Au     4.810748  
      34B1u    4.810748    22B2g    4.904406    22B3g    4.904406  
      23B3u    4.999481    23B2u    4.999481    23B3g    5.371115  
      23B2g    5.371115    35Ag     5.755901    35B1u    5.791061  
      36Ag     6.556294    14B1g    6.556294    24B2u    6.567908  
      24B3u    6.567908    25B2u    6.612579    25B3u    6.612579  
      24B3g    6.624274    24B2g    6.624274    14Au     6.739470  
      36B1u    6.739470    37Ag     6.742246    38Ag     6.980231  
      37B1u    7.016041    25B3g    7.029757    25B2g    7.029757  
      39Ag     7.249486    15B1g    7.249486    38B1u    7.312511  
      15Au     7.312511    26B2u    7.330631    26B3u    7.330631  
      27B2u    7.368540    27B3u    7.368540    16B1g    7.398515  
      40Ag     7.398515    39B1u    7.399972    26B3g    7.408591  
      26B2g    7.408591    41Ag     7.435535    16Au     7.451008  
      40B1u    7.451008    17B1g    7.498617    42Ag     7.498617  
      27B3g    7.546220    27B2g    7.546220    41B1u    7.611770  
      18B1g    7.627145    43Ag     7.627145    28B2u    7.682547  
      28B3u    7.682547    29B3u    7.725437    29B2u    7.725437  
      28B2g    7.726735    28B3g    7.726735    44Ag     7.743592  
      30B2u    7.805436    30B3u    7.805436    17Au     7.807799  
      42B1u    7.807799    43B1u    7.833003    18Au     7.833003  
      19B1g    7.885386    45Ag     7.885386    29B3g    7.977568  
      29B2g    7.977568    31B2u    8.035922    31B3u    8.035922  
      19Au     8.249841    44B1u    8.249841    30B3g    8.356651  
      30B2g    8.356651    45B1u    8.497841    31B3g    8.706113  
      31B2g    8.706113    46Ag     9.025743    46B1u    9.733325  
      47Ag    20.487790    20B1g   20.487790    47B1u   20.572123  
      20Au    20.572123    32B2u   20.608721    32B3u   20.608721  
      48Ag    20.945234    32B3g   21.034998    32B2g   21.034998  
      48B1u   21.193970    33B2u   38.038827    33B3u   38.038827  
      33B3g   38.540524    33B2g   38.540524    49B1u   39.135827  
      49Ag    39.322552    50Ag    77.201253    50B1u   83.660181  

    Final Occupation by Irrep:
             Ag   B1g   B2g   B3g    Au   B1u   B2u   B3u 
    DOCC [     5,    0,    2,    2,    0,    4,    2,    2 ]

  @RHF Final Energy:  -919.01037634504121

   => Energetics <=

    Nuclear Repulsion Energy =             76.9004068186689693
    One-Electron Energy =               -1423.0121263263877154
    Two-Electron Energy =                 427.1013431626775514
    Total Energy =                       -919.0103763450413226

Computation Completed


Properties will be evaluated at   0.000000,   0.000000,   0.000000 [a0]

Properties computed using the SCF density matrix

  Nuclear Dipole Moment: [e a0]
     X:     0.0000      Y:     0.0000      Z:     0.0000

  Electronic Dipole Moment: [e a0]
     X:     0.0000      Y:     0.0000      Z:     0.0000

  Dipole Moment: [e a0]
     X:     0.0000      Y:     0.0000      Z:     0.0000     Total:     0.0000

  Dipole Moment: [D]
     X:     0.0000      Y:     0.0000      Z:     0.0000     Total:     0.0000


*** tstop() called on n412-045.vsc4.prov at Thu Jan 21 11:51:37 2021
Module time:
	user time   =     172.21 seconds =       2.87 minutes
	system time =      13.18 seconds =       0.22 minutes
	total time  =        153 seconds =       2.55 minutes
Total time:
	user time   =     172.21 seconds =       2.87 minutes
	system time =      13.18 seconds =       0.22 minutes
	total time  =        153 seconds =       2.55 minutes

*** tstart() called on n412-045.vsc4.prov
*** at Thu Jan 21 11:51:37 2021


	Wfn Parameters:
	--------------------
	Wavefunction         = CCSD_T
	Number of irreps     = 8
	Number of MOs        = 272
	Number of active MOs = 262
	AO-Basis             = NONE
	Semicanonical        = false
	Reference            = RHF
	Print Level          = 1

	IRREP	# MOs	# FZDC	# DOCC	# SOCC	# VIRT	# FZVR
	-----	-----	------	------	------	------	------
	 Ag	   50	    3	    2	    0	    45	    0
	 B1g	   20	    0	    0	    0	    20	    0
	 B2g	   33	    1	    1	    0	    31	    0
	 B3g	   33	    1	    1	    0	    31	    0
	 Au	   20	    0	    0	    0	    20	    0
	 B1u	   50	    3	    1	    0	    46	    0
	 B2u	   33	    1	    1	    0	    31	    0
	 B3u	   33	    1	    1	    0	    31	    0
	Transforming integrals...
	IWL integrals will be deleted.
	(OO|OO)...
	Presorting SO-basis two-electron integrals.
	Sorting File: SO Ints (nn|nn) nbuckets = 1
	Constructing frozen core operators
	Starting first half-transformation.
	Sorting half-transformed integrals.
	First half integral transformation complete.
	Starting second half-transformation.
	Two-electron integral transformation complete.
	(OO|OV)...
	Starting second half-transformation.
	Two-electron integral transformation complete.
	(OO|VV)...
	Starting second half-transformation.
	Two-electron integral transformation complete.
	(OV|OO)...
	Starting first half-transformation.
	Sorting half-transformed integrals.
	First half integral transformation complete.
	Starting second half-transformation.
	Two-electron integral transformation complete.
	(OV|OV)...
	Starting second half-transformation.
	Two-electron integral transformation complete.
	(OV|VV)...
	Starting second half-transformation.
	Two-electron integral transformation complete.
	(VV|OO)...
	Starting first half-transformation.
	Sorting half-transformed integrals.
	First half integral transformation complete.
	Starting second half-transformation.
	Two-electron integral transformation complete.
	(VV|OV)...
	Starting second half-transformation.
	Two-electron integral transformation complete.
	(VV|VV)...
	Starting second half-transformation.
	Two-electron integral transformation complete.
	Frozen core energy     =   -953.36006165439699

	Size of irrep 0 of <ab|cd> integrals:     77.176 (MW) /    617.410 (MB)
	Size of irrep 1 of <ab|cd> integrals:     56.010 (MW) /    448.082 (MB)
	Size of irrep 2 of <ab|cd> integrals:     65.967 (MW) /    527.735 (MB)
	Size of irrep 3 of <ab|cd> integrals:     65.967 (MW) /    527.735 (MB)
	Size of irrep 4 of <ab|cd> integrals:     56.010 (MW) /    448.082 (MB)
	Size of irrep 5 of <ab|cd> integrals:     77.159 (MW) /    617.269 (MB)
	Size of irrep 6 of <ab|cd> integrals:     65.967 (MW) /    527.735 (MB)
	Size of irrep 7 of <ab|cd> integrals:     65.967 (MW) /    527.735 (MB)
	Total:                                   530.223 (MW) /   4241.783 (MB)

	Size of irrep 0 of <ia|bc> integrals:      2.284 (MW) /     18.273 (MB)
	Size of irrep 1 of <ia|bc> integrals:      1.377 (MW) /     11.016 (MB)
	Size of irrep 2 of <ia|bc> integrals:      1.819 (MW) /     14.555 (MB)
	Size of irrep 3 of <ia|bc> integrals:      1.819 (MW) /     14.555 (MB)
	Size of irrep 4 of <ia|bc> integrals:      1.377 (MW) /     11.016 (MB)
	Size of irrep 5 of <ia|bc> integrals:      2.293 (MW) /     18.341 (MB)
	Size of irrep 6 of <ia|bc> integrals:      1.819 (MW) /     14.555 (MB)
	Size of irrep 7 of <ia|bc> integrals:      1.819 (MW) /     14.555 (MB)
	Total:                                    14.608 (MW) /    116.865 (MB)

	Size of irrep 0 of tijab amplitudes:       0.079 (MW) /      0.633 (MB)
	Size of irrep 1 of tijab amplitudes:       0.030 (MW) /      0.239 (MB)
	Size of irrep 2 of tijab amplitudes:       0.049 (MW) /      0.390 (MB)
	Size of irrep 3 of tijab amplitudes:       0.049 (MW) /      0.390 (MB)
	Size of irrep 4 of tijab amplitudes:       0.030 (MW) /      0.239 (MB)
	Size of irrep 5 of tijab amplitudes:       0.070 (MW) /      0.562 (MB)
	Size of irrep 6 of tijab amplitudes:       0.049 (MW) /      0.390 (MB)
	Size of irrep 7 of tijab amplitudes:       0.049 (MW) /      0.390 (MB)
	Total:                                     0.404 (MW) /      3.233 (MB)

	Nuclear Rep. energy          =     76.90040681866897
	SCF energy                   =   -919.01037634504121
	One-electron energy          =    -75.38391822991190
	Two-electron energy          =     32.83319672059819
	Reference energy             =   -919.01037634504178

*** tstop() called on n412-045.vsc4.prov at Thu Jan 21 11:53:31 2021
Module time:
	user time   =      35.66 seconds =       0.59 minutes
	system time =      18.10 seconds =       0.30 minutes
	total time  =        114 seconds =       1.90 minutes
Total time:
	user time   =     207.87 seconds =       3.46 minutes
	system time =      31.28 seconds =       0.52 minutes
	total time  =        267 seconds =       4.45 minutes
            **************************
            *                        *
            *        CCENERGY        *
            *                        *
            **************************

    Nuclear Rep. energy (wfn)     =   76.900406818668969
    SCF energy          (wfn)     = -919.010376345041209
    Reference energy    (file100) = -919.010376345041777

    Input parameters:
    -----------------
    Wave function   =     CCSD_T
    Reference wfn   =     RHF
    Brueckner       =     No
    Memory (Mbytes) =     250000.0
    Maxiter         =     50
    R_Convergence   =     1.0e-07
    E_Convergence   =     1.0e-06
    Restart         =     Yes
    DIIS            =     Yes
    AO Basis        =     NONE
    ABCD            =     NEW
    Cache Level     =     2
    Cache Type      =     LOW
    Print Level     =     1
    Num. of threads =     48
    # Amps to Print =     10
    Print MP2 Amps? =     No
    Analyze T2 Amps =     No
    Print Pair Ener =     No
    Local CC        =     No
    SCS-MP2         =     False
    SCSN-MP2        =     False
    SCS-CCSD        =     False

MP2 correlation energy -0.4377409082580370
                Solving CC Amplitude Equations
                ------------------------------
  Iter             Energy              RMS        T1Diag      D1Diag    New D1Diag    D2Diag
  ----     ---------------------    ---------   ----------  ----------  ----------   --------
     0        -0.437740908258037    0.000e+00    0.000000    0.000000    0.000000    0.156409
     1        -0.451304953349483    5.275e-02    0.007000    0.014740    0.014740    0.160446
     2        -0.461403124049772    1.840e-02    0.007559    0.017054    0.017054    0.169081
     3        -0.462697082442681    6.135e-03    0.008597    0.019565    0.019565    0.170878
     4        -0.462569992770609    1.578e-03    0.008760    0.020088    0.020088    0.171407
     5        -0.462593704189459    5.080e-04    0.008816    0.020271    0.020271    0.171550
     6        -0.462593586842681    1.689e-04    0.008824    0.020296    0.020296    0.171542
     7        -0.462591445965532    5.790e-05    0.008823    0.020295    0.020295    0.171531
     8        -0.462592239545194    1.883e-05    0.008823    0.020292    0.020292    0.171528
     9        -0.462592501203038    5.049e-06    0.008822    0.020290    0.020290    0.171528
    10        -0.462592308747228    1.558e-06    0.008822    0.020290    0.020290    0.171527
    11        -0.462592350832187    4.946e-07    0.008822    0.020289    0.020289    0.171527
    12        -0.462592346295613    1.227e-07    0.008822    0.020289    0.020289    0.171527
    13        -0.462592350965092    4.253e-08    0.008822    0.020289    0.020289    0.171527

    Iterations converged.


    Largest TIA Amplitudes:
              1   7         0.0137770094
              6 225        -0.0105331275
              5 194        -0.0105331274
              6 227         0.0095909404
              5 196         0.0095909403
              1  10         0.0088580751
              4 154         0.0078243796
              1   3        -0.0055191674
              1   5         0.0053171356
              4 151        -0.0045905141

    Largest TIjAb Amplitudes:
      1   1 147 147        -0.0516393296
      1   1 147 148         0.0416491133
      1   1 148 147         0.0416491133
      1   1 148 148        -0.0341291440
      1   1 147 149        -0.0194892423
      1   1 149 147        -0.0194892423
      3   3 196 196        -0.0186845320
      2   2 227 227        -0.0186845320
      3   3 147 147        -0.0186500035
      2   2 147 147        -0.0186500033

    SCF energy       (wfn)                    = -919.010376345041209
    Reference energy (file100)                = -919.010376345041777

    Opposite-spin MP2 correlation energy      =   -0.337239601415974
    Same-spin MP2 correlation energy          =   -0.100501306842063
    Singles MP2 correlation energy            =   -0.000000000000000
    MP2 correlation energy                    =   -0.437740908258037
      * MP2 total energy                      = -919.448117253299870

    Opposite-spin CCSD correlation energy     =   -0.367914349144232
    Same-spin CCSD correlation energy         =   -0.094678001820864
    Singles CCSD correlation energy           =    0.000000000000000
    CCSD correlation energy                   =   -0.462592350965092
      * CCSD total energy                     = -919.472968696006888

            **************************
            *                        *
            *        CCTRIPLES       *
            *                        *
            **************************


    Wave function   =    CCSD_T
    Reference wfn   =      RHF

    Nuclear Rep. energy (wfn)                =   76.900406818668969
    SCF energy          (wfn)                = -919.010376345041209
    Reference energy    (file100)            = -919.010376345041777
    CCSD energy         (file100)            =   -0.462592350965092
    Total CCSD energy   (file100)            = -919.472968696006888

    Number of ijk index combinations:               84
    Memory available in words        :     31250000000
    ~Words needed per explicit thread:          389344
    Number of threads for explicit ijk threading:   48

    (T) energy                                =   -0.023141457359752
      * CCSD(T) total energy                  = -919.496110153366658


    Psi4 stopped on: Thursday, 21 January 2021 11:54AM
    Psi4 wall time for execution: 0:05:48.85

*** Psi4 exiting successfully. Buy a developer a beer!
