
    -----------------------------------------------------------------------
          Psi4: An Open-Source Ab Initio Electronic Structure Package
                               Psi4 1.2a1.dev939 

                         Git: Rev {HEAD} fa1ec19 


    R. M. Parrish, L. A. Burns, D. G. A. Smith, A. C. Simmonett,
    A. E. DePrince III, E. G. Hohenstein, U. Bozkaya, A. Yu. Sokolov,
    R. Di Remigio, R. M. Richard, J. F. Gonthier, A. M. James,
    H. R. McAlexander, A. Kumar, M. Saitow, X. Wang, B. P. Pritchard,
    P. Verma, H. F. Schaefer III, K. Patkowski, R. A. King, E. F. Valeev,
    F. A. Evangelista, J. M. Turney, T. D. Crawford, and C. D. Sherrill,
    J. Chem. Theory Comput. 13(7) pp 3185--3197 (2017).
    (doi: 10.1021/acs.jctc.7b00174)

    -----------------------------------------------------------------------


    Psi4 started on: Friday, 26 April 2019 07:06PM

    Process ID:  13441
    PSIDATADIR: /home/grueneis/src/psi4/objdir/stage/usr/local/psi4/share/psi4
    Memory:     500.0 MiB
    Threads:    1
    
  ==> Input File <==

--------------------------------------------------------------------------
# Any line starting with the # character is a comment line

memory 32000 mb

molecule molecule {
-1 1
P          0.0000000000        0.0000000000        0.0604223492
H          0.0000000000        1.0258075143       -0.9283823155
H          0.0000000000       -1.0258075143       -0.9283823155
}

set {
  reference rhf
  basis aug-cc-pv(T+d)z
  scf_type OUT_OF_CORE
  freeze_core true
}

energy('ccsd')
--------------------------------------------------------------------------

  Memory set to  29.802 GiB by Python driver.

*** tstart() called on cqc01
*** at Fri Apr 26 19:06:12 2019

   => Loading Basis Set <=

    Name: AUG-CC-PV(T+D)Z
    Role: ORBITAL
    Keyword: BASIS
    atoms 1   entry P          line   844 file /home/grueneis/src/psi4/objdir/stage/usr/local/psi4/share/psi4/basis/aug-cc-pv_tpd_z.gbs 
    atoms 2-3 entry H          line    56 file /home/grueneis/src/psi4/objdir/stage/usr/local/psi4/share/psi4/basis/aug-cc-pv_tpd_z.gbs 


         ---------------------------------------------------------
                                   SCF
            by Justin Turney, Rob Parrish, Andy Simmonett
                             and Daniel Smith
                              RHF Reference
                        1 Threads,  30517 MiB Core
         ---------------------------------------------------------

  ==> Geometry <==

    Molecular point group: c2v
    Full point group: C2v

    Geometry (in Angstrom), charge = -1, multiplicity = 1:

       Center              X                  Y                   Z               Mass       
    ------------   -----------------  -----------------  -----------------  -----------------
           P          0.000000000000     0.000000000000     0.060415875383    30.973761629000
           H         -0.000000000000     1.025807514300    -0.928388789317     1.007825032070
           H          0.000000000000    -1.025807514300    -0.928388789317     1.007825032070

  Running in c2v symmetry.

  Rotational constants: A =      9.11047  B =      7.94785  C =      4.24477 [cm^-1]
  Rotational constants: A = 273125.13266  B = 238270.51703  C = 127255.02576 [MHz]
  Nuclear repulsion =   11.400176544644962

  Charge       = -1
  Multiplicity = 1
  Electrons    = 18
  Nalpha       = 9
  Nbeta        = 9

  ==> Algorithm <==

  SCF Algorithm Type is OUT_OF_CORE.
  DIIS enabled.
  MOM disabled.
  Fractional occupation disabled.
  Guess Type is SAD.
  Energy threshold   = 1.00e-08
  Density threshold  = 1.00e-08
  Integral threshold = 0.00e+00

  ==> Primary Basis <==

  Basis Set: AUG-CC-PV(T+D)Z
    Blend: AUG-CC-PV(T+D)Z
    Number of shells: 35
    Number of basis function: 101
    Number of Cartesian functions: 115
    Spherical Harmonics?: true
    Max angular momentum: 3

  ==> Pre-Iterations <==

   -------------------------------------------------------
    Irrep   Nso     Nmo     Nalpha   Nbeta   Ndocc  Nsocc
   -------------------------------------------------------
     A1        39      39       0       0       0       0
     A2        13      13       0       0       0       0
     B1        20      20       0       0       0       0
     B2        29      29       0       0       0       0
   -------------------------------------------------------
    Total     101     101       9       9       9       0
   -------------------------------------------------------

  ==> Integral Setup <==

  ==> DiskJK: Disk-Based J/K Matrices <==

    J tasked:                  Yes
    K tasked:                  Yes
    wK tasked:                  No
    Memory (MB):             22888
    Schwarz Cutoff:          1E-12

  Minimum eigenvalue in the overlap matrix is 2.2572765632E-04.
  Using Symmetric Orthogonalization.

  SCF Guess: Superposition of Atomic Densities via on-the-fly atomic UHF.

  ==> Iterations <==

                        Total Energy        Delta E     RMS |[F,P]|

   @RHF iter   0:  -353.69391830806615   -3.53694e+02   2.30154e-02 
    Occupation by irrep:
             A1    A2    B1    B2 
    DOCC [     5,    0,    2,    2 ]

   @RHF iter   1:  -341.14492517745595    1.25490e+01   1.92947e-02 
   @RHF iter   2:  -341.60171594273760   -4.56791e-01   1.23711e-02 DIIS
   @RHF iter   3:  -341.87847495762907   -2.76759e-01   1.78820e-03 DIIS
   @RHF iter   4:  -341.89025273868873   -1.17778e-02   4.99128e-04 DIIS
   @RHF iter   5:  -341.89089667253813   -6.43934e-04   1.32834e-04 DIIS
   @RHF iter   6:  -341.89103096506790   -1.34293e-04   5.68979e-05 DIIS
   @RHF iter   7:  -341.89105286589847   -2.19008e-05   1.77692e-05 DIIS
   @RHF iter   8:  -341.89105464410812   -1.77821e-06   2.57089e-06 DIIS
   @RHF iter   9:  -341.89105470161724   -5.75091e-08   5.97782e-07 DIIS
   @RHF iter  10:  -341.89105470426261   -2.64538e-09   1.41756e-07 DIIS
   @RHF iter  11:  -341.89105470439461   -1.31990e-10   2.15592e-08 DIIS
   @RHF iter  12:  -341.89105470439853   -3.92220e-12   4.48019e-09 DIIS

  ==> Post-Iterations <==

    Orbital Energies (a.u.)
    -----------------------

    Doubly Occupied:                                                      

       1A1   -79.676166     2A1    -7.217839     1B2    -5.111783  
       3A1    -5.111072     1B1    -5.110373     4A1    -0.560576  
       2B2    -0.269995     5A1    -0.164872     2B1    -0.044967  

    Virtual:                                                              

       6A1     0.150345     3B2     0.164845     7A1     0.221803  
       4B2     0.238741     3B1     0.244087     8A1     0.299447  
       5B2     0.353937     9A1     0.378019    10A1     0.392032  
       1A2     0.399072     4B1     0.401464     6B2     0.454849  
      11A1     0.476781     7B2     0.489184    12A1     0.490912  
       2A2     0.507461     5B1     0.514706     8B2     0.538996  
      13A1     0.559910    14A1     0.743110     9B2     0.749878  
       6B1     0.768903    15A1     0.783414    16A1     0.808466  
       3A2     0.816516     7B1     0.823496     8B1     0.877392  
      10B2     0.914849    17A1     0.925183    11B2     0.948868  
      18A1     0.975072    12B2     0.984320     4A2     0.986691  
       9B1     0.989636    19A1     1.088826    20A1     1.157419  
      13B2     1.179116    14B2     1.210122     5A2     1.228319  
      10B1     1.230166    21A1     1.251978     6A2     1.294758  
      11B1     1.307632    22A1     1.326834    15B2     1.420011  
      16B2     1.449381    23A1     1.645191    17B2     1.732392  
       7A2     1.753673    12B1     1.767029    24A1     1.799593  
      25A1     1.841967    18B2     1.878298     8A2     1.887106  
      13B1     1.895433    26A1     1.913545    27A1     2.143983  
      14B1     2.149611    19B2     2.158521    15B1     2.281628  
      28A1     2.331677    20B2     2.363830     9A2     2.460197  
      29A1     2.555208    21B2     2.567942    16B1     2.821710  
      30A1     2.952368    22B2     3.149311    31A1     3.568370  
      23B2     3.703303    10A2     4.143196    24B2     4.191348  
      32A1     4.208212    17B1     4.275065    25B2     4.392615  
      18B1     4.430597    11A2     4.456335    33A1     4.614798  
      19B1     4.668478    34A1     4.698018    12A2     4.708534  
      26B2     4.725804    35A1     4.782798    27B2     4.835469  
      36A1     4.965009    28B2     5.384871    37A1     6.067610  
      20B1     6.576549    13A2     6.580826    38A1     6.674244  
      29B2     7.687332    39A1     7.863460  

    Final Occupation by Irrep:
             A1    A2    B1    B2 
    DOCC [     5,    0,    2,    2 ]

  Energy converged.

  @RHF Final Energy:  -341.89105470439853

   => Energetics <=

    Nuclear Repulsion Energy =             11.4001765446449621
    One-Electron Energy =                -500.0471789270870886
    Two-Electron Energy =                 146.7559476780435830
    Total Energy =                       -341.8910547043985275



Properties will be evaluated at   0.000000,   0.000000,   0.000000 Bohr

Properties computed using the SCF density matrix

  Nuclear Dipole Moment: (a.u.)
     X:     0.0000      Y:     0.0000      Z:    -1.7963

  Electronic Dipole Moment: (a.u.)
     X:     0.0000      Y:     0.0000      Z:     1.6513

  Dipole Moment: (a.u.)
     X:     0.0000      Y:     0.0000      Z:    -0.1450     Total:     0.1450

  Dipole Moment: (Debye)
     X:     0.0000      Y:     0.0000      Z:    -0.3684     Total:     0.3684


*** tstop() called on cqc01 at Fri Apr 26 19:06:16 2019
Module time:
	user time   =       2.48 seconds =       0.04 minutes
	system time =       1.60 seconds =       0.03 minutes
	total time  =          4 seconds =       0.07 minutes
Total time:
	user time   =       2.48 seconds =       0.04 minutes
	system time =       1.60 seconds =       0.03 minutes
	total time  =          4 seconds =       0.07 minutes

*** tstart() called on cqc01
*** at Fri Apr 26 19:06:16 2019


	Wfn Parameters:
	--------------------
	Wavefunction         = CCSD
	Number of irreps     = 4
	Number of MOs        = 101
	Number of active MOs = 96
	AO-Basis             = NONE
	Semicanonical        = false
	Reference            = RHF
	Print Level          = 1

	IRREP	# MOs	# FZDC	# DOCC	# SOCC	# VIRT	# FZVR
	-----	-----	------	------	------	------	------
	 A1	   39	    3	    2	    0	    34	    0
	 A2	   13	    0	    0	    0	    13	    0
	 B1	   20	    1	    1	    0	    18	    0
	 B2	   29	    1	    1	    0	    27	    0
	Transforming integrals...
	IWL integrals will be deleted.
	(OO|OO)...
	Presorting SO-basis two-electron integrals.
	Sorting File: SO Ints (nn|nn) nbuckets = 1
	Transforming the one-electron integrals and constructing Fock matrices
	Starting first half-transformation.
	Sorting half-transformed integrals.
	First half integral transformation complete.
	Starting second half-transformation.
	Two-electron integral transformation complete.
	(OO|OV)...
	Starting second half-transformation.
	Two-electron integral transformation complete.
	(OO|VV)...
	Starting second half-transformation.
	Two-electron integral transformation complete.
	(OV|OO)...
	Starting first half-transformation.
	Sorting half-transformed integrals.
	First half integral transformation complete.
	Starting second half-transformation.
	Two-electron integral transformation complete.
	(OV|OV)...
	Starting second half-transformation.
	Two-electron integral transformation complete.
	(OV|VV)...
	Starting second half-transformation.
	Two-electron integral transformation complete.
	(VV|OO)...
	Starting first half-transformation.
	Sorting half-transformed integrals.
	First half integral transformation complete.
	Starting second half-transformation.
	Two-electron integral transformation complete.
	(VV|OV)...
	Starting second half-transformation.
	Two-electron integral transformation complete.
	(VV|VV)...
	Starting second half-transformation.
	Two-electron integral transformation complete.
	Frozen core energy     =   -341.78913114864207

	Size of irrep 0 of <ab|cd> integrals:      5.655 (MW) /     45.239 (MB)
	Size of irrep 1 of <ab|cd> integrals:      3.445 (MW) /     27.558 (MB)
	Size of irrep 2 of <ab|cd> integrals:      3.709 (MW) /     29.676 (MB)
	Size of irrep 3 of <ab|cd> integrals:      5.308 (MW) /     42.467 (MB)
	Total:                                    18.118 (MW) /    144.940 (MB)

	Size of irrep 0 of <ia|bc> integrals:      0.269 (MW) /      2.150 (MB)
	Size of irrep 1 of <ia|bc> integrals:      0.132 (MW) /      1.054 (MB)
	Size of irrep 2 of <ia|bc> integrals:      0.160 (MW) /      1.279 (MB)
	Size of irrep 3 of <ia|bc> integrals:      0.233 (MW) /      1.862 (MB)
	Total:                                     0.793 (MW) /      6.344 (MB)

	Size of irrep 0 of tijab amplitudes:       0.014 (MW) /      0.114 (MB)
	Size of irrep 1 of tijab amplitudes:       0.004 (MW) /      0.030 (MB)
	Size of irrep 2 of tijab amplitudes:       0.008 (MW) /      0.062 (MB)
	Size of irrep 3 of tijab amplitudes:       0.009 (MW) /      0.074 (MB)
	Total:                                     0.035 (MW) /      0.279 (MB)

	Nuclear Rep. energy          =     11.40017654464496
	SCF energy                   =   -341.89105470439853
	One-electron energy          =    -20.92338163159594
	Two-electron energy          =      9.42128153119473
	Reference energy             =   -341.89105470439830

*** tstop() called on cqc01 at Fri Apr 26 19:06:25 2019
Module time:
	user time   =       1.14 seconds =       0.02 minutes
	system time =       0.61 seconds =       0.01 minutes
	total time  =          9 seconds =       0.15 minutes
Total time:
	user time   =       3.62 seconds =       0.06 minutes
	system time =       2.21 seconds =       0.04 minutes
	total time  =         13 seconds =       0.22 minutes

*** tstart() called on cqc01
*** at Fri Apr 26 19:06:25 2019

            **************************
            *                        *
            *        CCENERGY        *
            *                        *
            **************************

    Nuclear Rep. energy (wfn)     =   11.400176544644962
    SCF energy          (wfn)     = -341.891054704398528
    Reference energy    (file100) = -341.891054704398300

    Input parameters:
    -----------------
    Wave function   =     CCSD
    Reference wfn   =     RHF
    Brueckner       =     No
    Memory (Mbytes) =     32000.0
    Maxiter         =     50
    R_Convergence   =     1.0e-07
    E_Convergence   =     1.0e-06
    Restart         =     Yes
    DIIS            =     Yes
    AO Basis        =     NONE
    ABCD            =     NEW
    Cache Level     =     2
    Cache Type      =     LOW
    Print Level     =     1
    Num. of threads =     1
    # Amps to Print =     10
    Print MP2 Amps? =     No
    Analyze T2 Amps =     No
    Print Pair Ener =     No
    Local CC        =     No
    SCS-MP2         =     False
    SCSN-MP2        =     False
    SCS-CCSD        =     False

MP2 correlation energy -0.1818097937500042
                Solving CC Amplitude Equations
                ------------------------------
  Iter             Energy              RMS        T1Diag      D1Diag    New D1Diag    D2Diag
  ----     ---------------------    ---------   ----------  ----------  ----------   --------
     0        -0.181809793749953    0.000e+00    0.000000    0.000000    0.000000    0.155749
     1        -0.223706647272360    2.057e-01    0.016881    0.027612    0.027612    0.201121
     2        -0.206840393796623    3.529e-02    0.012811    0.021537    0.021537    0.184279
     3        -0.205033148998368    6.870e-03    0.013203    0.022295    0.022295    0.182008
     4        -0.204842784527816    1.825e-03    0.013195    0.022266    0.022266    0.181531
     5        -0.204734671011691    6.334e-04    0.013233    0.022348    0.022348    0.181274
     6        -0.204722241263795    2.316e-04    0.013270    0.022403    0.022403    0.181203
     7        -0.204735390128118    9.050e-05    0.013291    0.022432    0.022432    0.181197
     8        -0.204736361430001    3.297e-05    0.013298    0.022443    0.022443    0.181196
     9        -0.204735731103534    1.141e-05    0.013300    0.022446    0.022446    0.181195
    10        -0.204735844840538    3.153e-06    0.013300    0.022447    0.022447    0.181196
    11        -0.204735869332100    1.107e-06    0.013300    0.022447    0.022447    0.181196
    12        -0.204735861661492    3.375e-07    0.013300    0.022447    0.022447    0.181196
    13        -0.204735858054498    1.194e-07    0.013300    0.022447    0.022447    0.181196
    14        -0.204735855635543    3.084e-08    0.013300    0.022447    0.022447    0.181196
    14        -0.204735855635543    3.084e-08    0.013300    0.022447    0.022447    0.181196

    Iterations converged.


    CCSD corr. energy   =   -0.204735855635543
    PPL corr. energy    =    0.062181100089210
    OS PPL corr. energy =    0.054005042789190
    SS PPL corr. energy =    0.008176057300019
    Largest TIA Amplitudes:
              2  48         0.0148608221
              1   3        -0.0123784613
              3  67         0.0120220914
              3  68        -0.0101133333
              1   4         0.0100677740
              1   9        -0.0093293586
              3  66         0.0082055047
              2  50        -0.0080969527
              3  70        -0.0073346475
              0   7         0.0065463348

    Largest TIjAb Amplitudes:
      2   2  47  47        -0.0594184002
      2   2   3   3        -0.0570772517
      1   1  10  10        -0.0435696020
      2   2  50  50        -0.0421583836
      1   1  67  67        -0.0415805523
      2   2  34  34        -0.0412654545
      2   2  48  48        -0.0398585043
      2   2  36  36        -0.0378234014
      2   2  51  51        -0.0364465405
      2   2  47  50         0.0341995952

    SCF energy       (wfn)                    = -341.891054704398528
    Reference energy (file100)                = -341.891054704398300

    Opposite-spin MP2 correlation energy      =   -0.146478608013449
    Same-spin MP2 correlation energy          =   -0.035331185736504
    MP2 correlation energy                    =   -0.181809793750004
      * MP2 total energy                      = -342.072864498148306

    Opposite-spin CCSD correlation energy     =   -0.169990635294892
    Same-spin CCSD correlation energy         =   -0.034745221384484
    CCSD correlation energy                   =   -0.204735855635543
      * CCSD total energy                     = -342.095790560033834


*** tstop() called on cqc01 at Fri Apr 26 19:06:34 2019
Module time:
	user time   =       1.60 seconds =       0.03 minutes
	system time =       4.51 seconds =       0.08 minutes
	total time  =          9 seconds =       0.15 minutes
Total time:
	user time   =       5.22 seconds =       0.09 minutes
	system time =       6.72 seconds =       0.11 minutes
	total time  =         22 seconds =       0.37 minutes

*** Psi4 exiting successfully. Buy a developer a beer!
