
    -----------------------------------------------------------------------
          Psi4: An Open-Source Ab Initio Electronic Structure Package
                               Psi4 1.2a1.dev939 

                         Git: Rev {HEAD} fa1ec19 


    R. M. Parrish, L. A. Burns, D. G. A. Smith, A. C. Simmonett,
    A. E. DePrince III, E. G. Hohenstein, U. Bozkaya, A. Yu. Sokolov,
    R. Di Remigio, R. M. Richard, J. F. Gonthier, A. M. James,
    H. R. McAlexander, A. Kumar, M. Saitow, X. Wang, B. P. Pritchard,
    P. Verma, H. F. Schaefer III, K. Patkowski, R. A. King, E. F. Valeev,
    F. A. Evangelista, J. M. Turney, T. D. Crawford, and C. D. Sherrill,
    J. Chem. Theory Comput. 13(7) pp 3185--3197 (2017).
    (doi: 10.1021/acs.jctc.7b00174)

    -----------------------------------------------------------------------


    Psi4 started on: Sunday, 28 April 2019 04:25PM

    Process ID:  15073
    PSIDATADIR: /home/grueneis/src/psi4/objdir/stage/usr/local/psi4/share/psi4
    Memory:     500.0 MiB
    Threads:    1
    
  ==> Input File <==

--------------------------------------------------------------------------
# Any line starting with the # character is a comment line

memory 32000 mb

molecule molecule {
-1 1
P          0.0000000000        0.0000000000        0.0604223492
H          0.0000000000        1.0258075143       -0.9283823155
H          0.0000000000       -1.0258075143       -0.9283823155
}

set {
  reference rhf
  basis aug-cc-pv(Q+d)z
  scf_type OUT_OF_CORE
  freeze_core true
}

energy('ccsd')
--------------------------------------------------------------------------

  Memory set to  29.802 GiB by Python driver.

*** tstart() called on cqc01
*** at Sun Apr 28 16:25:15 2019

   => Loading Basis Set <=

    Name: AUG-CC-PV(Q+D)Z
    Role: ORBITAL
    Keyword: BASIS
    atoms 1   entry P          line  1050 file /home/grueneis/src/psi4/objdir/stage/usr/local/psi4/share/psi4/basis/aug-cc-pv_qpd_z.gbs 
    atoms 2-3 entry H          line    56 file /home/grueneis/src/psi4/objdir/stage/usr/local/psi4/share/psi4/basis/aug-cc-pv_qpd_z.gbs 


         ---------------------------------------------------------
                                   SCF
            by Justin Turney, Rob Parrish, Andy Simmonett
                             and Daniel Smith
                              RHF Reference
                        1 Threads,  30517 MiB Core
         ---------------------------------------------------------

  ==> Geometry <==

    Molecular point group: c2v
    Full point group: C2v

    Geometry (in Angstrom), charge = -1, multiplicity = 1:

       Center              X                  Y                   Z               Mass       
    ------------   -----------------  -----------------  -----------------  -----------------
           P          0.000000000000     0.000000000000     0.060415875383    30.973761629000
           H         -0.000000000000     1.025807514300    -0.928388789317     1.007825032070
           H          0.000000000000    -1.025807514300    -0.928388789317     1.007825032070

  Running in c2v symmetry.

  Rotational constants: A =      9.11047  B =      7.94785  C =      4.24477 [cm^-1]
  Rotational constants: A = 273125.13266  B = 238270.51703  C = 127255.02576 [MHz]
  Nuclear repulsion =   11.400176544644962

  Charge       = -1
  Multiplicity = 1
  Electrons    = 18
  Nalpha       = 9
  Nbeta        = 9

  ==> Algorithm <==

  SCF Algorithm Type is OUT_OF_CORE.
  DIIS enabled.
  MOM disabled.
  Fractional occupation disabled.
  Guess Type is SAD.
  Energy threshold   = 1.00e-08
  Density threshold  = 1.00e-08
  Integral threshold = 0.00e+00

  ==> Primary Basis <==

  Basis Set: AUG-CC-PV(Q+D)Z
    Blend: AUG-CC-PV(Q+D)Z
    Number of shells: 51
    Number of basis function: 181
    Number of Cartesian functions: 225
    Spherical Harmonics?: true
    Max angular momentum: 4

  ==> Pre-Iterations <==

   -------------------------------------------------------
    Irrep   Nso     Nmo     Nalpha   Nbeta   Ndocc  Nsocc
   -------------------------------------------------------
     A1        65      65       0       0       0       0
     A2        28      28       0       0       0       0
     B1        37      37       0       0       0       0
     B2        51      51       0       0       0       0
   -------------------------------------------------------
    Total     181     181       9       9       9       0
   -------------------------------------------------------

  ==> Integral Setup <==

  ==> DiskJK: Disk-Based J/K Matrices <==

    J tasked:                  Yes
    K tasked:                  Yes
    wK tasked:                  No
    Memory (MB):             22888
    Schwarz Cutoff:          1E-12

  Minimum eigenvalue in the overlap matrix is 5.2492240199E-05.
  Using Symmetric Orthogonalization.

  SCF Guess: Superposition of Atomic Densities via on-the-fly atomic UHF.

  ==> Iterations <==

                        Total Energy        Delta E     RMS |[F,P]|

   @RHF iter   0:  -353.69269459153628   -3.53693e+02   1.32462e-02 
    Occupation by irrep:
             A1    A2    B1    B2 
    DOCC [     5,    0,    2,    2 ]

   @RHF iter   1:  -341.14515056296847    1.25475e+01   1.09574e-02 
   @RHF iter   2:  -341.60552320456480   -4.60373e-01   6.97410e-03 DIIS
   @RHF iter   3:  -341.88129581596331   -2.75773e-01   1.02192e-03 DIIS
   @RHF iter   4:  -341.89323438727536   -1.19386e-02   2.84798e-04 DIIS
   @RHF iter   5:  -341.89389315545020   -6.58768e-04   7.74152e-05 DIIS
   @RHF iter   6:  -341.89403561167074   -1.42456e-04   3.38166e-05 DIIS
   @RHF iter   7:  -341.89406094966836   -2.53380e-05   1.11926e-05 DIIS
   @RHF iter   8:  -341.89406322804359   -2.27838e-06   1.66302e-06 DIIS
   @RHF iter   9:  -341.89406330618067   -7.81371e-08   3.74385e-07 DIIS
   @RHF iter  10:  -341.89406330932752   -3.14685e-09   9.20937e-08 DIIS
   @RHF iter  11:  -341.89406330949333   -1.65812e-10   1.52683e-08 DIIS
   @RHF iter  12:  -341.89406330949885   -5.51381e-12   2.97793e-09 DIIS

  ==> Post-Iterations <==

    Orbital Energies (a.u.)
    -----------------------

    Doubly Occupied:                                                      

       1A1   -79.676076     2A1    -7.217866     1B2    -5.112085  
       3A1    -5.111316     1B1    -5.110685     4A1    -0.560827  
       2B2    -0.270428     5A1    -0.165273     2B1    -0.045187  

    Virtual:                                                              

       6A1     0.140372     3B2     0.153093     7A1     0.192104  
       4B2     0.208670     3B1     0.214482     8A1     0.271588  
       9A1     0.302970     5B2     0.319459     1A2     0.321957  
      10A1     0.322593     4B1     0.323491     6B2     0.378224  
      11A1     0.391268     7B2     0.396305    12A1     0.412029  
       2A2     0.420951     5B1     0.430364     8B2     0.446030  
      13A1     0.462661    14A1     0.572486     6B1     0.594523  
       9B2     0.598554    15A1     0.618943     7B1     0.620264  
      16A1     0.639081     3A2     0.644680     8B1     0.650589  
      10B2     0.685235    17A1     0.691053    11B2     0.704522  
      12B2     0.727859     9B1     0.737457    18A1     0.740479  
       4A2     0.741621    19A1     0.855458    20A1     0.873716  
      13B2     0.875020     5A2     0.923259    10B1     0.935607  
      14B2     0.947320    21A1     0.978182    22A1     0.985778  
      11B1     0.995996     6A2     1.014195    23A1     1.094522  
      15B2     1.100468    16B2     1.130079    17B2     1.283444  
       7A2     1.295651    24A1     1.302931    12B1     1.312102  
      25A1     1.320343    18B2     1.388247    26A1     1.439558  
      13B1     1.439983     8A2     1.440064    14B1     1.499370  
      27A1     1.509855    19B2     1.532369    28A1     1.558375  
      15B1     1.581474    29A1     1.604425     9A2     1.610904  
      16B1     1.621575    20B2     1.631609    21B2     1.653480  
      10A2     1.655272    30A1     1.702729    17B1     1.710860  
      31A1     1.752031    32A1     1.829488    18B1     1.887188  
      11A2     1.902095    22B2     1.931493    19B1     1.957372  
      23B2     1.980238    33A1     1.988525    24B2     2.037278  
      34A1     2.037319    25B2     2.106194    35A1     2.177822  
      12A2     2.186807    26B2     2.280856    20B1     2.292435  
      36A1     2.307307    27B2     2.323468    13A2     2.323882  
      21B1     2.407768    37A1     2.426751    14A2     2.438915  
      28B2     2.475343    38A1     2.509202    29B2     2.604277  
      39A1     2.719924    15A2     2.805906    22B1     2.840795  
      40A1     2.864833    16A2     2.946645    30B2     2.963299  
      41A1     3.002117    23B1     3.059822    17A2     3.150295  
      42A1     3.153053    31B2     3.192694    24B1     3.220980  
      25B1     3.350261    43A1     3.379208    32B2     3.417278  
      44A1     3.417473    33B2     3.450319    26B1     3.450921  
      18A2     3.495073    45A1     3.506905    34B2     3.540049  
      46A1     3.668493    47A1     3.689149    19A2     3.765361  
      35B2     3.767355    27B1     3.782185    20A2     3.838632  
      28B1     3.870982    36B2     3.910999    48A1     3.942342  
      49A1     4.222925    37B2     4.255431    29B1     4.347661  
      50A1     4.458946    38B2     4.484590    21A2     4.595655  
      51A1     4.715682    39B2     4.774944    30B1     6.341042  
      31B1     6.870124    40B2     6.878639    22A2     6.921195  
      52A1     6.929617    41B2     6.996169    53A1     7.028355  
      23A2     7.104677    32B1     7.210510    54A1     7.264080  
      42B2     7.266430    24A2     7.325202    33B1     7.345930  
      43B2     7.469760    55A1     7.577768    56A1     7.593514  
      44B2     7.837017    34B1     8.132001    25A2     8.155430  
      57A1     8.258092    58A1     8.295072    45B2     8.461771  
      59A1     8.472531    46B2     8.786766    26A2     8.806591  
      27A2     8.846896    35B1     8.854064    60A1     8.886526  
      47B2     8.913464    36B1     8.966643    61A1     9.039351  
      48B2     9.223246    28A2     9.518372    37B1     9.562766  
      49B2     9.657012    62A1     9.682330    63A1     9.957000  
      50B2     9.984413    64A1    10.573843    51B2    11.632968  
      65A1    17.357815  

    Final Occupation by Irrep:
             A1    A2    B1    B2 
    DOCC [     5,    0,    2,    2 ]

  Energy converged.

  @RHF Final Energy:  -341.89406330949885

   => Energetics <=

    Nuclear Repulsion Energy =             11.4001765446449621
    One-Electron Energy =                -500.0489986780235654
    Two-Electron Energy =                 146.7547588238797402
    Total Energy =                       -341.8940633094988470



Properties will be evaluated at   0.000000,   0.000000,   0.000000 Bohr

Properties computed using the SCF density matrix

  Nuclear Dipole Moment: (a.u.)
     X:     0.0000      Y:     0.0000      Z:    -1.7963

  Electronic Dipole Moment: (a.u.)
     X:     0.0000      Y:     0.0000      Z:     1.6562

  Dipole Moment: (a.u.)
     X:     0.0000      Y:     0.0000      Z:    -0.1400     Total:     0.1400

  Dipole Moment: (Debye)
     X:     0.0000      Y:     0.0000      Z:    -0.3559     Total:     0.3559


*** tstop() called on cqc01 at Sun Apr 28 16:25:39 2019
Module time:
	user time   =      13.04 seconds =       0.22 minutes
	system time =       3.56 seconds =       0.06 minutes
	total time  =         24 seconds =       0.40 minutes
Total time:
	user time   =      13.04 seconds =       0.22 minutes
	system time =       3.56 seconds =       0.06 minutes
	total time  =         24 seconds =       0.40 minutes

*** tstart() called on cqc01
*** at Sun Apr 28 16:25:39 2019


	Wfn Parameters:
	--------------------
	Wavefunction         = CCSD
	Number of irreps     = 4
	Number of MOs        = 181
	Number of active MOs = 176
	AO-Basis             = NONE
	Semicanonical        = false
	Reference            = RHF
	Print Level          = 1

	IRREP	# MOs	# FZDC	# DOCC	# SOCC	# VIRT	# FZVR
	-----	-----	------	------	------	------	------
	 A1	   65	    3	    2	    0	    60	    0
	 A2	   28	    0	    0	    0	    28	    0
	 B1	   37	    1	    1	    0	    35	    0
	 B2	   51	    1	    1	    0	    49	    0
	Transforming integrals...
	IWL integrals will be deleted.
	(OO|OO)...
	Presorting SO-basis two-electron integrals.
	Sorting File: SO Ints (nn|nn) nbuckets = 1
	Transforming the one-electron integrals and constructing Fock matrices
	Starting first half-transformation.
	Sorting half-transformed integrals.
	First half integral transformation complete.
	Starting second half-transformation.
	Two-electron integral transformation complete.
	(OO|OV)...
	Starting second half-transformation.
	Two-electron integral transformation complete.
	(OO|VV)...
	Starting second half-transformation.
	Two-electron integral transformation complete.
	(OV|OO)...
	Starting first half-transformation.
	Sorting half-transformed integrals.
	First half integral transformation complete.
	Starting second half-transformation.
	Two-electron integral transformation complete.
	(OV|OV)...
	Starting second half-transformation.
	Two-electron integral transformation complete.
	(OV|VV)...
	Starting second half-transformation.
	Two-electron integral transformation complete.
	(VV|OO)...
	Starting first half-transformation.
	Sorting half-transformed integrals.
	First half integral transformation complete.
	Starting second half-transformation.
	Two-electron integral transformation complete.
	(VV|OV)...
	Starting second half-transformation.
	Two-electron integral transformation complete.
	(VV|VV)...
	Starting second half-transformation.
	Two-electron integral transformation complete.
	Frozen core energy     =   -341.79103825346851

	Size of irrep 0 of <ab|cd> integrals:     64.160 (MW) /    513.281 (MB)
	Size of irrep 1 of <ab|cd> integrals:     46.104 (MW) /    368.833 (MB)
	Size of irrep 2 of <ab|cd> integrals:     48.219 (MW) /    385.753 (MB)
	Size of irrep 3 of <ab|cd> integrals:     61.466 (MW) /    491.725 (MB)
	Total:                                   219.949 (MW) /   1759.591 (MB)

	Size of irrep 0 of <ia|bc> integrals:      1.634 (MW) /     13.072 (MB)
	Size of irrep 1 of <ia|bc> integrals:      0.951 (MW) /      7.605 (MB)
	Size of irrep 2 of <ia|bc> integrals:      1.097 (MW) /      8.777 (MB)
	Size of irrep 3 of <ia|bc> integrals:      1.458 (MW) /     11.666 (MB)
	Total:                                     5.140 (MW) /     41.120 (MB)

	Size of irrep 0 of tijab amplitudes:       0.048 (MW) /      0.384 (MB)
	Size of irrep 1 of tijab amplitudes:       0.014 (MW) /      0.109 (MB)
	Size of irrep 2 of tijab amplitudes:       0.028 (MW) /      0.222 (MB)
	Size of irrep 3 of tijab amplitudes:       0.031 (MW) /      0.251 (MB)
	Total:                                     0.121 (MW) /      0.966 (MB)

	Nuclear Rep. energy          =     11.40017654464496
	SCF energy                   =   -341.89406330949885
	One-electron energy          =    -20.92297393505537
	Two-electron energy          =      9.41977233438116
	Reference energy             =   -341.89406330949777

*** tstop() called on cqc01 at Sun Apr 28 16:29:30 2019
Module time:
	user time   =      13.54 seconds =       0.23 minutes
	system time =       6.85 seconds =       0.11 minutes
	total time  =        231 seconds =       3.85 minutes
Total time:
	user time   =      26.58 seconds =       0.44 minutes
	system time =      10.41 seconds =       0.17 minutes
	total time  =        255 seconds =       4.25 minutes

*** tstart() called on cqc01
*** at Sun Apr 28 16:29:30 2019

            **************************
            *                        *
            *        CCENERGY        *
            *                        *
            **************************

    Nuclear Rep. energy (wfn)     =   11.400176544644962
    SCF energy          (wfn)     = -341.894063309498847
    Reference energy    (file100) = -341.894063309497767

    Input parameters:
    -----------------
    Wave function   =     CCSD
    Reference wfn   =     RHF
    Brueckner       =     No
    Memory (Mbytes) =     32000.0
    Maxiter         =     50
    R_Convergence   =     1.0e-07
    E_Convergence   =     1.0e-06
    Restart         =     Yes
    DIIS            =     Yes
    AO Basis        =     NONE
    ABCD            =     NEW
    Cache Level     =     2
    Cache Type      =     LOW
    Print Level     =     1
    Num. of threads =     1
    # Amps to Print =     10
    Print MP2 Amps? =     No
    Analyze T2 Amps =     No
    Print Pair Ener =     No
    Local CC        =     No
    SCS-MP2         =     False
    SCSN-MP2        =     False
    SCS-CCSD        =     False

MP2 correlation energy -0.1926848353306776
                Solving CC Amplitude Equations
                ------------------------------
  Iter             Energy              RMS        T1Diag      D1Diag    New D1Diag    D2Diag
  ----     ---------------------    ---------   ----------  ----------  ----------   --------
     0        -0.192684835330595    0.000e+00    0.000000    0.000000    0.000000    0.157856
     1        -0.228896522458298    2.184e-01    0.017879    0.027584    0.027584    0.197975
     2        -0.215539458746974    3.535e-02    0.013178    0.021094    0.021094    0.184284
     3        -0.213027134059688    8.198e-03    0.013699    0.021977    0.021977    0.181183
     4        -0.212795891998995    2.137e-03    0.013715    0.021955    0.021955    0.180667
     5        -0.212703056335833    7.800e-04    0.013765    0.022036    0.022036    0.180397
     6        -0.212681620632780    3.153e-04    0.013820    0.022098    0.022098    0.180303
     7        -0.212692957419783    1.303e-04    0.013854    0.022134    0.022134    0.180287
     8        -0.212697054732755    4.711e-05    0.013863    0.022144    0.022144    0.180290
     9        -0.212696128583704    1.720e-05    0.013867    0.022147    0.022147    0.180290
    10        -0.212696065415070    4.646e-06    0.013867    0.022147    0.022147    0.180291
    11        -0.212696132687783    1.768e-06    0.013867    0.022146    0.022146    0.180291
    12        -0.212696122208147    6.563e-07    0.013867    0.022146    0.022146    0.180291
    13        -0.212696123766914    2.154e-07    0.013867    0.022146    0.022146    0.180291
    14        -0.212696119424987    6.932e-08    0.013867    0.022146    0.022146    0.180291
    14        -0.212696119424987    6.932e-08    0.013867    0.022146    0.022146    0.180291

    Iterations converged.


    CCSD corr. energy   =   -0.212696119424987
    PPL corr. energy    =    0.067852681204084
    OS PPL corr. energy =    0.059335473991287
    SS PPL corr. energy =    0.008517207212793
    Largest TIA Amplitudes:
              2  89        -0.0130537512
              3 126         0.0106219475
              2  91         0.0102082717
              1   9        -0.0100032211
              1   4         0.0093879679
              2  88        -0.0085940728
              3 127        -0.0085514065
              3 125         0.0083944038
              1   3        -0.0080935108
              2  93         0.0080021708

    Largest TIjAb Amplitudes:
      2   2  91  91        -0.0475289844
      2   2  88  88        -0.0471308428
      2   2   4   4        -0.0425139941
      2   2  10  10        -0.0409046638
      2   2  62  62        -0.0396903764
      2   2  88  91         0.0367457788
      2   2  91  88         0.0367457788
      2   2  93  93        -0.0362807423
      2   2   4  10         0.0322242306
      2   2  10   4         0.0322242306

    SCF energy       (wfn)                    = -341.894063309498847
    Reference energy (file100)                = -341.894063309497767

    Opposite-spin MP2 correlation energy      =   -0.156556806599110
    Same-spin MP2 correlation energy          =   -0.036128028731484
    MP2 correlation energy                    =   -0.192684835330678
      * MP2 total energy                      = -342.086748144828448

    Opposite-spin CCSD correlation energy     =   -0.177281294802648
    Same-spin CCSD correlation energy         =   -0.035414825712587
    CCSD correlation energy                   =   -0.212696119424987
      * CCSD total energy                     = -342.106759428922771


*** tstop() called on cqc01 at Sun Apr 28 16:29:53 2019
Module time:
	user time   =       5.12 seconds =       0.09 minutes
	system time =      10.57 seconds =       0.18 minutes
	total time  =         23 seconds =       0.38 minutes
Total time:
	user time   =      31.70 seconds =       0.53 minutes
	system time =      20.98 seconds =       0.35 minutes
	total time  =        278 seconds =       4.63 minutes

*** Psi4 exiting successfully. Buy a developer a beer!
