
    -----------------------------------------------------------------------
          Psi4: An Open-Source Ab Initio Electronic Structure Package
                               Psi4 1.2a1.dev939 

                         Git: Rev {HEAD} fa1ec19 


    R. M. Parrish, L. A. Burns, D. G. A. Smith, A. C. Simmonett,
    A. E. DePrince III, E. G. Hohenstein, U. Bozkaya, A. Yu. Sokolov,
    R. Di Remigio, R. M. Richard, J. F. Gonthier, A. M. James,
    H. R. McAlexander, A. Kumar, M. Saitow, X. Wang, B. P. Pritchard,
    P. Verma, H. F. Schaefer III, K. Patkowski, R. A. King, E. F. Valeev,
    F. A. Evangelista, J. M. Turney, T. D. Crawford, and C. D. Sherrill,
    J. Chem. Theory Comput. 13(7) pp 3185--3197 (2017).
    (doi: 10.1021/acs.jctc.7b00174)

    -----------------------------------------------------------------------


    Psi4 started on: Friday, 26 April 2019 03:40PM

    Process ID:  14601
    PSIDATADIR: /home/grueneis/src/psi4/objdir/stage/usr/local/psi4/share/psi4
    Memory:     500.0 MiB
    Threads:    1
    
  ==> Input File <==

--------------------------------------------------------------------------
# Any line starting with the # character is a comment line

memory 32000 mb

molecule molecule {
-1 1
P          0.0000000000        0.0000000000        0.0604223492
H          0.0000000000        1.0258075143       -0.9283823155
H          0.0000000000       -1.0258075143       -0.9283823155
}

set {
  reference rhf
  basis aug-cc-pv(D+d)z
  scf_type OUT_OF_CORE
  freeze_core true
}

energy('ccsd')
--------------------------------------------------------------------------

  Memory set to  29.802 GiB by Python driver.

*** tstart() called on cqc01
*** at Fri Apr 26 15:40:45 2019

   => Loading Basis Set <=

    Name: AUG-CC-PV(D+D)Z
    Role: ORBITAL
    Keyword: BASIS
    atoms 1   entry P          line   656 file /home/grueneis/src/psi4/objdir/stage/usr/local/psi4/share/psi4/basis/aug-cc-pv_dpd_z.gbs 
    atoms 2-3 entry H          line    56 file /home/grueneis/src/psi4/objdir/stage/usr/local/psi4/share/psi4/basis/aug-cc-pv_dpd_z.gbs 


         ---------------------------------------------------------
                                   SCF
            by Justin Turney, Rob Parrish, Andy Simmonett
                             and Daniel Smith
                              RHF Reference
                        1 Threads,  30517 MiB Core
         ---------------------------------------------------------

  ==> Geometry <==

    Molecular point group: c2v
    Full point group: C2v

    Geometry (in Angstrom), charge = -1, multiplicity = 1:

       Center              X                  Y                   Z               Mass       
    ------------   -----------------  -----------------  -----------------  -----------------
           P          0.000000000000     0.000000000000     0.060415875383    30.973761629000
           H         -0.000000000000     1.025807514300    -0.928388789317     1.007825032070
           H          0.000000000000    -1.025807514300    -0.928388789317     1.007825032070

  Running in c2v symmetry.

  Rotational constants: A =      9.11047  B =      7.94785  C =      4.24477 [cm^-1]
  Rotational constants: A = 273125.13266  B = 238270.51703  C = 127255.02576 [MHz]
  Nuclear repulsion =   11.400176544644962

  Charge       = -1
  Multiplicity = 1
  Electrons    = 18
  Nalpha       = 9
  Nbeta        = 9

  ==> Algorithm <==

  SCF Algorithm Type is OUT_OF_CORE.
  DIIS enabled.
  MOM disabled.
  Fractional occupation disabled.
  Guess Type is SAD.
  Energy threshold   = 1.00e-08
  Density threshold  = 1.00e-08
  Integral threshold = 0.00e+00

  ==> Primary Basis <==

  Basis Set: AUG-CC-PV(D+D)Z
    Blend: AUG-CC-PV(D+D)Z
    Number of shells: 22
    Number of basis function: 50
    Number of Cartesian functions: 53
    Spherical Harmonics?: true
    Max angular momentum: 2

  ==> Pre-Iterations <==

   -------------------------------------------------------
    Irrep   Nso     Nmo     Nalpha   Nbeta   Ndocc  Nsocc
   -------------------------------------------------------
     A1        22      22       0       0       0       0
     A2         5       5       0       0       0       0
     B1         9       9       0       0       0       0
     B2        14      14       0       0       0       0
   -------------------------------------------------------
    Total      50      50       9       9       9       0
   -------------------------------------------------------

  ==> Integral Setup <==

  ==> DiskJK: Disk-Based J/K Matrices <==

    J tasked:                  Yes
    K tasked:                  Yes
    wK tasked:                  No
    Memory (MB):             22888
    Schwarz Cutoff:          1E-12

  Minimum eigenvalue in the overlap matrix is 6.0456853382E-04.
  Using Symmetric Orthogonalization.

  SCF Guess: Superposition of Atomic Densities via on-the-fly atomic UHF.

  ==> Iterations <==

                        Total Energy        Delta E     RMS |[F,P]|

   @RHF iter   0:  -353.67004012899258   -3.53670e+02   4.33012e-02 
   @RHF iter   1:  -341.59600220100486    1.20740e+01   2.63305e-02 
   @RHF iter   2:  -341.83501223622034   -2.39010e-01   9.06446e-03 DIIS
   @RHF iter   3:  -341.87936430188159   -4.43521e-02   7.22826e-04 DIIS
   @RHF iter   4:  -341.88003460145973   -6.70300e-04   2.43595e-04 DIIS
   @RHF iter   5:  -341.88012304597703   -8.84445e-05   8.41536e-05 DIIS
   @RHF iter   6:  -341.88013749940779   -1.44534e-05   2.39869e-05 DIIS
   @RHF iter   7:  -341.88013884382474   -1.34442e-06   3.90809e-06 DIIS
   @RHF iter   8:  -341.88013888091177   -3.70870e-08   1.00515e-06 DIIS
   @RHF iter   9:  -341.88013888342016   -2.50839e-09   1.19042e-07 DIIS
   @RHF iter  10:  -341.88013888344756   -2.73985e-11   1.40256e-08 DIIS
   @RHF iter  11:  -341.88013888344807   -5.11591e-13   2.77913e-09 DIIS

  ==> Post-Iterations <==

    Orbital Energies (a.u.)
    -----------------------

    Doubly Occupied:                                                      

       1A1   -79.683070     2A1    -7.222348     1B2    -5.117045  
       3A1    -5.116039     1B1    -5.114610     4A1    -0.561382  
       2B2    -0.269211     5A1    -0.164298     2B1    -0.044047  

    Virtual:                                                              

       6A1     0.167309     3B2     0.197807     7A1     0.252741  
       4B2     0.259110     3B1     0.277738     8A1     0.339166  
       5B2     0.420782     9A1     0.441810    10A1     0.481333  
       1A2     0.496414     4B1     0.500383     6B2     0.597590  
      11A1     0.612763     7B2     0.674705    12A1     0.686927  
       2A2     0.691352     5B1     0.703952    13A1     0.759306  
       8B2     0.802451     6B1     0.995925    14A1     1.009156  
      15A1     1.040741     9B2     1.064802    16A1     1.106848  
       3A2     1.117000     7B1     1.124941    10B2     1.187552  
      17A1     1.318491    11B2     1.450905    18A1     1.546903  
      12B2     2.037021     4A2     2.112140     8B1     2.158922  
      19A1     2.224647    20A1     2.543338    13B2     2.580288  
       5A2     4.646133     9B1     4.650795    21A1     4.669617  
      22A1     4.679861    14B2     4.763455  

    Final Occupation by Irrep:
             A1    A2    B1    B2 
    DOCC [     5,    0,    2,    2 ]

  Energy converged.

  @RHF Final Energy:  -341.88013888344807

   => Energetics <=

    Nuclear Repulsion Energy =             11.4001765446449621
    One-Electron Energy =                -499.9765343574634358
    Two-Electron Energy =                 146.6962189293703602
    Total Energy =                       -341.8801388834481259



Properties will be evaluated at   0.000000,   0.000000,   0.000000 Bohr

Properties computed using the SCF density matrix

  Nuclear Dipole Moment: (a.u.)
     X:     0.0000      Y:     0.0000      Z:    -1.7963

  Electronic Dipole Moment: (a.u.)
     X:     0.0000      Y:     0.0000      Z:     1.6416

  Dipole Moment: (a.u.)
     X:     0.0000      Y:     0.0000      Z:    -0.1546     Total:     0.1546

  Dipole Moment: (Debye)
     X:     0.0000      Y:     0.0000      Z:    -0.3930     Total:     0.3930


*** tstop() called on cqc01 at Fri Apr 26 15:40:47 2019
Module time:
	user time   =       0.56 seconds =       0.01 minutes
	system time =       0.41 seconds =       0.01 minutes
	total time  =          2 seconds =       0.03 minutes
Total time:
	user time   =       0.56 seconds =       0.01 minutes
	system time =       0.41 seconds =       0.01 minutes
	total time  =          2 seconds =       0.03 minutes

*** tstart() called on cqc01
*** at Fri Apr 26 15:40:47 2019


	Wfn Parameters:
	--------------------
	Wavefunction         = CCSD
	Number of irreps     = 4
	Number of MOs        = 50
	Number of active MOs = 45
	AO-Basis             = NONE
	Semicanonical        = false
	Reference            = RHF
	Print Level          = 1

	IRREP	# MOs	# FZDC	# DOCC	# SOCC	# VIRT	# FZVR
	-----	-----	------	------	------	------	------
	 A1	   22	    3	    2	    0	    17	    0
	 A2	   5	    0	    0	    0	    5	    0
	 B1	   9	    1	    1	    0	    7	    0
	 B2	   14	    1	    1	    0	    12	    0
	Transforming integrals...
	IWL integrals will be deleted.
	(OO|OO)...
	Presorting SO-basis two-electron integrals.
	Sorting File: SO Ints (nn|nn) nbuckets = 1
	Transforming the one-electron integrals and constructing Fock matrices
	Starting first half-transformation.
	Sorting half-transformed integrals.
	First half integral transformation complete.
	Starting second half-transformation.
	Two-electron integral transformation complete.
	(OO|OV)...
	Starting second half-transformation.
	Two-electron integral transformation complete.
	(OO|VV)...
	Starting second half-transformation.
	Two-electron integral transformation complete.
	(OV|OO)...
	Starting first half-transformation.
	Sorting half-transformed integrals.
	First half integral transformation complete.
	Starting second half-transformation.
	Two-electron integral transformation complete.
	(OV|OV)...
	Starting second half-transformation.
	Two-electron integral transformation complete.
	(OV|VV)...
	Starting second half-transformation.
	Two-electron integral transformation complete.
	(VV|OO)...
	Starting first half-transformation.
	Sorting half-transformed integrals.
	First half integral transformation complete.
	Starting second half-transformation.
	Two-electron integral transformation complete.
	(VV|OV)...
	Starting second half-transformation.
	Two-electron integral transformation complete.
	(VV|VV)...
	Starting second half-transformation.
	Two-electron integral transformation complete.
	Frozen core energy     =   -341.78486322185279

	Size of irrep 0 of <ab|cd> integrals:      0.257 (MW) /      2.056 (MB)
	Size of irrep 1 of <ab|cd> integrals:      0.114 (MW) /      0.914 (MB)
	Size of irrep 2 of <ab|cd> integrals:      0.128 (MW) /      1.025 (MB)
	Size of irrep 3 of <ab|cd> integrals:      0.228 (MW) /      1.828 (MB)
	Total:                                     0.728 (MW) /      5.824 (MB)

	Size of irrep 0 of <ia|bc> integrals:      0.027 (MW) /      0.215 (MB)
	Size of irrep 1 of <ia|bc> integrals:      0.010 (MW) /      0.078 (MB)
	Size of irrep 2 of <ia|bc> integrals:      0.013 (MW) /      0.103 (MB)
	Size of irrep 3 of <ia|bc> integrals:      0.022 (MW) /      0.176 (MB)
	Total:                                     0.072 (MW) /      0.572 (MB)

	Size of irrep 0 of tijab amplitudes:       0.003 (MW) /      0.024 (MB)
	Size of irrep 1 of tijab amplitudes:       0.001 (MW) /      0.005 (MB)
	Size of irrep 2 of tijab amplitudes:       0.001 (MW) /      0.011 (MB)
	Size of irrep 3 of tijab amplitudes:       0.002 (MW) /      0.015 (MB)
	Total:                                     0.007 (MW) /      0.056 (MB)

	Nuclear Rep. energy          =     11.40017654464496
	SCF energy                   =   -341.88013888344807
	One-electron energy          =    -20.91302885318377
	Two-electron energy          =      9.41757664694380
	Reference energy             =   -341.88013888344778

*** tstop() called on cqc01 at Fri Apr 26 15:40:48 2019
Module time:
	user time   =       0.07 seconds =       0.00 minutes
	system time =       0.06 seconds =       0.00 minutes
	total time  =          1 seconds =       0.02 minutes
Total time:
	user time   =       0.63 seconds =       0.01 minutes
	system time =       0.47 seconds =       0.01 minutes
	total time  =          3 seconds =       0.05 minutes

*** tstart() called on cqc01
*** at Fri Apr 26 15:40:48 2019

            **************************
            *                        *
            *        CCENERGY        *
            *                        *
            **************************

    Nuclear Rep. energy (wfn)     =   11.400176544644962
    SCF energy          (wfn)     = -341.880138883448069
    Reference energy    (file100) = -341.880138883447785

    Input parameters:
    -----------------
    Wave function   =     CCSD
    Reference wfn   =     RHF
    Brueckner       =     No
    Memory (Mbytes) =     32000.0
    Maxiter         =     50
    R_Convergence   =     1.0e-07
    E_Convergence   =     1.0e-06
    Restart         =     Yes
    DIIS            =     Yes
    AO Basis        =     NONE
    ABCD            =     NEW
    Cache Level     =     2
    Cache Type      =     LOW
    Print Level     =     1
    Num. of threads =     1
    # Amps to Print =     10
    Print MP2 Amps? =     No
    Analyze T2 Amps =     No
    Print Pair Ener =     No
    Local CC        =     No
    SCS-MP2         =     False
    SCSN-MP2        =     False
    SCS-CCSD        =     False

MP2 correlation energy -0.1499100671894060
                Solving CC Amplitude Equations
                ------------------------------
  Iter             Energy              RMS        T1Diag      D1Diag    New D1Diag    D2Diag
  ----     ---------------------    ---------   ----------  ----------  ----------   --------
     0        -0.149910067189404    0.000e+00    0.000000    0.000000    0.000000    0.147522
     1        -0.194535087744770    1.802e-01    0.016298    0.029245    0.029245    0.199344
     2        -0.175505254423888    3.471e-02    0.013145    0.024466    0.024466    0.179498
     3        -0.174843498868222    5.169e-03    0.013131    0.024627    0.024627    0.178519
     4        -0.174647502813951    1.512e-03    0.013049    0.024434    0.024434    0.178119
     5        -0.174527471583439    4.756e-04    0.013053    0.024451    0.024451    0.177876
     6        -0.174528796692067    1.277e-04    0.013063    0.024470    0.024470    0.177840
     7        -0.174535157107866    4.543e-05    0.013068    0.024481    0.024481    0.177837
     8        -0.174533808224987    1.863e-05    0.013072    0.024488    0.024488    0.177834
     9        -0.174534187616313    6.196e-06    0.013073    0.024491    0.024491    0.177834
    10        -0.174534259918341    1.907e-06    0.013073    0.024492    0.024492    0.177835
    11        -0.174534259596107    5.651e-07    0.013073    0.024492    0.024492    0.177835
    12        -0.174534258148168    1.786e-07    0.013073    0.024492    0.024492    0.177835
    13        -0.174534254738937    5.350e-08    0.013073    0.024492    0.024492    0.177835
    13        -0.174534254738937    5.350e-08    0.013073    0.024492    0.024492    0.177835

    Iterations converged.


    CCSD corr. energy   =   -0.174534254738937
    PPL corr. energy    =    0.047984220876204
    OS PPL corr. energy =    0.041312171388995
    SS PPL corr. energy =    0.006672049487208
    Largest TIA Amplitudes:
              3  31         0.0136788933
              2  23        -0.0126252024
              1   4         0.0116900942
              3  30        -0.0113321891
              1   5         0.0109634629
              1   1        -0.0100616336
              1   3         0.0095423508
              3  32        -0.0072586630
              2  22        -0.0071826145
              3  37         0.0064657024

    Largest TIjAb Amplitudes:
      1   1  31  31        -0.0770622284
      2   2  22  22        -0.0762322205
      2   2   3   3        -0.0623242250
      2   2  17  17        -0.0555258612
      2   2  23  23        -0.0541028028
      3   3  31  31        -0.0507458936
      1   1   4   4        -0.0436145471
      1   2  31  17         0.0388865424
      2   1  17  31         0.0388865424
      3   3   3   3        -0.0362221790

    SCF energy       (wfn)                    = -341.880138883448069
    Reference energy (file100)                = -341.880138883447785

    Opposite-spin MP2 correlation energy      =   -0.119089188770082
    Same-spin MP2 correlation energy          =   -0.030820878419322
    MP2 correlation energy                    =   -0.149910067189406
      * MP2 total energy                      = -342.030048950637195

    Opposite-spin CCSD correlation energy     =   -0.144115666932010
    Same-spin CCSD correlation energy         =   -0.030418588343259
    CCSD correlation energy                   =   -0.174534254738937
      * CCSD total energy                     = -342.054673138186729


*** tstop() called on cqc01 at Fri Apr 26 15:40:50 2019
Module time:
	user time   =       0.48 seconds =       0.01 minutes
	system time =       1.10 seconds =       0.02 minutes
	total time  =          2 seconds =       0.03 minutes
Total time:
	user time   =       1.11 seconds =       0.02 minutes
	system time =       1.57 seconds =       0.03 minutes
	total time  =          5 seconds =       0.08 minutes

*** Psi4 exiting successfully. Buy a developer a beer!
