
    -----------------------------------------------------------------------
          Psi4: An Open-Source Ab Initio Electronic Structure Package
                               Psi4 1.2a1.dev938 

                         Git: Rev {HEAD} fc51d9a dirty


    R. M. Parrish, L. A. Burns, D. G. A. Smith, A. C. Simmonett,
    A. E. DePrince III, E. G. Hohenstein, U. Bozkaya, A. Yu. Sokolov,
    R. Di Remigio, R. M. Richard, J. F. Gonthier, A. M. James,
    H. R. McAlexander, A. Kumar, M. Saitow, X. Wang, B. P. Pritchard,
    P. Verma, H. F. Schaefer III, K. Patkowski, R. A. King, E. F. Valeev,
    F. A. Evangelista, J. M. Turney, T. D. Crawford, and C. D. Sherrill,
    J. Chem. Theory Comput. 13(7) pp 3185--3197 (2017).
    (doi: 10.1021/acs.jctc.7b00174)

    -----------------------------------------------------------------------


    Psi4 started on: Thursday, 20 August 2020 07:53PM

    Process ID: 422286
    PSIDATADIR: /home/irmler/Programs/psi4/beforeGrueneis3/stage/usr/local/psi4/share/psi4
    Memory:     500.0 MiB
    Threads:    4
    
  ==> Input File <==

--------------------------------------------------------------------------
# Any line starting with the # character is a comment line
memory 250000 mb
molecule molecule{
0 3
Si         0.0000000000        0.0000000000        0.0506089132
H          0.0000000000       -1.2654869206       -0.7050899024
H          0.0000000000        1.2654869206       -0.7050899024
}

set {
  reference uhf
  basis aug-cc-pv(d+d)z
  scf_type OUT_OF_CORE
  freeze_core true
}

energy('ccsd')
--------------------------------------------------------------------------

  Memory set to 232.831 GiB by Python driver.

*** tstart() called on cqc05
*** at Thu Aug 20 19:53:31 2020

   => Loading Basis Set <=

    Name: AUG-CC-PV(D+D)Z
    Role: ORBITAL
    Keyword: BASIS
    atoms 1   entry SI         line   588 file /home/irmler/Programs/psi4/beforeGrueneis3/stage/usr/local/psi4/share/psi4/basis/aug-cc-pv_dpd_z.gbs 
    atoms 2-3 entry H          line    56 file /home/irmler/Programs/psi4/beforeGrueneis3/stage/usr/local/psi4/share/psi4/basis/aug-cc-pv_dpd_z.gbs 


         ---------------------------------------------------------
                                   SCF
            by Justin Turney, Rob Parrish, Andy Simmonett
                             and Daniel Smith
                              UHF Reference
                        4 Threads, 238418 MiB Core
         ---------------------------------------------------------

  ==> Geometry <==

    Molecular point group: c2v
    Full point group: C2v

    Geometry (in Angstrom), charge = 0, multiplicity = 3:

       Center              X                  Y                   Z               Mass       
    ------------   -----------------  -----------------  -----------------  -----------------
          SI         -0.000000000000     0.000000000000     0.050786712546    27.976926532460
           H          0.000000000000    -1.265486920600    -0.704912103054     1.007825032070
           H         -0.000000000000     1.265486920600    -0.704912103054     1.007825032070

  Running in c2v symmetry.

  Rotational constants: A =     15.69993  B =      5.22235  C =      3.91881 [cm^-1]
  Rotational constants: A = 470671.98627  B = 156562.13590  C = 117483.10380 [MHz]
  Nuclear repulsion =   10.261613001010003

  Charge       = 0
  Multiplicity = 3
  Electrons    = 16
  Nalpha       = 9
  Nbeta        = 7

  ==> Algorithm <==

  SCF Algorithm Type is OUT_OF_CORE.
  DIIS enabled.
  MOM disabled.
  Fractional occupation disabled.
  Guess Type is GWH.
  Energy threshold   = 1.00e-08
  Density threshold  = 1.00e-08
  Integral threshold = 0.00e+00

  ==> Primary Basis <==

  Basis Set: AUG-CC-PV(D+D)Z
    Blend: AUG-CC-PV(D+D)Z
    Number of shells: 22
    Number of basis function: 50
    Number of Cartesian functions: 53
    Spherical Harmonics?: true
    Max angular momentum: 2

  ==> Pre-Iterations <==

   -------------------------------------------------------
    Irrep   Nso     Nmo     Nalpha   Nbeta   Ndocc  Nsocc
   -------------------------------------------------------
     A1        22      22       0       0       0       0
     A2         5       5       0       0       0       0
     B1         9       9       0       0       0       0
     B2        14      14       0       0       0       0
   -------------------------------------------------------
    Total      50      50       9       7       7       2
   -------------------------------------------------------

  ==> Integral Setup <==

  ==> DiskJK: Disk-Based J/K Matrices <==

    J tasked:                  Yes
    K tasked:                  Yes
    wK tasked:                  No
    Memory (MB):            178813
    Schwarz Cutoff:          1E-12

  Minimum eigenvalue in the overlap matrix is 1.3378243484E-03.
  Using Symmetric Orthogonalization.

  SCF Guess: Generalized Wolfsberg-Helmholtz.

  ==> Iterations <==

                        Total Energy        Delta E     RMS |[F,P]|

    Occupation by irrep:
             A1    A2    B1    B2 
    DOCC [     4,    0,    1,    2 ]
    SOCC [     2,    0,    0,    0 ]

   @UHF iter   1:  -283.65491217590659   -2.83655e+02   1.35660e-01 
    Occupation by irrep:
             A1    A2    B1    B2 
    DOCC [     4,    0,    1,    2 ]
    SOCC [     1,    0,    1,    0 ]

   @UHF iter   2:  -289.16492848462377   -5.51002e+00   4.10198e-02 DIIS
   @UHF iter   3:  -289.98604360438100   -8.21115e-01   8.03836e-03 DIIS
   @UHF iter   4:  -290.01215354086162   -2.61099e-02   1.97697e-03 DIIS
   @UHF iter   5:  -290.01533542457457   -3.18188e-03   6.22938e-04 DIIS
   @UHF iter   6:  -290.01567681935887   -3.41395e-04   1.77996e-04 DIIS
   @UHF iter   7:  -290.01570886831303   -3.20490e-05   5.57640e-05 DIIS
   @UHF iter   8:  -290.01571222054372   -3.35223e-06   2.26428e-05 DIIS
   @UHF iter   9:  -290.01571290760523   -6.87062e-07   7.03073e-06 DIIS
   @UHF iter  10:  -290.01571296840308   -6.07978e-08   2.08853e-06 DIIS
   @UHF iter  11:  -290.01571297436067   -5.95759e-09   7.68805e-07 DIIS
   @UHF iter  12:  -290.01571297522293   -8.62258e-10   1.84245e-07 DIIS
   @UHF iter  13:  -290.01571297526226   -3.93356e-11   4.44495e-08 DIIS
   @UHF iter  14:  -290.01571297526402   -1.76215e-12   1.00144e-08 DIIS
   @UHF iter  15:  -290.01571297526448   -4.54747e-13   2.38868e-09 DIIS

  ==> Post-Iterations <==

   @Spin Contamination Metric:   6.035207049E-03
   @S^2 Expected:                2.000000000E+00
   @S^2 Observed:                2.006035207E+00
   @S   Expected:                1.000000000E+00
   @S   Observed:                1.000000000E+00

    Orbital Energies (a.u.)
    -----------------------

    Alpha Occupied:                                                       

       1A1   -68.801469     2A1    -6.151218     1B1    -4.262573  
       3A1    -4.259116     1B2    -4.250888     4A1    -0.730754  
       2B2    -0.512366     5A1    -0.390489     2B1    -0.306030  

    Alpha Virtual:                                                        

       6A1     0.041388     3B2     0.059398     7A1     0.066352  
       3B1     0.075954     4B2     0.089192     8A1     0.126197  
       9A1     0.167771     5B2     0.180315    10A1     0.196028  
       4B1     0.196458     1A2     0.197442    11A1     0.341344  
       6B2     0.355600    12A1     0.362303     7B2     0.388756  
       8B2     0.440319     2A2     0.455136     5B1     0.465200  
      13A1     0.511005     6B1     0.520947    14A1     0.575173  
       9B2     0.634516     7B1     0.653017     3A2     0.670899  
      15A1     0.682646    16A1     0.710911    17A1     0.915100  
      10B2     0.949572    18A1     1.159351    11B2     1.271246  
      12B2     1.844394     8B1     1.891660     4A2     1.941046  
      19A1     2.015092    20A1     2.122108    13B2     2.297224  
       9B1     3.337521    21A1     3.345685     5A2     3.360067  
      14B2     3.429381    22A1     3.437878  

    Beta Occupied:                                                        

       1A1   -68.790425     2A1    -6.134612     1B2    -4.243745  
       3A1    -4.236875     1B1    -4.233789     4A1    -0.631873  
       2B2    -0.488446  

    Beta Virtual:                                                         

       5A1     0.013061     2B1     0.038241     6A1     0.046753  
       3B2     0.062078     7A1     0.088173     4B2     0.093239  
       3B1     0.130041     8A1     0.153303     9A1     0.195533  
       5B2     0.227389     1A2     0.232661    10A1     0.245030  
       4B1     0.248815    11A1     0.358022     6B2     0.363022  
      12A1     0.392398     7B2     0.406708     8B2     0.448473  
       2A2     0.469183     5B1     0.481014    13A1     0.525259  
       6B1     0.603250    14A1     0.644525     9B2     0.678222  
       3A2     0.723871    15A1     0.725425     7B1     0.733428  
      16A1     0.754154    17A1     0.950166    10B2     0.958085  
      18A1     1.176521    11B2     1.286570    12B2     1.853495  
       8B1     1.902824     4A2     1.953775    19A1     2.022889  
      20A1     2.134972    13B2     2.311380     9B1     3.351299  
      21A1     3.358897     5A2     3.369809    14B2     3.437437  
      22A1     3.445080  

    Final Occupation by Irrep:
             A1    A2    B1    B2 
    DOCC [     4,    0,    1,    2 ]
    SOCC [     1,    0,    1,    0 ]

  Energy converged.

  @UHF Final Energy:  -290.01571297526448

   => Energetics <=

    Nuclear Repulsion Energy =             10.2616130010100033
    One-Electron Energy =                -422.1299829779856054
    Two-Electron Energy =                 121.8526570017111510
    PCM Polarization Energy =               0.0000000000000000
    Total Energy =                       -290.0157129752644778

    Alert: EFP and PCM quantities not currently incorporated into SCF psivars.
  UHF NO Occupations:
  HONO-2 :    4 A1 1.9972158
  HONO-1 :    2 B1 1.0000000
  HONO-0 :    5 A1 1.0000000
  LUNO+0 :    6 A1 0.0027842
  LUNO+1 :    3 B2 0.0002343
  LUNO+2 :    7 A1 0.0000013
  LUNO+3 :    3 B1 0.0000011



Properties will be evaluated at   0.000000,   0.000000,   0.000000 Bohr

Properties computed using the SCF density matrix

  Nuclear Dipole Moment: (a.u.)
     X:     0.0000      Y:     0.0000      Z:    -1.3206

  Electronic Dipole Moment: (a.u.)
     X:     0.0000      Y:     0.0000      Z:     1.3439

  Dipole Moment: (a.u.)
     X:     0.0000      Y:     0.0000      Z:     0.0233     Total:     0.0233

  Dipole Moment: (Debye)
     X:     0.0000      Y:     0.0000      Z:     0.0593     Total:     0.0593


*** tstop() called on cqc05 at Thu Aug 20 19:53:31 2020
Module time:
	user time   =       0.75 seconds =       0.01 minutes
	system time =       0.02 seconds =       0.00 minutes
	total time  =          0 seconds =       0.00 minutes
Total time:
	user time   =       0.75 seconds =       0.01 minutes
	system time =       0.02 seconds =       0.00 minutes
	total time  =          0 seconds =       0.00 minutes

*** tstart() called on cqc05
*** at Thu Aug 20 19:53:31 2020


	Wfn Parameters:
	--------------------
	Wavefunction         = CCSD
	Number of irreps     = 4
	Number of MOs        = 50
	Number of active MOs = 45
	AO-Basis             = NONE
	Semicanonical        = false
	Reference            = UHF
	Print Level          = 1

	IRREP	# MOs	# FZDC	# DOCC	# SOCC	# VIRT	# FZVR
	-----	-----	------	------	------	------	------
	 A1	   22	    3	    1	    1	    17	    0
	 A2	   5	    0	    0	    0	    5	    0
	 B1	   9	    1	    0	    1	    7	    0
	 B2	   14	    1	    1	    0	    12	    0
	Transforming integrals...
	IWL integrals will be deleted.
	(OO|OO)...
	Presorting SO-basis two-electron integrals.
	Sorting File: SO Ints (nn|nn) nbuckets = 1
	Transforming the one-electron integrals and constructing Fock matrices
	Starting AA/AB first half-transformation.
	Sorting AA/AB half-transformed integrals.
	Starting BB first half-transformation.
	Sorting BB half-transformed integrals.
	First half integral transformation complete.
	Starting AA second half-transformation.
	Starting AB second half-transformation.
	Starting BB second half-transformation.
	Two-electron integral transformation complete.
	(OO|OV)...
	Starting AA second half-transformation.
	Starting AB second half-transformation.
	Starting BB second half-transformation.
	Two-electron integral transformation complete.
	(OO|VV)...
	Starting AA second half-transformation.
	Starting AB second half-transformation.
	Starting BB second half-transformation.
	Two-electron integral transformation complete.
	(OV|OO)...
	Starting AA/AB first half-transformation.
	Sorting AA/AB half-transformed integrals.
	Starting BB first half-transformation.
	Sorting BB half-transformed integrals.
	First half integral transformation complete.
	Starting AA second half-transformation.
	Starting AB second half-transformation.
	Starting BB second half-transformation.
	Two-electron integral transformation complete.
	(OV|OV)...
	Starting AA second half-transformation.
	Starting AB second half-transformation.
	Starting BB second half-transformation.
	Two-electron integral transformation complete.
	(OV|VV)...
	Starting AA second half-transformation.
	Starting AB second half-transformation.
	Starting BB second half-transformation.
	Two-electron integral transformation complete.
	(VV|OO)...
	Starting AA/AB first half-transformation.
	Sorting AA/AB half-transformed integrals.
	Starting BB first half-transformation.
	Sorting BB half-transformed integrals.
	First half integral transformation complete.
	Starting AA second half-transformation.
	Starting AB second half-transformation.
	Starting BB second half-transformation.
	Two-electron integral transformation complete.
	(VV|OV)...
	Starting AA second half-transformation.
	Starting AB second half-transformation.
	Starting BB second half-transformation.
	Two-electron integral transformation complete.
	(VV|VV)...
	Starting AA second half-transformation.
	Starting AB second half-transformation.
	Starting BB second half-transformation.
	Two-electron integral transformation complete.
	Frozen core energy     =   -292.35099125595730

	Size of irrep 0 of <AB|CD> integrals:      0.054 (MW) /      0.434 (MB)
	Size of irrep 1 of <AB|CD> integrals:      0.029 (MW) /      0.228 (MB)
	Size of irrep 2 of <AB|CD> integrals:      0.032 (MW) /      0.256 (MB)
	Size of irrep 3 of <AB|CD> integrals:      0.057 (MW) /      0.457 (MB)
	Total:                                     0.172 (MW) /      1.376 (MB)

	Size of irrep 0 of <ab|cd> integrals:      0.066 (MW) /      0.528 (MB)
	Size of irrep 1 of <ab|cd> integrals:      0.035 (MW) /      0.277 (MB)
	Size of irrep 2 of <ab|cd> integrals:      0.042 (MW) /      0.333 (MB)
	Size of irrep 3 of <ab|cd> integrals:      0.066 (MW) /      0.524 (MB)
	Total:                                     0.208 (MW) /      1.662 (MB)

	Size of irrep 0 of <Ab|Cd> integrals:      0.282 (MW) /      2.256 (MB)
	Size of irrep 1 of <Ab|Cd> integrals:      0.126 (MW) /      1.008 (MB)
	Size of irrep 2 of <Ab|Cd> integrals:      0.146 (MW) /      1.167 (MB)
	Size of irrep 3 of <Ab|Cd> integrals:      0.245 (MW) /      1.960 (MB)
	Total:                                     0.799 (MW) /      6.391 (MB)

	Size of irrep 0 of <IA|BC> integrals:      0.027 (MW) /      0.215 (MB)
	Size of irrep 1 of <IA|BC> integrals:      0.010 (MW) /      0.078 (MB)
	Size of irrep 2 of <IA|BC> integrals:      0.013 (MW) /      0.103 (MB)
	Size of irrep 3 of <IA|BC> integrals:      0.022 (MW) /      0.176 (MB)
	Total:                                     0.072 (MW) /      0.572 (MB)

	Size of irrep 0 of <ia|bc> integrals:      0.017 (MW) /      0.134 (MB)
	Size of irrep 1 of <ia|bc> integrals:      0.005 (MW) /      0.039 (MB)
	Size of irrep 2 of <ia|bc> integrals:      0.005 (MW) /      0.042 (MB)
	Size of irrep 3 of <ia|bc> integrals:      0.015 (MW) /      0.123 (MB)
	Total:                                     0.042 (MW) /      0.338 (MB)

	Size of irrep 0 of <Ia|Bc> integrals:      0.030 (MW) /      0.238 (MB)
	Size of irrep 1 of <Ia|Bc> integrals:      0.011 (MW) /      0.085 (MB)
	Size of irrep 2 of <Ia|Bc> integrals:      0.015 (MW) /      0.119 (MB)
	Size of irrep 3 of <Ia|Bc> integrals:      0.023 (MW) /      0.186 (MB)
	Total:                                     0.079 (MW) /      0.628 (MB)

	Size of irrep 0 of <iA|bC> integrals:      0.015 (MW) /      0.123 (MB)
	Size of irrep 1 of <iA|bC> integrals:      0.004 (MW) /      0.034 (MB)
	Size of irrep 2 of <iA|bC> integrals:      0.005 (MW) /      0.037 (MB)
	Size of irrep 3 of <iA|bC> integrals:      0.014 (MW) /      0.115 (MB)
	Total:                                     0.039 (MW) /      0.309 (MB)

	Size of irrep 0 of tIjAb amplitudes:       0.002 (MW) /      0.013 (MB)
	Size of irrep 1 of tIjAb amplitudes:       0.000 (MW) /      0.003 (MB)
	Size of irrep 2 of tIjAb amplitudes:       0.000 (MW) /      0.003 (MB)
	Size of irrep 3 of tIjAb amplitudes:       0.001 (MW) /      0.012 (MB)
	Total:                                     0.004 (MW) /      0.031 (MB)

	Nuclear Rep. energy          =     10.26161300101000
	SCF energy                   =   -290.01571297526448
	One-electron energy          =    -12.79271060369817
	Two-electron (AA) energy     =      1.69133646622783
	Two-electron (BB) energy     =      0.25755322859301
	Two-electron (AB) energy     =      2.91748618856029
	Two-electron energy          =      4.86637588338112
	Reference energy             =   -290.01571297526436

*** tstop() called on cqc05 at Thu Aug 20 19:53:32 2020
Module time:
	user time   =       0.12 seconds =       0.00 minutes
	system time =       0.12 seconds =       0.00 minutes
	total time  =          1 seconds =       0.02 minutes
Total time:
	user time   =       0.87 seconds =       0.01 minutes
	system time =       0.14 seconds =       0.00 minutes
	total time  =          1 seconds =       0.02 minutes

*** tstart() called on cqc05
*** at Thu Aug 20 19:53:32 2020

            **************************
            *                        *
            *        CCENERGY        *
            *                        *
            **************************

    Nuclear Rep. energy (wfn)     =   10.261613001010003
    SCF energy          (wfn)     = -290.015712975264478
    Reference energy    (file100) = -290.015712975264364

    Input parameters:
    -----------------
    Wave function   =     CCSD
    Reference wfn   =     UHF
    Brueckner       =     No
    Memory (Mbytes) =     250000.0
    Maxiter         =     50
    R_Convergence   =     1.0e-07
    E_Convergence   =     1.0e-06
    Restart         =     Yes
    DIIS            =     Yes
    AO Basis        =     NONE
    ABCD            =     NEW
    Cache Level     =     2
    Cache Type      =     LRU
    Print Level     =     1
    Num. of threads =     4
    # Amps to Print =     10
    Print MP2 Amps? =     No
    Analyze T2 Amps =     No
    Print Pair Ener =     No
    Local CC        =     No
    SCS-MP2         =     False
    SCSN-MP2        =     False
    SCS-CCSD        =     False

MP2 correlation energy -0.0758470272803958
                Solving CC Amplitude Equations
                ------------------------------
  Iter             Energy              RMS        T1Diag      D1Diag    New D1Diag    D2Diag
  ----     ---------------------    ---------   ----------  ----------  ----------   --------
     0        -0.075847027280396    0.000e+00    0.000000    0.000000    0.000000    0.000000
     1        -0.092051196622651    5.324e-02    0.009784    0.000000    0.000000    0.000000
     2        -0.098509968163289    2.196e-02    0.018465    0.000000    0.000000    0.000000
     3        -0.098835242734159    7.223e-03    0.022973    0.000000    0.000000    0.000000
     4        -0.098878931517887    2.022e-03    0.024014    0.000000    0.000000    0.000000
     5        -0.098873036158524    7.012e-04    0.024269    0.000000    0.000000    0.000000
     6        -0.098873189598839    2.244e-04    0.024288    0.000000    0.000000    0.000000
     7        -0.098877421464071    6.014e-05    0.024295    0.000000    0.000000    0.000000
     8        -0.098877389776836    1.852e-05    0.024297    0.000000    0.000000    0.000000
     9        -0.098877114678920    6.211e-06    0.024297    0.000000    0.000000    0.000000
    10        -0.098877065102578    2.562e-06    0.024297    0.000000    0.000000    0.000000
    11        -0.098877099738372    9.194e-07    0.024297    0.000000    0.000000    0.000000
    12        -0.098877113672430    2.927e-07    0.024297    0.000000    0.000000    0.000000
    13        -0.098877106930798    1.018e-07    0.024297    0.000000    0.000000    0.000000
    14        -0.098877105938630    3.294e-08    0.024297    0.000000    0.000000    0.000000
    14        -0.098877105938630    3.294e-08    0.024297    0.000000    0.000000    0.000000

    Iterations converged.


    CCSD corr. energy   =   -0.098877105938630
    PPL corr. energy    =    0.027159111410654
    OS PPL corr. energy =    0.023567699575621
    SS PPL corr. energy =    0.003591411835033
    Largest TIA Amplitudes:
              2  23        -0.0243581734
              3  31         0.0116716805
              1   2        -0.0106218188
              1   3         0.0090070893
              1   1        -0.0081945294
              2  26         0.0078991186
              1   4         0.0078337744
              2  24         0.0072430153
              1   6         0.0070871015
              3  37        -0.0062148714

    Largest Tia Amplitudes:
              0   0         0.0293293460
              0   2        -0.0209490265
              0   4         0.0174712380
              0   7         0.0114130480
              0   1        -0.0074621174
              1  39        -0.0061964375
              0  12         0.0059718618
              0  10        -0.0059659988
              1  33         0.0050819350
              0   6         0.0046178888

    Largest TIJAB Amplitudes:
      2   1  23   4         0.0366078666
      2   1  31  17        -0.0341033539
      3   2  17   3        -0.0292540423
      3   2  17   2         0.0271968823
      2   1  23   3        -0.0246828479
      3   1  31   4         0.0238870726
      2   1  26   4        -0.0208165419
      2   1  23   2         0.0198416894
      2   1  23   8        -0.0196225502
      2   1  31  19        -0.0186805111

    Largest Tijab Amplitudes:
      1   0  33   0        -0.0081303130
      1   0  34   4        -0.0078665008
      1   0  24  18        -0.0068611815
      1   0  38   4         0.0054737455
      1   0  24  20        -0.0053130932
      1   0  23  18        -0.0052462612
      1   0  38  10        -0.0050890235
      1   0  24  19        -0.0049534439
      1   0  34  10         0.0048941327
      1   0  33   3        -0.0048424565

    Largest TIjAb Amplitudes:
      2   0   3  24         0.0386363217
      3   1   3   4        -0.0372814008
      2   0  23   0        -0.0335160349
      3   1  31  33        -0.0325352699
      3   0  31   0        -0.0305307671
      1   1  31   4        -0.0293978535
      2   0   3  23         0.0290791904
      2   0   2  24        -0.0287037242
      1   0   4   0         0.0260487953
      0   0   3   4        -0.0253198729

    SCF energy       (wfn)                    = -290.015712975264478
    Reference energy (file100)                = -290.015712975264364

    Opposite-spin MP2 correlation energy      =   -0.062429056045259
    Same-spin MP2 correlation energy          =   -0.013417971235135
    MP2 correlation energy                    =   -0.075847027280396
      * MP2 total energy                      = -290.091560002544782

    Opposite-spin CCSD correlation energy     =   -0.082357475920193
    Same-spin CCSD correlation energy         =   -0.016519630151504
    CCSD correlation energy                   =   -0.098877105938630
      * CCSD total energy                     = -290.114590081203005


*** tstop() called on cqc05 at Thu Aug 20 19:53:33 2020
Module time:
	user time   =       0.37 seconds =       0.01 minutes
	system time =       0.25 seconds =       0.00 minutes
	total time  =          1 seconds =       0.02 minutes
Total time:
	user time   =       1.24 seconds =       0.02 minutes
	system time =       0.39 seconds =       0.01 minutes
	total time  =          2 seconds =       0.03 minutes

*** Psi4 exiting successfully. Buy a developer a beer!
