
    -----------------------------------------------------------------------
          Psi4: An Open-Source Ab Initio Electronic Structure Package
                               Psi4 1.2a1.dev938 

                         Git: Rev {HEAD} fc51d9a dirty


    R. M. Parrish, L. A. Burns, D. G. A. Smith, A. C. Simmonett,
    A. E. DePrince III, E. G. Hohenstein, U. Bozkaya, A. Yu. Sokolov,
    R. Di Remigio, R. M. Richard, J. F. Gonthier, A. M. James,
    H. R. McAlexander, A. Kumar, M. Saitow, X. Wang, B. P. Pritchard,
    P. Verma, H. F. Schaefer III, K. Patkowski, R. A. King, E. F. Valeev,
    F. A. Evangelista, J. M. Turney, T. D. Crawford, and C. D. Sherrill,
    J. Chem. Theory Comput. 13(7) pp 3185--3197 (2017).
    (doi: 10.1021/acs.jctc.7b00174)

    -----------------------------------------------------------------------


    Psi4 started on: Thursday, 20 August 2020 09:52PM

    Process ID: 425007
    PSIDATADIR: /home/irmler/Programs/psi4/beforeGrueneis3/stage/usr/local/psi4/share/psi4
    Memory:     500.0 MiB
    Threads:    4
    
  ==> Input File <==

--------------------------------------------------------------------------
# Any line starting with the # character is a comment line
memory 250000 mb
molecule molecule{
0 2
S          0.0000000000        0.0000000000       -0.0407414360
H          0.0000000000        0.0000000000        1.2958811416
}

set {
  reference uhf
  basis aug-cc-pv(q+d)z
  scf_type OUT_OF_CORE
  freeze_core true
}

energy('ccsd')
--------------------------------------------------------------------------

  Memory set to 232.831 GiB by Python driver.

*** tstart() called on cqc05
*** at Thu Aug 20 21:52:30 2020

   => Loading Basis Set <=

    Name: AUG-CC-PV(Q+D)Z
    Role: ORBITAL
    Keyword: BASIS
    atoms 1 entry S          line  1148 file /home/irmler/Programs/psi4/beforeGrueneis3/stage/usr/local/psi4/share/psi4/basis/aug-cc-pv_qpd_z.gbs 
    atoms 2 entry H          line    56 file /home/irmler/Programs/psi4/beforeGrueneis3/stage/usr/local/psi4/share/psi4/basis/aug-cc-pv_qpd_z.gbs 


         ---------------------------------------------------------
                                   SCF
            by Justin Turney, Rob Parrish, Andy Simmonett
                             and Daniel Smith
                              UHF Reference
                        4 Threads, 238418 MiB Core
         ---------------------------------------------------------

  ==> Geometry <==

    Molecular point group: c2v
    Full point group: C_inf_v

    Geometry (in Angstrom), charge = 0, multiplicity = 2:

       Center              X                  Y                   Z               Mass       
    ------------   -----------------  -----------------  -----------------  -----------------
           S          0.000000000000     0.000000000000    -0.040845540898    31.972070999000
           H          0.000000000000     0.000000000000     1.295777036702     1.007825032070

  Running in c2v symmetry.

  Rotational constants: A = ************  B =      9.65767  C =      9.65767 [cm^-1]
  Rotational constants: A = ************  B = 289529.60842  C = 289529.60842 [MHz]
  Nuclear repulsion =    6.334499715426624

  Charge       = 0
  Multiplicity = 2
  Electrons    = 17
  Nalpha       = 9
  Nbeta        = 8

  ==> Algorithm <==

  SCF Algorithm Type is OUT_OF_CORE.
  DIIS enabled.
  MOM disabled.
  Fractional occupation disabled.
  Guess Type is GWH.
  Energy threshold   = 1.00e-08
  Density threshold  = 1.00e-08
  Integral threshold = 0.00e+00

  ==> Primary Basis <==

  Basis Set: AUG-CC-PV(Q+D)Z
    Blend: AUG-CC-PV(Q+D)Z
    Number of shells: 37
    Number of basis function: 135
    Number of Cartesian functions: 170
    Spherical Harmonics?: true
    Max angular momentum: 4

  ==> Pre-Iterations <==

   -------------------------------------------------------
    Irrep   Nso     Nmo     Nalpha   Nbeta   Ndocc  Nsocc
   -------------------------------------------------------
     A1        54      54       0       0       0       0
     A2        17      17       0       0       0       0
     B1        32      32       0       0       0       0
     B2        32      32       0       0       0       0
   -------------------------------------------------------
    Total     135     135       9       8       8       1
   -------------------------------------------------------

  ==> Integral Setup <==

  ==> DiskJK: Disk-Based J/K Matrices <==

    J tasked:                  Yes
    K tasked:                  Yes
    wK tasked:                  No
    Memory (MB):            178813
    Schwarz Cutoff:          1E-12

  Minimum eigenvalue in the overlap matrix is 7.5491228904E-05.
  Using Symmetric Orthogonalization.

  SCF Guess: Generalized Wolfsberg-Helmholtz.

  ==> Iterations <==

                        Total Energy        Delta E     RMS |[F,P]|

    Occupation by irrep:
             A1    A2    B1    B2 
    DOCC [     5,    0,    1,    2 ]
    SOCC [     0,    0,    1,    0 ]

   @UHF iter   1:  -365.40186414789866   -3.65402e+02   2.75102e-01 
   @UHF iter   2:  -389.71754569775999   -2.43157e+01   1.10310e-01 DIIS
   @UHF iter   3:  -397.56726449371274   -7.84972e+00   2.24993e-02 DIIS
   @UHF iter   4:  -398.10198787411628   -5.34723e-01   4.20096e-03 DIIS
   @UHF iter   5:  -398.10920367609731   -7.21580e-03   1.10761e-03 DIIS
   @UHF iter   6:  -398.11008071536128   -8.77039e-04   2.43935e-04 DIIS
   @UHF iter   7:  -398.11016217975867   -8.14644e-05   8.56888e-05 DIIS
   @UHF iter   8:  -398.11017920112289   -1.70214e-05   2.58862e-05 DIIS
   @UHF iter   9:  -398.11018173697011   -2.53585e-06   8.59004e-06 DIIS
   @UHF iter  10:  -398.11018209384412   -3.56874e-07   2.51993e-06 DIIS
   @UHF iter  11:  -398.11018212563715   -3.17930e-08   7.78493e-07 DIIS
   @UHF iter  12:  -398.11018212862848   -2.99133e-09   2.95685e-07 DIIS
   @UHF iter  13:  -398.11018212911125   -4.82771e-10   1.23797e-07 DIIS
   @UHF iter  14:  -398.11018212918896   -7.77050e-11   2.66295e-08 DIIS
   @UHF iter  15:  -398.11018212919197   -3.01270e-12   5.39969e-09 DIIS

  ==> Post-Iterations <==

   @Spin Contamination Metric:   1.483584613E-02
   @S^2 Expected:                7.500000000E-01
   @S^2 Observed:                7.648358461E-01
   @S   Expected:                5.000000000E-01
   @S   Observed:                5.000000000E-01

    Orbital Energies (a.u.)
    -----------------------

    Alpha Occupied:                                                       

       1A1   -91.988949     2A1    -8.990724     1B1    -6.686568  
       3A1    -6.668219     1B2    -6.666633     4A1    -0.988972  
       5A1    -0.553449     2B1    -0.471696     2B2    -0.401865  

    Alpha Virtual:                                                        

       6A1     0.026514     7A1     0.075583     3B1     0.078386  
       3B2     0.084795     8A1     0.121306     9A1     0.151224  
       4B1     0.184071     4B2     0.194289     1A2     0.201139  
      10A1     0.202522    11A1     0.252598     5B1     0.268361  
       5B2     0.273857    12A1     0.298421    13A1     0.381222  
       6B1     0.404444     6B2     0.428113    14A1     0.430445  
       7B1     0.467755     7B2     0.493083     2A2     0.508985  
      15A1     0.511602    16A1     0.551743     3A2     0.552189  
       8B1     0.557782     8B2     0.557848    17A1     0.627619  
       9B1     0.643567     9B2     0.657030    18A1     0.719146  
      10B1     0.747672    10B2     0.758330    19A1     0.782561  
       4A2     0.797433    20A1     0.799175    21A1     0.958321  
      22A1     1.154191    11B1     1.198123    11B2     1.217314  
      12B1     1.301754     5A2     1.302988    23A1     1.305056  
      12B2     1.332280    24A1     1.397186    13B1     1.433290  
      13B2     1.433365     6A2     1.471397    25A1     1.471399  
      14B1     1.499030     7A2     1.506583    26A1     1.508932  
      14B2     1.510762    15B1     1.523603    15B2     1.554890  
      27A1     1.598943    16B1     1.620839    16B2     1.642624  
       8A2     1.669081    28A1     1.671366    29A1     1.711448  
      17B1     1.769991    17B2     1.782552    30A1     1.835578  
      18B1     1.862843    18B2     1.862922     9A2     2.028739  
      31A1     2.028773    32A1     2.188539    19B1     2.284698  
      19B2     2.308659    33A1     2.448579    34A1     2.694543  
      10A2     2.898432    35A1     2.899216    20B1     2.904055  
      20B2     2.924006    36A1     3.094794    21B1     3.103885  
      21B2     3.126796    11A2     3.139918    37A1     3.143226  
      22B1     3.567167    38A1     3.582168    22B2     3.592737  
      12A2     3.667708    39A1     3.671342    23B1     3.678859  
      23B2     3.679034    40A1     3.754767    13A2     3.835013  
      41A1     3.835020    24B1     3.835378    24B2     3.835990  
      25B1     3.899205    25B2     3.931989    14A2     4.019685  
      42A1     4.021119    43A1     4.312551    26B1     4.614989  
      26B2     4.643407    44A1     4.713100    27B1     5.806257  
      27B2     5.846644    28B1     6.609501    28B2     6.609501  
      45A1     6.917750    15A2     6.976896    46A1     6.976903  
      47A1     7.343816    29B1     7.389566    29B2     7.402300  
      48A1     8.175632    30B1     8.600851    30B2     8.609749  
      16A2     8.640133    49A1     8.640163    31B1     9.225172  
      31B2     9.236889    50A1     9.285755    17A2     9.285987  
      32B1     9.543900    32B2     9.561279    51A1     9.664076  
      52A1     9.738769    53A1    11.127857    54A1    20.103929  

    Beta Occupied:                                                        

       1A1   -91.979886     2A1    -8.980743     3A1    -6.663305  
       1B2    -6.661341     1B1    -6.645543     4A1    -0.895969  
       5A1    -0.534254     2B2    -0.381046  

    Beta Virtual:                                                         

       2B1    -0.002828     6A1     0.027536     7A1     0.076386  
       3B2     0.085472     3B1     0.098378     8A1     0.125567  
       9A1     0.159262     4B2     0.193999     4B1     0.196317  
      10A1     0.212466     1A2     0.212538    11A1     0.255293  
       5B2     0.274177     5B1     0.274250    12A1     0.307690  
      13A1     0.384356     6B2     0.431938    14A1     0.440581  
       6B1     0.453244     7B2     0.495126     7B1     0.512239  
      15A1     0.554780     2A2     0.554825     3A2     0.563062  
      16A1     0.564159     8B2     0.564215     8B1     0.564285  
      17A1     0.631717     9B1     0.653738     9B2     0.656807  
      18A1     0.723788    10B1     0.757466    10B2     0.759153  
      19A1     0.792901     4A2     0.801119    20A1     0.802319  
      21A1     0.967105    22A1     1.164147    11B1     1.217343  
      11B2     1.218437    12B2     1.336198    12B1     1.338447  
       5A2     1.341068    23A1     1.341265    24A1     1.409353  
      13B1     1.441974    13B2     1.441981    25A1     1.482444  
       6A2     1.482445    26A1     1.527012     7A2     1.527050  
      14B2     1.540436    14B1     1.540578    15B2     1.559162  
      15B1     1.561346    27A1     1.604490    16B1     1.634539  
      16B2     1.642703     8A2     1.675655    28A1     1.676494  
      29A1     1.715135    17B1     1.776984    17B2     1.783431  
      30A1     1.838475    18B1     1.866736    18B2     1.866754  
       9A2     2.029359    31A1     2.029396    32A1     2.196369  
      19B1     2.304507    19B2     2.311422    33A1     2.454593  
      34A1     2.712852    10A2     2.906287    35A1     2.906347  
      20B1     2.913755    20B2     2.923940    36A1     3.098988  
      21B1     3.115437    21B2     3.127876    11A2     3.154961  
      37A1     3.155533    22B1     3.583263    38A1     3.591108  
      22B2     3.595603    12A2     3.689484    39A1     3.689808  
      23B1     3.710436    23B2     3.710441    40A1     3.765814  
      24B1     3.856072    24B2     3.856159    13A2     3.861222  
      41A1     3.861223    25B1     3.917085    25B2     3.932220  
      14A2     4.032870    42A1     4.033186    43A1     4.316155  
      26B1     4.631436    26B2     4.645527    44A1     4.718298  
      27B1     5.842848    27B2     5.852069    28B1     6.610173  
      28B2     6.610173    45A1     6.920600    46A1     6.978791  
      15A2     6.978793    47A1     7.344299    29B1     7.393603  
      29B2     7.402038    48A1     8.174933    30B1     8.602281  
      30B2     8.608631    16A2     8.639730    49A1     8.639745  
      31B1     9.229154    31B2     9.236886    50A1     9.297531  
      17A2     9.297616    32B1     9.551917    32B2     9.562245  
      51A1     9.664513    52A1     9.741500    53A1    11.130447  
      54A1    20.114342  

    Final Occupation by Irrep:
             A1    A2    B1    B2 
    DOCC [     5,    0,    1,    2 ]
    SOCC [     0,    0,    1,    0 ]

  Energy converged.

  @UHF Final Energy:  -398.11018212919197

   => Energetics <=

    Nuclear Repulsion Energy =              6.3344997154266238
    One-Electron Energy =                -562.7302029627162483
    Two-Electron Energy =                 158.2855211180976198
    PCM Polarization Energy =               0.0000000000000000
    Total Energy =                       -398.1101821291919691

    Alert: EFP and PCM quantities not currently incorporated into SCF psivars.
  UHF NO Occupations:
  HONO-2 :    2 B2 1.9994126
  HONO-1 :    5 A1 1.9935389
  HONO-0 :    2 B1 1.0000000
  LUNO+0 :    6 A1 0.0064611
  LUNO+1 :    3 B2 0.0005874
  LUNO+2 :    7 A1 0.0003869
  LUNO+3 :    3 B1 0.0000032



Properties will be evaluated at   0.000000,   0.000000,   0.000000 Bohr

Properties computed using the SCF density matrix

  Nuclear Dipole Moment: (a.u.)
     X:     0.0000      Y:     0.0000      Z:     1.2137

  Electronic Dipole Moment: (a.u.)
     X:     0.0000      Y:     0.0000      Z:    -0.8824

  Dipole Moment: (a.u.)
     X:     0.0000      Y:     0.0000      Z:     0.3312     Total:     0.3312

  Dipole Moment: (Debye)
     X:     0.0000      Y:     0.0000      Z:     0.8419     Total:     0.8419


*** tstop() called on cqc05 at Thu Aug 20 21:52:37 2020
Module time:
	user time   =       7.55 seconds =       0.13 minutes
	system time =       0.53 seconds =       0.01 minutes
	total time  =          7 seconds =       0.12 minutes
Total time:
	user time   =       7.55 seconds =       0.13 minutes
	system time =       0.53 seconds =       0.01 minutes
	total time  =          7 seconds =       0.12 minutes

*** tstart() called on cqc05
*** at Thu Aug 20 21:52:37 2020


	Wfn Parameters:
	--------------------
	Wavefunction         = CCSD
	Number of irreps     = 4
	Number of MOs        = 135
	Number of active MOs = 130
	AO-Basis             = NONE
	Semicanonical        = false
	Reference            = UHF
	Print Level          = 1

	IRREP	# MOs	# FZDC	# DOCC	# SOCC	# VIRT	# FZVR
	-----	-----	------	------	------	------	------
	 A1	   54	    3	    2	    0	    49	    0
	 A2	   17	    0	    0	    0	    17	    0
	 B1	   32	    1	    0	    1	    30	    0
	 B2	   32	    1	    1	    0	    30	    0
	Transforming integrals...
	IWL integrals will be deleted.
	(OO|OO)...
	Presorting SO-basis two-electron integrals.
	Sorting File: SO Ints (nn|nn) nbuckets = 1
	Transforming the one-electron integrals and constructing Fock matrices
	Starting AA/AB first half-transformation.
	Sorting AA/AB half-transformed integrals.
	Starting BB first half-transformation.
	Sorting BB half-transformed integrals.
	First half integral transformation complete.
	Starting AA second half-transformation.
	Starting AB second half-transformation.
	Starting BB second half-transformation.
	Two-electron integral transformation complete.
	(OO|OV)...
	Starting AA second half-transformation.
	Starting AB second half-transformation.
	Starting BB second half-transformation.
	Two-electron integral transformation complete.
	(OO|VV)...
	Starting AA second half-transformation.
	Starting AB second half-transformation.
	Starting BB second half-transformation.
	Two-electron integral transformation complete.
	(OV|OO)...
	Starting AA/AB first half-transformation.
	Sorting AA/AB half-transformed integrals.
	Starting BB first half-transformation.
	Sorting BB half-transformed integrals.
	First half integral transformation complete.
	Starting AA second half-transformation.
	Starting AB second half-transformation.
	Starting BB second half-transformation.
	Two-electron integral transformation complete.
	(OV|OV)...
	Starting AA second half-transformation.
	Starting AB second half-transformation.
	Starting BB second half-transformation.
	Two-electron integral transformation complete.
	(OV|VV)...
	Starting AA second half-transformation.
	Starting AB second half-transformation.
	Starting BB second half-transformation.
	Two-electron integral transformation complete.
	(VV|OO)...
	Starting AA/AB first half-transformation.
	Sorting AA/AB half-transformed integrals.
	Starting BB first half-transformation.
	Sorting BB half-transformed integrals.
	First half integral transformation complete.
	Starting AA second half-transformation.
	Starting AB second half-transformation.
	Starting BB second half-transformation.
	Two-electron integral transformation complete.
	(VV|OV)...
	Starting AA second half-transformation.
	Starting AB second half-transformation.
	Starting BB second half-transformation.
	Two-electron integral transformation complete.
	(VV|VV)...
	Starting AA second half-transformation.
	Starting AB second half-transformation.
	Starting BB second half-transformation.
	Two-electron integral transformation complete.
	Frozen core energy     =   -391.51219521239261

	Size of irrep 0 of <AB|CD> integrals:      4.761 (MW) /     38.089 (MB)
	Size of irrep 1 of <AB|CD> integrals:      3.003 (MW) /     24.026 (MB)
	Size of irrep 2 of <AB|CD> integrals:      3.920 (MW) /     31.363 (MB)
	Size of irrep 3 of <AB|CD> integrals:      3.920 (MW) /     31.363 (MB)
	Total:                                    15.605 (MW) /    124.842 (MB)

	Size of irrep 0 of <ab|cd> integrals:      4.893 (MW) /     39.144 (MB)
	Size of irrep 1 of <ab|cd> integrals:      3.108 (MW) /     24.865 (MB)
	Size of irrep 2 of <ab|cd> integrals:      4.117 (MW) /     32.935 (MB)
	Size of irrep 3 of <ab|cd> integrals:      3.988 (MW) /     31.904 (MB)
	Total:                                    16.106 (MW) /    128.848 (MB)

	Size of irrep 0 of <Ab|Cd> integrals:     20.430 (MW) /    163.443 (MB)
	Size of irrep 1 of <Ab|Cd> integrals:     12.222 (MW) /     97.776 (MB)
	Size of irrep 2 of <Ab|Cd> integrals:     16.072 (MW) /    128.577 (MB)
	Size of irrep 3 of <Ab|Cd> integrals:     15.817 (MW) /    126.532 (MB)
	Total:                                    64.541 (MW) /    516.328 (MB)

	Size of irrep 0 of <IA|BC> integrals:      0.709 (MW) /      5.675 (MB)
	Size of irrep 1 of <IA|BC> integrals:      0.326 (MW) /      2.606 (MB)
	Size of irrep 2 of <IA|BC> integrals:      0.499 (MW) /      3.992 (MB)
	Size of irrep 3 of <IA|BC> integrals:      0.499 (MW) /      3.992 (MB)
	Total:                                     2.033 (MW) /     16.265 (MB)

	Size of irrep 0 of <ia|bc> integrals:      0.583 (MW) /      4.660 (MB)
	Size of irrep 1 of <ia|bc> integrals:      0.229 (MW) /      1.834 (MB)
	Size of irrep 2 of <ia|bc> integrals:      0.321 (MW) /      2.565 (MB)
	Size of irrep 3 of <ia|bc> integrals:      0.435 (MW) /      3.483 (MB)
	Total:                                     1.568 (MW) /     12.541 (MB)

	Size of irrep 0 of <Ia|Bc> integrals:      0.719 (MW) /      5.749 (MB)
	Size of irrep 1 of <Ia|Bc> integrals:      0.332 (MW) /      2.657 (MB)
	Size of irrep 2 of <Ia|Bc> integrals:      0.513 (MW) /      4.105 (MB)
	Size of irrep 3 of <Ia|Bc> integrals:      0.501 (MW) /      4.009 (MB)
	Total:                                     2.065 (MW) /     16.520 (MB)

	Size of irrep 0 of <iA|bC> integrals:      0.579 (MW) /      4.628 (MB)
	Size of irrep 1 of <iA|bC> integrals:      0.224 (MW) /      1.790 (MB)
	Size of irrep 2 of <iA|bC> integrals:      0.309 (MW) /      2.470 (MB)
	Size of irrep 3 of <iA|bC> integrals:      0.433 (MW) /      3.468 (MB)
	Total:                                     1.544 (MW) /     12.356 (MB)

	Size of irrep 0 of tIjAb amplitudes:       0.023 (MW) /      0.181 (MB)
	Size of irrep 1 of tIjAb amplitudes:       0.003 (MW) /      0.028 (MB)
	Size of irrep 2 of tIjAb amplitudes:       0.008 (MW) /      0.064 (MB)
	Size of irrep 3 of tIjAb amplitudes:       0.016 (MW) /      0.127 (MB)
	Total:                                     0.050 (MW) /      0.400 (MB)

	Nuclear Rep. energy          =      6.33449971542662
	SCF energy                   =   -398.11018212919197
	One-electron energy          =    -21.63772192580697
	Two-electron (AA) energy     =      2.24288765405962
	Two-electron (BB) energy     =      1.07709228088345
	Two-electron (AB) energy     =      5.38525535863809
	Two-electron energy          =      8.70523529358116
	Reference energy             =   -398.11018212919180

*** tstop() called on cqc05 at Thu Aug 20 21:52:48 2020
Module time:
	user time   =       6.24 seconds =       0.10 minutes
	system time =       4.26 seconds =       0.07 minutes
	total time  =         11 seconds =       0.18 minutes
Total time:
	user time   =      13.79 seconds =       0.23 minutes
	system time =       4.79 seconds =       0.08 minutes
	total time  =         18 seconds =       0.30 minutes

*** tstart() called on cqc05
*** at Thu Aug 20 21:52:48 2020

            **************************
            *                        *
            *        CCENERGY        *
            *                        *
            **************************

    Nuclear Rep. energy (wfn)     =    6.334499715426624
    SCF energy          (wfn)     = -398.110182129191969
    Reference energy    (file100) = -398.110182129191799

    Input parameters:
    -----------------
    Wave function   =     CCSD
    Reference wfn   =     UHF
    Brueckner       =     No
    Memory (Mbytes) =     250000.0
    Maxiter         =     50
    R_Convergence   =     1.0e-07
    E_Convergence   =     1.0e-06
    Restart         =     Yes
    DIIS            =     Yes
    AO Basis        =     NONE
    ABCD            =     NEW
    Cache Level     =     2
    Cache Type      =     LRU
    Print Level     =     1
    Num. of threads =     4
    # Amps to Print =     10
    Print MP2 Amps? =     No
    Analyze T2 Amps =     No
    Print Pair Ener =     No
    Local CC        =     No
    SCS-MP2         =     False
    SCSN-MP2        =     False
    SCS-CCSD        =     False

MP2 correlation energy -0.1663215996424330
                Solving CC Amplitude Equations
                ------------------------------
  Iter             Energy              RMS        T1Diag      D1Diag    New D1Diag    D2Diag
  ----     ---------------------    ---------   ----------  ----------  ----------   --------
     0        -0.166321599642434    0.000e+00    0.000000    0.000000    0.000000    0.000000
     1        -0.182614533379443    4.779e-02    0.009631    0.000000    0.000000    0.000000
     2        -0.188739530403614    1.715e-02    0.014328    0.000000    0.000000    0.000000
     3        -0.189109461192653    4.802e-03    0.016031    0.000000    0.000000    0.000000
     4        -0.189120043816415    1.595e-03    0.016583    0.000000    0.000000    0.000000
     5        -0.189106331662909    5.004e-04    0.016695    0.000000    0.000000    0.000000
     6        -0.189105898467133    1.823e-04    0.016728    0.000000    0.000000    0.000000
     7        -0.189107856799525    6.374e-05    0.016730    0.000000    0.000000    0.000000
     8        -0.189108018132535    2.034e-05    0.016730    0.000000    0.000000    0.000000
     9        -0.189107871199092    7.065e-06    0.016730    0.000000    0.000000    0.000000
    10        -0.189107862276556    2.623e-06    0.016730    0.000000    0.000000    0.000000
    11        -0.189107879988382    9.491e-07    0.016730    0.000000    0.000000    0.000000
    12        -0.189107901035935    3.473e-07    0.016730    0.000000    0.000000    0.000000
    13        -0.189107905613266    1.269e-07    0.016730    0.000000    0.000000    0.000000
    14        -0.189107905519666    4.501e-08    0.016730    0.000000    0.000000    0.000000
    14        -0.189107905519666    4.501e-08    0.016730    0.000000    0.000000    0.000000

    Iterations converged.


    CCSD corr. energy   =   -0.189107905519666
    PPL corr. energy    =    0.054973564260659
    OS PPL corr. energy =    0.047258469575929
    SS PPL corr. energy =    0.007715094684730
    Largest TIA Amplitudes:
              1   3         0.0125392162
              1   8        -0.0091599183
              2  67         0.0090240672
              2  70        -0.0079967191
              1  11        -0.0061690241
              1  18         0.0050355067
              0   8        -0.0049810410
              3  99         0.0048337547
              0   9         0.0046892537
              1   5         0.0044409430

    Largest Tia Amplitudes:
              0  10        -0.0137567599
              1  10         0.0110468241
              0   6        -0.0100596520
              2  98        -0.0090455076
              2 101         0.0090315816
              0   4        -0.0082895366
              0   3         0.0082018843
              1   4         0.0075786403
              0   2        -0.0073503880
              0   9        -0.0059535629

    Largest TIJAB Amplitudes:
      3   2  50   9        -0.0359709293
      2   1  70   3        -0.0228210718
      3   2  49   9        -0.0216837024
      3   2  50   4         0.0215529860
      3   1 100   3         0.0205513140
      2   1  70   8         0.0201639792
      3   2 100  70         0.0178801442
      2   1  67   3         0.0173482015
      3   1 100   8        -0.0172204253
      3   1 100   9        -0.0171208854

    Largest Tijab Amplitudes:
      2   1 101   3         0.0210139785
      2   1 101   8        -0.0198634038
      2   1  98   3        -0.0163486268
      2   0  66  51        -0.0148587634
      2   1 101   6        -0.0146526388
      2   1  98   8         0.0130307199
      1   0  71  66        -0.0128845626
      2   1  71  51        -0.0120191511
      2   1 101  10         0.0109131368
      2   1  98   6         0.0103656958

    Largest TIjAb Amplitudes:
      3   0  50  66         0.0390461749
      1   1   3   3        -0.0383766176
      3   2 100 101        -0.0379794949
      3   2  50  51        -0.0379644966
      3   2   9  10         0.0375987677
      2   0   9  66         0.0355784427
      1   1   3   8         0.0323800713
      1   1   3   6         0.0314644880
      1   1   8   8        -0.0311560716
      3   2  99 100        -0.0298325337

    SCF energy       (wfn)                    = -398.110182129191969
    Reference energy (file100)                = -398.110182129191799

    Opposite-spin MP2 correlation energy      =   -0.133056437841345
    Same-spin MP2 correlation energy          =   -0.033265161801061
    MP2 correlation energy                    =   -0.166321599642433
      * MP2 total energy                      = -398.276503728834257

    Opposite-spin CCSD correlation energy     =   -0.155399395171425
    Same-spin CCSD correlation energy         =   -0.033708510352180
    CCSD correlation energy                   =   -0.189107905519666
      * CCSD total energy                     = -398.299290034711476


*** tstop() called on cqc05 at Thu Aug 20 21:52:58 2020
Module time:
	user time   =       4.11 seconds =       0.07 minutes
	system time =       4.65 seconds =       0.08 minutes
	total time  =         10 seconds =       0.17 minutes
Total time:
	user time   =      17.90 seconds =       0.30 minutes
	system time =       9.44 seconds =       0.16 minutes
	total time  =         28 seconds =       0.47 minutes

*** Psi4 exiting successfully. Buy a developer a beer!
