
    -----------------------------------------------------------------------
          Psi4: An Open-Source Ab Initio Electronic Structure Package
                               Psi4 1.4a3.dev88 

                         Git: Rev {master} 262e345 


    D. G. A. Smith, L. A. Burns, A. C. Simmonett, R. M. Parrish,
    M. C. Schieber, R. Galvelis, P. Kraus, H. Kruse, R. Di Remigio,
    A. Alenaizan, A. M. James, S. Lehtola, J. P. Misiewicz, M. Scheurer,
    R. A. Shaw, J. B. Schriber, Y. Xie, Z. L. Glick, D. A. Sirianni,
    J. S. O'Brien, J. M. Waldrop, A. Kumar, E. G. Hohenstein,
    B. P. Pritchard, B. R. Brooks, H. F. Schaefer III, A. Yu. Sokolov,
    K. Patkowski, A. E. DePrince III, U. Bozkaya, R. A. King,
    F. A. Evangelista, J. M. Turney, T. D. Crawford, C. D. Sherrill,
    J. Chem. Phys. 152(18) 184108 (2020). https://doi.org/10.1063/5.0006002

                            Additional Code Authors
    E. T. Seidl, C. L. Janssen, E. F. Valeev, M. L. Leininger,
    J. F. Gonthier, R. M. Richard, H. R. McAlexander, M. Saitow, X. Wang,
    P. Verma, and M. H. Lechner

             Previous Authors, Complete List of Code Contributors,
                       and Citations for Specific Modules
    https://github.com/psi4/psi4/blob/master/codemeta.json
    https://github.com/psi4/psi4/graphs/contributors
    http://psicode.org/psi4manual/master/introduction.html#citing-psifour

    -----------------------------------------------------------------------


    Psi4 started on: Wednesday, 20 January 2021 08:48PM

    Process ID: 132304
    Host:       n412-052.vsc4.prov
    PSIDATADIR: /home/fs71337/gallo4/psi4/psi4/build/stage/share/psi4
    Memory:     500.0 MiB
    Threads:    48
    
  ==> Input File <==

--------------------------------------------------------------------------
# Any line starting with the # character is a comment line
memory 250000 mb
molecule molecule{
0 3
C          0.0000000000        0.0000000000        0.0000000000
}

set {
  reference uhf
  basis aug-cc-pv(q+d)z
  scf_type OUT_OF_CORE
  freeze_core true
}

energy('ccsd(t)')
--------------------------------------------------------------------------

  Memory set to 232.831 GiB by Python driver.

Scratch directory: /binfl/lv71337/airmler/temp/

*** tstart() called on n412-052.vsc4.prov
*** at Wed Jan 20 20:48:46 2021

   => Loading Basis Set <=

    Name: AUG-CC-PV(Q+D)Z
    Role: ORBITAL
    Keyword: BASIS
    atoms 1 entry C          line   331 file /home/fs71337/gallo4/psi4/psi4/build/stage/share/psi4/basis/aug-cc-pv_qpd_z.gbs 


         ---------------------------------------------------------
                                   SCF
               by Justin Turney, Rob Parrish, Andy Simmonett
                          and Daniel G. A. Smith
                              UHF Reference
                       48 Threads, 238418 MiB Core
         ---------------------------------------------------------

  ==> Geometry <==

    Molecular point group: d2h
    Geometry (in Angstrom), charge = 0, multiplicity = 3:

       Center              X                  Y                   Z               Mass       
    ------------   -----------------  -----------------  -----------------  -----------------
         C            0.000000000000     0.000000000000     0.000000000000    12.000000000000

  Running in d2h symmetry.

  Rotational constants: A = ************  B = ************  C = ************ [cm^-1]
  Rotational constants: A = ************  B = ************  C = ************ [MHz]
  Nuclear repulsion =    0.000000000000000

  Charge       = 0
  Multiplicity = 3
  Electrons    = 6
  Nalpha       = 4
  Nbeta        = 2

  ==> Algorithm <==

  SCF Algorithm Type is OUT_OF_CORE.
  DIIS enabled.
  MOM disabled.
  Fractional occupation disabled.
  Guess Type is CORE.
  Energy threshold   = 1.00e-08
  Density threshold  = 1.00e-08
  Integral threshold = 1.00e-12

  ==> Primary Basis <==

  Basis Set: AUG-CC-PV(Q+D)Z
    Blend: AUG-CC-PV(Q+D)Z
    Number of shells: 20
    Number of basis function: 80
    Number of Cartesian functions: 105
    Spherical Harmonics?: true
    Max angular momentum: 4

  ==> Integral Setup <==

  ==> DiskJK: Disk-Based J/K Matrices <==

    J tasked:                  Yes
    K tasked:                  Yes
    wK tasked:                  No
    Memory [MiB]:           178813
    Schwarz Cutoff:          1E-12

  Minimum eigenvalue in the overlap matrix is 4.2846703316E-03.
  Reciprocal condition number of the overlap matrix is 1.2640408006E-03.
    Using symmetric orthogonalization.

  ==> Pre-Iterations <==

  SCF Guess: Core (One-Electron) Hamiltonian.

   -------------------------------------------------------
    Irrep   Nso     Nmo     Nalpha   Nbeta   Ndocc  Nsocc
   -------------------------------------------------------
     Ag        20      20       1       1       1       0
     B1g        8       8       0       0       0       0
     B2g        8       8       0       0       0       0
     B3g        8       8       0       0       0       0
     Au         3       3       0       0       0       0
     B1u       11      11       1       0       0       1
     B2u       11      11       1       0       0       1
     B3u       11      11       1       1       1       0
   -------------------------------------------------------
    Total      80      80       4       2       2       2
   -------------------------------------------------------

  ==> Iterations <==

                        Total Energy        Delta E     RMS |[F,P]|

    Occupation by irrep:
             Ag   B1g   B2g   B3g    Au   B1u   B2u   B3u 
    DOCC [     2,    0,    0,    0,    0,    0,    0,    0 ]
    SOCC [     0,    0,    0,    0,    0,    1,    1,    0 ]

   @UHF iter   1:   -32.81487034365687   -3.28149e+01   1.33562e-01 DIIS
   @UHF iter   2:   -34.83808717645053   -2.02322e+00   3.52467e-02 DIIS
   @UHF iter   3:   -37.48602888614352   -2.64794e+00   1.91494e-02 DIIS
   @UHF iter   4:   -37.67106016888015   -1.85031e-01   5.54327e-03 DIIS
   @UHF iter   5:   -37.69304979136903   -2.19896e-02   6.08675e-04 DIIS
   @UHF iter   6:   -37.69331352644303   -2.63735e-04   1.59540e-04 DIIS
   @UHF iter   7:   -37.69334911832254   -3.55919e-05   3.82116e-05 DIIS
   @UHF iter   8:   -37.69335146175256   -2.34343e-06   7.45755e-06 DIIS
   @UHF iter   9:   -37.69335153609926   -7.43467e-08   5.87027e-07 DIIS
   @UHF iter  10:   -37.69335153641603   -3.16767e-10   7.63445e-08 DIIS
   @UHF iter  11:   -37.69335153642172   -5.69145e-12   7.53431e-09 DIIS
  Energy and wave function converged.


  ==> Post-Iterations <==

   @Spin Contamination Metric:   1.043578094E-02
   @S^2 Expected:                2.000000000E+00
   @S^2 Observed:                2.010435781E+00
   @S   Expected:                1.000000000E+00
   @S   Observed:                1.000000000E+00

    Orbital Energies [Eh]
    ---------------------

    Alpha Occupied:                                                       

       1Ag   -11.345965     2Ag    -0.829337     1B1u   -0.439026  
       1B2u   -0.439026  

    Alpha Virtual:                                                        

       1B3u    0.017089     3Ag     0.081497     2B1u    0.083418  
       2B2u    0.083418     2B3u    0.107166     4Ag     0.235473  
       1B2g    0.235820     1B1g    0.235820     5Ag     0.237573  
       1B3g    0.237573     3B1u    0.418824     3B2u    0.418824  
       3B3u    0.464652     6Ag     0.493002     4B3u    0.755537  
       4B2u    0.756755     4B1u    0.756755     5B3u    0.760515  
       1Au     0.760515     2B3g    0.760983     7Ag     0.760983  
       5B2u    0.766882     5B1u    0.766882     2B1g    0.771320  
       2B2g    0.771320     8Ag     0.775813     6B2u    1.563646  
       6B1u    1.563646     6B3u    1.598321     9Ag     2.095817  
      10Ag     2.116569     3B1g    2.118135     3B2g    2.118135  
      11Ag     2.122870     3B3g    2.122870     4B1g    2.130820  
       4B2g    2.130820    12Ag     2.141946     4B3g    2.141946  
       5B3g    2.188840    13Ag     2.188840     5B1g    2.197948  
       5B2g    2.197948    14Ag     2.202568     7B3u    2.267365  
       7B2u    2.269406     7B1u    2.269406     8B3u    2.275559  
       2Au     2.275559     8B2u    2.285830     8B1u    2.285830  
       9B2u    5.784910     9B1u    5.784910     9B3u    5.788120  
      15Ag     5.921391     6B2g    5.924023     6B1g    5.924023  
       6B3g    5.931935    16Ag     5.931935     7B2g    5.945168  
       7B1g    5.945168    17Ag     5.963781     7B3g    5.963781  
      18Ag     6.353917     8B2g    6.356900     8B1g    6.356900  
      19Ag     6.366197     8B3g    6.366197    10B3u    6.457604  
      10B2u    6.461023    10B1u    6.461023    11B3u    6.471330  
       3Au     6.471330    11B2u    6.488681    11B1u    6.488681  
      20Ag    20.444657  

    Beta Occupied:                                                        

       1Ag   -11.300622     2Ag    -0.583572  

    Beta Virtual:                                                         

       1B3u    0.036010     1B1u    0.058282     1B2u    0.058282  
       3Ag     0.090457     2B3u    0.123549     2B2u    0.160967  
       2B1u    0.160967     4Ag     0.239410     1B2g    0.241681  
       1B1g    0.241681     5Ag     0.249083     1B3g    0.249083  
       3B3u    0.484661     3B1u    0.522982     3B2u    0.522982  
       6Ag     0.531942     4B3u    0.762011     4B1u    0.764204  
       4B2u    0.764204     5B3u    0.770865     1Au     0.770865  
       5B2u    0.782393     5B1u    0.782393     7Ag     0.804071  
       2B1g    0.812131     2B2g    0.812131     2B3g    0.839144  
       8Ag     0.839144     6B3u    1.622612     6B2u    1.676046  
       6B1u    1.676046     9Ag     2.127364     3B2g    2.129777  
       3B1g    2.129777    10Ag     2.137032     3B3g    2.137032  
       4B1g    2.149226     4B2g    2.149226    11Ag     2.162370  
      12Ag     2.166576     4B3g    2.166576    13Ag     2.253021  
       5B1g    2.267195     5B2g    2.267195     7B3u    2.293354  
       7B1u    2.298874     7B2u    2.298874     5B3g    2.313498  
      14Ag     2.313498     8B3u    2.315643     2Au     2.315643  
       8B2u    2.344656     8B1u    2.344656     9B3u    5.808050  
       9B2u    5.861845     9B1u    5.861845    15Ag     5.945689  
       6B2g    5.949995     6B1g    5.949995     6B3g    5.962972  
      16Ag     5.962972     7B2g    5.984792     7B1g    5.984792  
      17Ag     6.015769     7B3g    6.015769    18Ag     6.396246  
       8B1g    6.412107     8B2g    6.412107    19Ag     6.461428  
       8B3g    6.461428    10B3u    6.495077    10B2u    6.502980  
      10B1u    6.502980    11B3u    6.526900     3Au     6.526900  
      11B2u    6.567992    11B1u    6.567992    20Ag    20.476455  

    Final Occupation by Irrep:
             Ag   B1g   B2g   B3g    Au   B1u   B2u   B3u 
    DOCC [     2,    0,    0,    0,    0,    0,    0,    0 ]
    SOCC [     0,    0,    0,    0,    0,    1,    1,    0 ]

  @UHF Final Energy:   -37.69335153642172

   => Energetics <=

    Nuclear Repulsion Energy =              0.0000000000000000
    One-Electron Energy =                 -50.4491555197498798
    Two-Electron Energy =                  12.7558039833281569
    Total Energy =                        -37.6933515364217229

  UHF NO Occupations:
  HONO-2 :    2 Ag 1.9947718
  HONO-1 :    1B2u 1.0000000
  HONO-0 :    1B1u 1.0000000
  LUNO+0 :    3 Ag 0.0052282
  LUNO+1 :    4 Ag 0.0000034
  LUNO+2 :    5 Ag 0.0000000
  LUNO+3 :    2B2u 0.0000000


Computation Completed


Properties will be evaluated at   0.000000,   0.000000,   0.000000 [a0]

Properties computed using the SCF density matrix

  Nuclear Dipole Moment: [e a0]
     X:     0.0000      Y:     0.0000      Z:     0.0000

  Electronic Dipole Moment: [e a0]
     X:     0.0000      Y:     0.0000      Z:     0.0000

  Dipole Moment: [e a0]
     X:     0.0000      Y:     0.0000      Z:     0.0000     Total:     0.0000

  Dipole Moment: [D]
     X:     0.0000      Y:     0.0000      Z:     0.0000     Total:     0.0000


*** tstop() called on n412-052.vsc4.prov at Wed Jan 20 20:48:49 2021
Module time:
	user time   =      15.17 seconds =       0.25 minutes
	system time =       0.54 seconds =       0.01 minutes
	total time  =          3 seconds =       0.05 minutes
Total time:
	user time   =      15.17 seconds =       0.25 minutes
	system time =       0.54 seconds =       0.01 minutes
	total time  =          3 seconds =       0.05 minutes

*** tstart() called on n412-052.vsc4.prov
*** at Wed Jan 20 20:48:49 2021


	Wfn Parameters:
	--------------------
	Wavefunction         = CCSD_T
	Number of irreps     = 8
	Number of MOs        = 80
	Number of active MOs = 79
	AO-Basis             = NONE
	Semicanonical        = false
	Reference            = UHF
	Print Level          = 1

	IRREP	# MOs	# FZDC	# DOCC	# SOCC	# VIRT	# FZVR
	-----	-----	------	------	------	------	------
	 Ag	   20	    1	    1	    0	    18	    0
	 B1g	   8	    0	    0	    0	    8	    0
	 B2g	   8	    0	    0	    0	    8	    0
	 B3g	   8	    0	    0	    0	    8	    0
	 Au	   3	    0	    0	    0	    3	    0
	 B1u	   11	    0	    0	    1	    10	    0
	 B2u	   11	    0	    0	    1	    10	    0
	 B3u	   11	    0	    0	    0	    11	    0
	Transforming integrals...
	IWL integrals will be deleted.
	(OO|OO)...
	Presorting SO-basis two-electron integrals.
	Sorting File: SO Ints (nn|nn) nbuckets = 1
	Constructing frozen core operators
	Starting AA/AB first half-transformation.
	Sorting AA/AB half-transformed integrals.
	Starting BB first half-transformation.
	Sorting BB half-transformed integrals.
	First half integral transformation complete.
	Starting AA second half-transformation.
	Starting AB second half-transformation.
	Starting BB second half-transformation.
	Two-electron integral transformation complete.
	(OO|OV)...
	Starting AA second half-transformation.
	Starting AB second half-transformation.
	Starting BB second half-transformation.
	Two-electron integral transformation complete.
	(OO|VV)...
	Starting AA second half-transformation.
	Starting AB second half-transformation.
	Starting BB second half-transformation.
	Two-electron integral transformation complete.
	(OV|OO)...
	Starting AA/AB first half-transformation.
	Sorting AA/AB half-transformed integrals.
	Starting BB first half-transformation.
	Sorting BB half-transformed integrals.
	First half integral transformation complete.
	Starting AA second half-transformation.
	Starting AB second half-transformation.
	Starting BB second half-transformation.
	Two-electron integral transformation complete.
	(OV|OV)...
	Starting AA second half-transformation.
	Starting AB second half-transformation.
	Starting BB second half-transformation.
	Two-electron integral transformation complete.
	(OV|VV)...
	Starting AA second half-transformation.
	Starting AB second half-transformation.
	Starting BB second half-transformation.
	Two-electron integral transformation complete.
	(VV|OO)...
	Starting AA/AB first half-transformation.
	Sorting AA/AB half-transformed integrals.
	Starting BB first half-transformation.
	Sorting BB half-transformed integrals.
	First half integral transformation complete.
	Starting AA second half-transformation.
	Starting AB second half-transformation.
	Starting BB second half-transformation.
	Two-electron integral transformation complete.
	(VV|OV)...
	Starting AA second half-transformation.
	Starting AB second half-transformation.
	Starting BB second half-transformation.
	Two-electron integral transformation complete.
	(VV|VV)...
	Starting AA second half-transformation.
	Starting AB second half-transformation.
	Starting BB second half-transformation.
	Two-electron integral transformation complete.
	Frozen core energy     =    -32.35987186876901

	Size of irrep 0 of <AB|CD> integrals:      0.148 (MW) /      1.186 (MB)
	Size of irrep 1 of <AB|CD> integrals:      0.121 (MW) /      0.969 (MB)
	Size of irrep 2 of <AB|CD> integrals:      0.121 (MW) /      0.969 (MB)
	Size of irrep 3 of <AB|CD> integrals:      0.116 (MW) /      0.930 (MB)
	Size of irrep 4 of <AB|CD> integrals:      0.091 (MW) /      0.730 (MB)
	Size of irrep 5 of <AB|CD> integrals:      0.138 (MW) /      1.107 (MB)
	Size of irrep 6 of <AB|CD> integrals:      0.138 (MW) /      1.107 (MB)
	Size of irrep 7 of <AB|CD> integrals:      0.146 (MW) /      1.167 (MB)
	Total:                                     1.021 (MW) /      8.165 (MB)

	Size of irrep 0 of <ab|cd> integrals:      0.164 (MW) /      1.312 (MB)
	Size of irrep 1 of <ab|cd> integrals:      0.131 (MW) /      1.048 (MB)
	Size of irrep 2 of <ab|cd> integrals:      0.131 (MW) /      1.048 (MB)
	Size of irrep 3 of <ab|cd> integrals:      0.131 (MW) /      1.048 (MB)
	Size of irrep 4 of <ab|cd> integrals:      0.101 (MW) /      0.809 (MB)
	Size of irrep 5 of <ab|cd> integrals:      0.158 (MW) /      1.267 (MB)
	Size of irrep 6 of <ab|cd> integrals:      0.158 (MW) /      1.267 (MB)
	Size of irrep 7 of <ab|cd> integrals:      0.158 (MW) /      1.267 (MB)
	Total:                                     1.133 (MW) /      9.068 (MB)

	Size of irrep 0 of <Ab|Cd> integrals:      0.750 (MW) /      6.000 (MB)
	Size of irrep 1 of <Ab|Cd> integrals:      0.504 (MW) /      4.033 (MB)
	Size of irrep 2 of <Ab|Cd> integrals:      0.504 (MW) /      4.033 (MB)
	Size of irrep 3 of <Ab|Cd> integrals:      0.493 (MW) /      3.942 (MB)
	Size of irrep 4 of <Ab|Cd> integrals:      0.384 (MW) /      3.075 (MB)
	Size of irrep 5 of <Ab|Cd> integrals:      0.593 (MW) /      4.743 (MB)
	Size of irrep 6 of <Ab|Cd> integrals:      0.593 (MW) /      4.743 (MB)
	Size of irrep 7 of <Ab|Cd> integrals:      0.608 (MW) /      4.867 (MB)
	Total:                                     4.430 (MW) /     35.436 (MB)

	Size of irrep 0 of <IA|BC> integrals:      0.032 (MW) /      0.257 (MB)
	Size of irrep 1 of <IA|BC> integrals:      0.015 (MW) /      0.122 (MB)
	Size of irrep 2 of <IA|BC> integrals:      0.015 (MW) /      0.122 (MB)
	Size of irrep 3 of <IA|BC> integrals:      0.019 (MW) /      0.153 (MB)
	Size of irrep 4 of <IA|BC> integrals:      0.011 (MW) /      0.092 (MB)
	Size of irrep 5 of <IA|BC> integrals:      0.027 (MW) /      0.214 (MB)
	Size of irrep 6 of <IA|BC> integrals:      0.027 (MW) /      0.214 (MB)
	Size of irrep 7 of <IA|BC> integrals:      0.021 (MW) /      0.165 (MB)
	Total:                                     0.168 (MW) /      1.340 (MB)

	Size of irrep 0 of <ia|bc> integrals:      0.016 (MW) /      0.128 (MB)
	Size of irrep 1 of <ia|bc> integrals:      0.006 (MW) /      0.046 (MB)
	Size of irrep 2 of <ia|bc> integrals:      0.006 (MW) /      0.046 (MB)
	Size of irrep 3 of <ia|bc> integrals:      0.006 (MW) /      0.046 (MB)
	Size of irrep 4 of <ia|bc> integrals:      0.002 (MW) /      0.015 (MB)
	Size of irrep 5 of <ia|bc> integrals:      0.009 (MW) /      0.070 (MB)
	Size of irrep 6 of <ia|bc> integrals:      0.009 (MW) /      0.070 (MB)
	Size of irrep 7 of <ia|bc> integrals:      0.009 (MW) /      0.070 (MB)
	Total:                                     0.062 (MW) /      0.492 (MB)

	Size of irrep 0 of <Ia|Bc> integrals:      0.035 (MW) /      0.277 (MB)
	Size of irrep 1 of <Ia|Bc> integrals:      0.016 (MW) /      0.125 (MB)
	Size of irrep 2 of <Ia|Bc> integrals:      0.016 (MW) /      0.125 (MB)
	Size of irrep 3 of <Ia|Bc> integrals:      0.021 (MW) /      0.168 (MB)
	Size of irrep 4 of <Ia|Bc> integrals:      0.012 (MW) /      0.094 (MB)
	Size of irrep 5 of <Ia|Bc> integrals:      0.028 (MW) /      0.228 (MB)
	Size of irrep 6 of <Ia|Bc> integrals:      0.028 (MW) /      0.228 (MB)
	Size of irrep 7 of <Ia|Bc> integrals:      0.021 (MW) /      0.168 (MB)
	Total:                                     0.177 (MW) /      1.414 (MB)

	Size of irrep 0 of <iA|bC> integrals:      0.016 (MW) /      0.125 (MB)
	Size of irrep 1 of <iA|bC> integrals:      0.006 (MW) /      0.045 (MB)
	Size of irrep 2 of <iA|bC> integrals:      0.006 (MW) /      0.045 (MB)
	Size of irrep 3 of <iA|bC> integrals:      0.006 (MW) /      0.045 (MB)
	Size of irrep 4 of <iA|bC> integrals:      0.002 (MW) /      0.015 (MB)
	Size of irrep 5 of <iA|bC> integrals:      0.008 (MW) /      0.062 (MB)
	Size of irrep 6 of <iA|bC> integrals:      0.008 (MW) /      0.062 (MB)
	Size of irrep 7 of <iA|bC> integrals:      0.009 (MW) /      0.069 (MB)
	Total:                                     0.058 (MW) /      0.467 (MB)

	Size of irrep 0 of tIjAb amplitudes:       0.001 (MW) /      0.007 (MB)
	Size of irrep 1 of tIjAb amplitudes:       0.000 (MW) /      0.000 (MB)
	Size of irrep 2 of tIjAb amplitudes:       0.000 (MW) /      0.000 (MB)
	Size of irrep 3 of tIjAb amplitudes:       0.000 (MW) /      0.000 (MB)
	Size of irrep 4 of tIjAb amplitudes:       0.000 (MW) /      0.000 (MB)
	Size of irrep 5 of tIjAb amplitudes:       0.001 (MW) /      0.006 (MB)
	Size of irrep 6 of tIjAb amplitudes:       0.001 (MW) /      0.006 (MB)
	Size of irrep 7 of tIjAb amplitudes:       0.000 (MW) /      0.000 (MB)
	Total:                                     0.002 (MW) /      0.019 (MB)

	Nuclear Rep. energy          =      0.00000000000000
	SCF energy                   =    -37.69335153642172
	One-electron energy          =     -8.37599906284422
	Two-electron (AA) energy     =      1.38135909447352
	Two-electron (BB) energy     =      0.00000000000000
	Two-electron (AB) energy     =      1.66116030071788
	Two-electron energy          =      3.04251939519140
	Reference energy             =    -37.69335153642183

*** tstop() called on n412-052.vsc4.prov at Wed Jan 20 20:48:53 2021
Module time:
	user time   =       0.56 seconds =       0.01 minutes
	system time =       0.73 seconds =       0.01 minutes
	total time  =          4 seconds =       0.07 minutes
Total time:
	user time   =      15.73 seconds =       0.26 minutes
	system time =       1.27 seconds =       0.02 minutes
	total time  =          7 seconds =       0.12 minutes
            **************************
            *                        *
            *        CCENERGY        *
            *                        *
            **************************

    Nuclear Rep. energy (wfn)     =    0.000000000000000
    SCF energy          (wfn)     =  -37.693351536421723
    Reference energy    (file100) =  -37.693351536421829

    Input parameters:
    -----------------
    Wave function   =     CCSD_T
    Reference wfn   =     UHF
    Brueckner       =     No
    Memory (Mbytes) =     250000.0
    Maxiter         =     50
    R_Convergence   =     1.0e-07
    E_Convergence   =     1.0e-06
    Restart         =     Yes
    DIIS            =     Yes
    AO Basis        =     NONE
    ABCD            =     NEW
    Cache Level     =     2
    Cache Type      =     LRU
    Print Level     =     1
    Num. of threads =     48
    # Amps to Print =     10
    Print MP2 Amps? =     No
    Analyze T2 Amps =     No
    Print Pair Ener =     No
    Local CC        =     No
    SCS-MP2         =     False
    SCSN-MP2        =     False
    SCS-CCSD        =     False

MP2 correlation energy -0.0725205615192843
                Solving CC Amplitude Equations
                ------------------------------
  Iter             Energy              RMS        T1Diag      D1Diag    New D1Diag    D2Diag
  ----     ---------------------    ---------   ----------  ----------  ----------   --------
     0        -0.072520561519284    0.000e+00    0.000000    0.000000    0.000000    0.000000
     1        -0.084439234293021    4.505e-02    0.006662    0.000000    0.000000    0.000000
     2        -0.090606624818784    2.053e-02    0.012089    0.000000    0.000000    0.000000
     3        -0.091087959247856    5.074e-03    0.013834    0.000000    0.000000    0.000000
     4        -0.091125043406818    9.155e-04    0.013979    0.000000    0.000000    0.000000
     5        -0.091117423764520    2.355e-04    0.013948    0.000000    0.000000    0.000000
     6        -0.091120215642003    6.524e-05    0.013933    0.000000    0.000000    0.000000
     7        -0.091120694211200    1.665e-05    0.013931    0.000000    0.000000    0.000000
     8        -0.091120431310897    5.066e-06    0.013930    0.000000    0.000000    0.000000
     9        -0.091120443481999    1.715e-06    0.013930    0.000000    0.000000    0.000000
    10        -0.091120443825101    5.832e-07    0.013931    0.000000    0.000000    0.000000
    11        -0.091120443309993    1.323e-07    0.013931    0.000000    0.000000    0.000000
    12        -0.091120440495457    3.767e-08    0.013931    0.000000    0.000000    0.000000

    Iterations converged.


    Largest TIA Amplitudes:
              0   5        -0.0132992073
              0   1         0.0075890755
              0  11         0.0069557459
              1  45        -0.0058638317
              2  55        -0.0058638317
              1  46        -0.0040277364
              2  56        -0.0040277364
              0   0        -0.0024925456
              1  49         0.0015996607
              2  59         0.0015996607

    Largest Tia Amplitudes:
              0   3         0.0141534795
              0   0        -0.0117503368
              0   8        -0.0054276156
              0   1         0.0007236445
              0  10         0.0006120941
              0   6         0.0002900439
              0  12        -0.0002072857
              0  15         0.0000929946
              0   4         0.0000860056
              0  17         0.0000695920

    Largest TIJAB Amplitudes:
      2   1  56  46        -0.0268033842
      2   1  35   4        -0.0198146741
      2   1  56  49        -0.0166783148
      2   1  59  46        -0.0166783148
      2   1  59  49        -0.0149372539
      1   0  46   3         0.0147727938
      2   0  56   3         0.0147727938
      2   1  55  46        -0.0133159134
      2   1  56  45        -0.0133159134
      2   1  38  10        -0.0116480860

    Largest TIjAb Amplitudes:
      0   0  65  67         0.0665225863
      0   0  65  68         0.0662181931
      0   0  66  68         0.0450837650
      0   0  66  67         0.0450420800
      0   0  65  69         0.0413653590
      0   0  67  68         0.0317261880
      0   0  67  67         0.0310371155
      1   0   4  46         0.0290479037
      1   0  35  57         0.0290479037
      2   0   4  57        -0.0290479037

    SCF energy       (wfn)                    =  -37.693351536421723
    Reference energy (file100)                =  -37.693351536421829

    Opposite-spin MP2 correlation energy      =   -0.058976790320695
    Same-spin MP2 correlation energy          =   -0.013543771198589
    Singles MP2 correlation energy            =   -0.000000000000000
    MP2 correlation energy                    =   -0.072520561519284
      * MP2 total energy                      =  -37.765872097941113

    Opposite-spin CCSD correlation energy     =   -0.075882229704217
    Same-spin CCSD correlation energy         =   -0.015238210791240
    Singles CCSD correlation energy           =    0.000000000000000
    CCSD correlation energy                   =   -0.091120440495457
      * CCSD total energy                     =  -37.784471976917288

            **************************
            *                        *
            *        CCTRIPLES       *
            *                        *
            **************************


    Wave function   =    CCSD_T
    Reference wfn   =      UHF

    Nuclear Rep. energy (wfn)                =    0.000000000000000
    SCF energy          (wfn)                =  -37.693351536421723
    Reference energy    (file100)            =  -37.693351536421829
    CCSD energy         (file100)            =   -0.091120440495457
    Total CCSD energy   (file100)            =  -37.784471976917288

    Number of ijk index combinations:
    Spin Case AAA:                                   1
    Spin Case BBB:                                   0
    Spin Case AAB:                                   3
    Spin Case ABB:                                   0
    AAA (T) energy                             =   -0.000068804011411
    BBB (T) energy                             =    0.000000000000000
    AAB (T) energy                             =   -0.002334205317151
    ABB (T) energy                             =    0.000000000000000
    (T) energy                                   =   -0.002403009328561
      * CCSD(T) total energy                     =  -37.786874986245849


    Psi4 stopped on: Wednesday, 20 January 2021 08:48PM
    Psi4 wall time for execution: 0:00:12.62

*** Psi4 exiting successfully. Buy a developer a beer!
