
    -----------------------------------------------------------------------
          Psi4: An Open-Source Ab Initio Electronic Structure Package
                               Psi4 1.4a3.dev88 

                         Git: Rev {master} 262e345 


    D. G. A. Smith, L. A. Burns, A. C. Simmonett, R. M. Parrish,
    M. C. Schieber, R. Galvelis, P. Kraus, H. Kruse, R. Di Remigio,
    A. Alenaizan, A. M. James, S. Lehtola, J. P. Misiewicz, M. Scheurer,
    R. A. Shaw, J. B. Schriber, Y. Xie, Z. L. Glick, D. A. Sirianni,
    J. S. O'Brien, J. M. Waldrop, A. Kumar, E. G. Hohenstein,
    B. P. Pritchard, B. R. Brooks, H. F. Schaefer III, A. Yu. Sokolov,
    K. Patkowski, A. E. DePrince III, U. Bozkaya, R. A. King,
    F. A. Evangelista, J. M. Turney, T. D. Crawford, C. D. Sherrill,
    J. Chem. Phys. 152(18) 184108 (2020). https://doi.org/10.1063/5.0006002

                            Additional Code Authors
    E. T. Seidl, C. L. Janssen, E. F. Valeev, M. L. Leininger,
    J. F. Gonthier, R. M. Richard, H. R. McAlexander, M. Saitow, X. Wang,
    P. Verma, and M. H. Lechner

             Previous Authors, Complete List of Code Contributors,
                       and Citations for Specific Modules
    https://github.com/psi4/psi4/blob/master/codemeta.json
    https://github.com/psi4/psi4/graphs/contributors
    http://psicode.org/psi4manual/master/introduction.html#citing-psifour

    -----------------------------------------------------------------------


    Psi4 started on: Thursday, 21 January 2021 02:06PM

    Process ID: 233344
    Host:       n411-011.vsc4.prov
    PSIDATADIR: /home/fs71337/gallo4/psi4/eri-6/psi4/build/stage/share/psi4
    Memory:     500.0 MiB
    Threads:    48
    
  ==> Input File <==

--------------------------------------------------------------------------
# Any line starting with the # character is a comment line
memory 250000 mb
molecule molecule{
0 3
C          0.0000000000        0.0000000000        0.0000000000
}

set {
  reference uhf
  basis aug-cc-pV(6+d)Z
  scf_type OUT_OF_CORE
  freeze_core true
}

energy('ccsd(t)')
--------------------------------------------------------------------------

  Memory set to 232.831 GiB by Python driver.

Scratch directory: /binfl/lv71337/airmler/temp/

*** tstart() called on n411-011.vsc4.prov
*** at Thu Jan 21 14:06:38 2021

   => Loading Basis Set <=

    Name: AUG-CC-PV(6+D)Z
    Role: ORBITAL
    Keyword: BASIS
    atoms 1 entry C          line   267 file /home/fs71337/gallo4/psi4/eri-6/psi4/build/stage/share/psi4/basis/aug-cc-pv_6pd_z.gbs 


         ---------------------------------------------------------
                                   SCF
               by Justin Turney, Rob Parrish, Andy Simmonett
                          and Daniel G. A. Smith
                              UHF Reference
                       48 Threads, 238418 MiB Core
         ---------------------------------------------------------

  ==> Geometry <==

    Molecular point group: d2h
    Geometry (in Angstrom), charge = 0, multiplicity = 3:

       Center              X                  Y                   Z               Mass       
    ------------   -----------------  -----------------  -----------------  -----------------
         C            0.000000000000     0.000000000000     0.000000000000    12.000000000000

  Running in d2h symmetry.

  Rotational constants: A = ************  B = ************  C = ************ [cm^-1]
  Rotational constants: A = ************  B = ************  C = ************ [MHz]
  Nuclear repulsion =    0.000000000000000

  Charge       = 0
  Multiplicity = 3
  Electrons    = 6
  Nalpha       = 4
  Nbeta        = 2

  ==> Algorithm <==

  SCF Algorithm Type is OUT_OF_CORE.
  DIIS enabled.
  MOM disabled.
  Fractional occupation disabled.
  Guess Type is CORE.
  Energy threshold   = 1.00e-08
  Density threshold  = 1.00e-08
  Integral threshold = 1.00e-12

  ==> Primary Basis <==

  Basis Set: AUG-CC-PV(6+D)Z
    Blend: AUG-CC-PV(6+D)Z
    Number of shells: 35
    Number of basis function: 189
    Number of Cartesian functions: 294
    Spherical Harmonics?: true
    Max angular momentum: 6

  ==> Integral Setup <==

  ==> DiskJK: Disk-Based J/K Matrices <==

    J tasked:                  Yes
    K tasked:                  Yes
    wK tasked:                  No
    Memory [MiB]:           178813
    Schwarz Cutoff:          1E-12

  Minimum eigenvalue in the overlap matrix is 6.3560217979E-04.
  Reciprocal condition number of the overlap matrix is 1.4402261726E-04.
    Using symmetric orthogonalization.

  ==> Pre-Iterations <==

  SCF Guess: Core (One-Electron) Hamiltonian.

   -------------------------------------------------------
    Irrep   Nso     Nmo     Nalpha   Nbeta   Ndocc  Nsocc
   -------------------------------------------------------
     Ag        40      40       2       2       2       0
     B1g       20      20       0       0       0       0
     B2g       20      20       0       0       0       0
     B3g       20      20       0       0       0       0
     Au        11      11       0       0       0       0
     B1u       26      26       1       0       0       1
     B2u       26      26       0       0       0       0
     B3u       26      26       1       0       0       1
   -------------------------------------------------------
    Total     189     189       4       2       2       2
   -------------------------------------------------------

  ==> Iterations <==

                        Total Energy        Delta E     RMS |[F,P]|

   @UHF iter   1:   -34.43352613780262   -3.44335e+01   5.50984e-02 DIIS
   @UHF iter   2:   -36.52088014755829   -2.08735e+00   1.12720e-02 DIIS
   @UHF iter   3:   -37.60665704635228   -1.08578e+00   5.52745e-03 DIIS
   @UHF iter   4:   -37.68701848447954   -8.03614e-02   1.30589e-03 DIIS
   @UHF iter   5:   -37.69363957537708   -6.62109e-03   1.32157e-04 DIIS
   @UHF iter   6:   -37.69372528731528   -8.57119e-05   3.14815e-05 DIIS
   @UHF iter   7:   -37.69373182046492   -6.53315e-06   7.75105e-06 DIIS
   @UHF iter   8:   -37.69373230160010   -4.81135e-07   1.73504e-06 DIIS
   @UHF iter   9:   -37.69373232204173   -2.04416e-08   1.44204e-07 DIIS
   @UHF iter  10:   -37.69373232217323   -1.31500e-10   8.20116e-09 DIIS
  Energy and wave function converged.


  ==> Post-Iterations <==

   @Spin Contamination Metric:   1.044767583E-02
   @S^2 Expected:                2.000000000E+00
   @S^2 Observed:                2.010447676E+00
   @S   Expected:                1.000000000E+00
   @S   Observed:                1.000000000E+00

    Orbital Energies [Eh]
    ---------------------

    Alpha Occupied:                                                       

       1Ag   -11.345480     2Ag    -0.829217     1B1u   -0.439093  
       1B3u   -0.439093  

    Alpha Virtual:                                                        

       1B2u    0.015545     2B1u    0.055079     2B3u    0.055079  
       3Ag     0.061784     2B2u    0.070484     4Ag     0.190476  
       1B1g    0.191031     1B3g    0.191031     5Ag     0.193131  
       1B2g    0.193131     3B1u    0.228741     3B3u    0.228741  
       3B2u    0.258425     6Ag     0.332108     4B2u    0.469349  
       4B1u    0.470197     4B3u    0.470197     1Au     0.472763  
       5B2u    0.472763     5B1u    0.477095     5B3u    0.477095  
       7Ag     0.576160     2B2g    0.576160     2B1g    0.581314  
       2B3g    0.581314     8Ag     0.583700     6B1u    0.687759  
       6B3u    0.687759     6B2u    0.722073     9Ag     1.147307  
      10Ag     1.241893     3B3g    1.242895     3B1g    1.242895  
      11Ag     1.245916     3B2g    1.245916     4B1g    1.250993  
       4B3g    1.250993    12Ag     1.258147     4B2g    1.258147  
       7B2u    1.325850     7B1u    1.327422     7B3u    1.327422  
       8B2u    1.332115     2Au     1.332115     8B1u    1.339880  
       8B3u    1.339880    13Ag     1.415016     5B2g    1.415016  
       5B1g    1.424399     5B3g    1.424399    14Ag     1.428560  
       9B3u    1.794577     9B1u    1.794577     9B2u    1.812743  
      10B2u    2.599459    10B1u    2.600502    10B3u    2.600502  
       3Au     2.603636    11B2u    2.603636    11B3u    2.608885  
      11B1u    2.608885     4Au     2.616284    12B2u    2.616284  
      12B3u    2.625885    12B1u    2.625885    13B2u    3.047845  
      13B1u    3.050367    13B3u    3.050367    14B2u    3.057913  
       5Au     3.057913    14B1u    3.070445    14B3u    3.070445  
      15Ag     3.204031     6B3g    3.205980     6B1g    3.205980  
      16Ag     3.211830     6B2g    3.211830     7B1g    3.221570  
       7B3g    3.221570    17Ag     3.235093     7B2g    3.235093  
      18Ag     3.341664     8B1g    3.342853     8B3g    3.342853  
      19Ag     3.345471     8B2g    3.345471    20Ag     3.442101  
      15B2u    4.439605    15B3u    4.446103    15B1u    4.446103  
      21Ag     5.307632     9B1g    5.308748     9B3g    5.308748  
       9B2g    5.312101    22Ag     5.312101    10B3g    5.317708  
      10B1g    5.317708    23Ag     5.325597    10B2g    5.325597  
      11B1g    5.335807    11B3g    5.335807    11B2g    5.348390  
      24Ag     5.348390    16B2u    6.161851    16B3u    6.163644  
      16B1u    6.163644     6Au     6.169035    17B2u    6.169035  
      17B3u    6.178055    17B1u    6.178055     7Au     6.190756  
      18B2u    6.190756    18B3u    6.207212    18B1u    6.207212  
      19B2u    6.643331    19B1u    6.647315    19B3u    6.647315  
       8Au     6.659297    20B2u    6.659297    20B1u    6.679380  
      20B3u    6.679380    25Ag     7.322355    12B1g    7.325269  
      12B3g    7.325269    26Ag     7.334012    12B2g    7.334012  
      13B1g    7.348589    13B3g    7.348589    27Ag     7.369000  
      13B2g    7.369000    28Ag     7.915626    14B1g    7.921622  
      14B3g    7.921622    29Ag     7.940032    14B2g    7.940032  
      30Ag    10.731821    31Ag    12.465984    15B1g   12.467671  
      15B3g   12.467671    32Ag    12.472739    15B2g   12.472739  
      16B3g   12.481207    16B1g   12.481207    33Ag    12.493105  
      16B2g   12.493105    17B3g   12.508478    17B1g   12.508478  
      34Ag    12.527384    17B2g   12.527384    21B2u   12.887427  
      21B1u   12.904534    21B3u   12.904534    22B2u   14.502867  
      22B1u   14.505299    22B3u   14.505299    23B2u   14.512596  
       9Au    14.512596    23B3u   14.524770    23B1u   14.524770  
      10Au    14.541846    24B2u   14.541846    24B1u   14.563872  
      24B3u   14.563872    25B2u   14.637809    25B1u   14.642535  
      25B3u   14.642535    11Au    14.656776    26B2u   14.656776  
      26B1u   14.680725    26B3u   14.680725    35Ag    16.783314  
      18B1g   16.786693    18B3g   16.786693    18B2g   16.796844  
      36Ag    16.796844    19B1g   16.813807    19B3g   16.813807  
      37Ag    16.837646    19B2g   16.837646    38Ag    19.249705  
      20B3g   19.257457    20B1g   19.257457    39Ag    19.281018  
      20B2g   19.281018    40Ag    53.594646  

    Beta Occupied:                                                        

       1Ag   -11.300461     2Ag    -0.583411  

    Beta Virtual:                                                         

       1B2u    0.030864     1B1u    0.044734     1B3u    0.044734  
       3Ag     0.067766     2B2u    0.085010     2B1u    0.118750  
       2B3u    0.118750     4Ag     0.192614     1B1g    0.194244  
       1B3g    0.194244     5Ag     0.199412     1B2g    0.199412  
       3B2u    0.272356     3B1u    0.300947     3B3u    0.300947  
       6Ag     0.356996     4B2u    0.471434     4B1u    0.472604  
       4B3u    0.472604     1Au     0.476106     5B2u    0.476106  
       5B1u    0.482094     5B3u    0.482094     7Ag     0.600696  
       2B1g    0.606272     2B3g    0.606272     8Ag     0.624688  
       2B2g    0.624688     6B2u    0.738740     6B1u    0.773274  
       6B3u    0.773274     9Ag     1.193856    10Ag     1.246032  
       3B3g    1.247344     3B1g    1.247344    11Ag     1.251304  
       3B2g    1.251304     4B1g    1.257994     4B3g    1.257994  
      12Ag     1.267567     4B2g    1.267567     7B2u    1.337838  
       7B1u    1.341250     7B3u    1.341250     8B2u    1.351476  
       2Au     1.351476     8B1u    1.368773     8B3u    1.368773  
      13Ag     1.466193     5B1g    1.476907     5B3g    1.476907  
      14Ag     1.512137     5B2g    1.512137     9B2u    1.831813  
       9B3u    1.879240     9B1u    1.879240    10B2u    2.604874  
      10B3u    2.606187    10B1u    2.606187     3Au     2.610139  
      11B2u    2.610139    11B3u    2.616766    11B1u    2.616766  
       4Au     2.626130    12B2u    2.626130    12B3u    2.638324  
      12B1u    2.638324    13B2u    3.072537    13B1u    3.078451  
      13B3u    3.078451    14B2u    3.096289     5Au     3.096289  
      14B1u    3.126497    14B3u    3.126497    15Ag     3.217939  
       6B3g    3.220870     6B1g    3.220870    16Ag     3.229702  
       6B2g    3.229702     7B1g    3.244568     7B3g    3.244568  
      17Ag     3.265742     7B2g    3.265742    18Ag     3.384398  
       8B1g    3.398856     8B3g    3.398856    19Ag     3.444587  
       8B2g    3.444587    20Ag     3.493967    15B2u    4.459540  
      15B3u    4.517757    15B1u    4.517757    21Ag     5.314969  
       9B1g    5.316329     9B3g    5.316329     9B2g    5.320417  
      22Ag     5.320417    10B3g    5.327258    10B1g    5.327258  
      23Ag     5.336895    10B2g    5.336895    11B1g    5.349390  
      11B3g    5.349390    11B2g    5.364823    24Ag     5.364823  
      16B2u    6.174729    16B3u    6.177117    16B1u    6.177117  
       6Au     6.184297    17B2u    6.184297    17B3u    6.196326  
      17B1u    6.196326     7Au     6.213299    18B2u    6.213299  
      18B3u    6.235357    18B1u    6.235357    19B2u    6.672633  
      19B1u    6.680234    19B3u    6.680234     8Au     6.703187  
      20B2u    6.703187    20B1u    6.742022    20B3u    6.742022  
      25Ag     7.344014    12B1g    7.348425    12B3g    7.348425  
      26Ag     7.361684    12B2g    7.361684    13B1g    7.383886  
      13B3g    7.383886    27Ag     7.415231    13B2g    7.415231  
      28Ag     7.948657    14B1g    7.964323    14B3g    7.964323  
      29Ag     8.012943    14B2g    8.012943    30Ag    10.768889  
      31Ag    12.479017    15B3g   12.481099    15B1g   12.481099  
      32Ag    12.487357    15B2g   12.487357    16B3g   12.497817  
      16B1g   12.497817    33Ag    12.512526    16B2g   12.512526  
      17B3g   12.531550    17B1g   12.531550    34Ag    12.554978  
      17B2g   12.554978    21B2u   12.901096    21B1u   12.948452  
      21B3u   12.948452    22B2u   14.520572    22B1u   14.523808  
      22B3u   14.523808    23B2u   14.533497     9Au    14.533497  
      23B3u   14.549617    23B1u   14.549617    10Au    14.572174  
      24B2u   14.572174    24B1u   14.601237    24B3u   14.601237  
      25B2u   14.662565    25B1u   14.670076    25B3u   14.670076  
      11Au    14.692759    26B2u   14.692759    26B1u   14.731114  
      26B3u   14.731114    35Ag    16.804472    18B1g   16.809212  
      18B3g   16.809212    18B2g   16.823461    36Ag    16.823461  
      19B1g   16.847300    19B3g   16.847300    37Ag    16.880873  
      19B2g   16.880873    38Ag    19.269212    20B3g   19.282457  
      20B1g   19.282457    39Ag    19.322890    20B2g   19.322890  
      40Ag    53.607246  

    Final Occupation by Irrep:
             Ag   B1g   B2g   B3g    Au   B1u   B2u   B3u 
    DOCC [     2,    0,    0,    0,    0,    0,    0,    0 ]
    SOCC [     0,    0,    0,    0,    0,    1,    0,    1 ]

  @UHF Final Energy:   -37.69373232217323

   => Energetics <=

    Nuclear Repulsion Energy =              0.0000000000000000
    One-Electron Energy =                 -50.4507079165904599
    Two-Electron Energy =                  12.7569755944172343
    Total Energy =                        -37.6937323221732257

  UHF NO Occupations:
  HONO-2 :    2 Ag 1.9947662
  HONO-1 :    1B1u 1.0000000
  HONO-0 :    1B3u 1.0000000
  LUNO+0 :    3 Ag 0.0052338
  LUNO+1 :    4 Ag 0.0000038
  LUNO+2 :    5 Ag 0.0000000
  LUNO+3 :    2B1u 0.0000000


Computation Completed


Properties will be evaluated at   0.000000,   0.000000,   0.000000 [a0]

Properties computed using the SCF density matrix

  Nuclear Dipole Moment: [e a0]
     X:     0.0000      Y:     0.0000      Z:     0.0000

  Electronic Dipole Moment: [e a0]
     X:     0.0000      Y:     0.0000      Z:     0.0000

  Dipole Moment: [e a0]
     X:     0.0000      Y:     0.0000      Z:     0.0000     Total:     0.0000

  Dipole Moment: [D]
     X:     0.0000      Y:     0.0000      Z:     0.0000     Total:     0.0000


*** tstop() called on n411-011.vsc4.prov at Thu Jan 21 14:08:21 2021
Module time:
	user time   =     109.35 seconds =       1.82 minutes
	system time =       3.15 seconds =       0.05 minutes
	total time  =        103 seconds =       1.72 minutes
Total time:
	user time   =     109.35 seconds =       1.82 minutes
	system time =       3.15 seconds =       0.05 minutes
	total time  =        103 seconds =       1.72 minutes

*** tstart() called on n411-011.vsc4.prov
*** at Thu Jan 21 14:08:21 2021


	Wfn Parameters:
	--------------------
	Wavefunction         = CCSD_T
	Number of irreps     = 8
	Number of MOs        = 189
	Number of active MOs = 188
	AO-Basis             = NONE
	Semicanonical        = false
	Reference            = UHF
	Print Level          = 1

	IRREP	# MOs	# FZDC	# DOCC	# SOCC	# VIRT	# FZVR
	-----	-----	------	------	------	------	------
	 Ag	   40	    1	    1	    0	    38	    0
	 B1g	   20	    0	    0	    0	    20	    0
	 B2g	   20	    0	    0	    0	    20	    0
	 B3g	   20	    0	    0	    0	    20	    0
	 Au	   11	    0	    0	    0	    11	    0
	 B1u	   26	    0	    0	    1	    25	    0
	 B2u	   26	    0	    0	    0	    26	    0
	 B3u	   26	    0	    0	    1	    25	    0
	Transforming integrals...
	IWL integrals will be deleted.
	(OO|OO)...
	Presorting SO-basis two-electron integrals.
	Sorting File: SO Ints (nn|nn) nbuckets = 1
	Constructing frozen core operators
	Starting AA/AB first half-transformation.
	Sorting AA/AB half-transformed integrals.
	Starting BB first half-transformation.
	Sorting BB half-transformed integrals.
	First half integral transformation complete.
	Starting AA second half-transformation.
	Starting AB second half-transformation.
	Starting BB second half-transformation.
	Two-electron integral transformation complete.
	(OO|OV)...
	Starting AA second half-transformation.
	Starting AB second half-transformation.
	Starting BB second half-transformation.
	Two-electron integral transformation complete.
	(OO|VV)...
	Starting AA second half-transformation.
	Starting AB second half-transformation.
	Starting BB second half-transformation.
	Two-electron integral transformation complete.
	(OV|OO)...
	Starting AA/AB first half-transformation.
	Sorting AA/AB half-transformed integrals.
	Starting BB first half-transformation.
	Sorting BB half-transformed integrals.
	First half integral transformation complete.
	Starting AA second half-transformation.
	Starting AB second half-transformation.
	Starting BB second half-transformation.
	Two-electron integral transformation complete.
	(OV|OV)...
	Starting AA second half-transformation.
	Starting AB second half-transformation.
	Starting BB second half-transformation.
	Two-electron integral transformation complete.
	(OV|VV)...
	Starting AA second half-transformation.
	Starting AB second half-transformation.
	Starting BB second half-transformation.
	Two-electron integral transformation complete.
	(VV|OO)...
	Starting AA/AB first half-transformation.
	Sorting AA/AB half-transformed integrals.
	Starting BB first half-transformation.
	Sorting BB half-transformed integrals.
	First half integral transformation complete.
	Starting AA second half-transformation.
	Starting AB second half-transformation.
	Starting BB second half-transformation.
	Two-electron integral transformation complete.
	(VV|OV)...
	Starting AA second half-transformation.
	Starting AB second half-transformation.
	Starting BB second half-transformation.
	Two-electron integral transformation complete.
	(VV|VV)...
	Starting AA second half-transformation.
	Starting AB second half-transformation.
	Starting BB second half-transformation.
	Two-electron integral transformation complete.
	Frozen core energy     =    -32.35995570601954

	Size of irrep 0 of <AB|CD> integrals:      5.076 (MW) /     40.608 (MB)
	Size of irrep 1 of <AB|CD> integrals:      4.347 (MW) /     34.778 (MB)
	Size of irrep 2 of <AB|CD> integrals:      4.289 (MW) /     34.312 (MB)
	Size of irrep 3 of <AB|CD> integrals:      4.347 (MW) /     34.778 (MB)
	Size of irrep 4 of <AB|CD> integrals:      3.756 (MW) /     30.047 (MB)
	Size of irrep 5 of <AB|CD> integrals:      4.796 (MW) /     38.369 (MB)
	Size of irrep 6 of <AB|CD> integrals:      4.875 (MW) /     39.002 (MB)
	Size of irrep 7 of <AB|CD> integrals:      4.796 (MW) /     38.369 (MB)
	Total:                                    36.283 (MW) /    290.262 (MB)

	Size of irrep 0 of <ab|cd> integrals:      5.304 (MW) /     42.430 (MB)
	Size of irrep 1 of <ab|cd> integrals:      4.503 (MW) /     36.023 (MB)
	Size of irrep 2 of <ab|cd> integrals:      4.503 (MW) /     36.023 (MB)
	Size of irrep 3 of <ab|cd> integrals:      4.503 (MW) /     36.023 (MB)
	Size of irrep 4 of <ab|cd> integrals:      3.912 (MW) /     31.300 (MB)
	Size of irrep 5 of <ab|cd> integrals:      5.054 (MW) /     40.428 (MB)
	Size of irrep 6 of <ab|cd> integrals:      5.054 (MW) /     40.428 (MB)
	Size of irrep 7 of <ab|cd> integrals:      5.054 (MW) /     40.428 (MB)
	Total:                                    37.885 (MW) /    303.084 (MB)

	Size of irrep 0 of <Ab|Cd> integrals:     22.477 (MW) /    179.817 (MB)
	Size of irrep 1 of <Ab|Cd> integrals:     17.699 (MW) /    141.591 (MB)
	Size of irrep 2 of <Ab|Cd> integrals:     17.573 (MW) /    140.583 (MB)
	Size of irrep 3 of <Ab|Cd> integrals:     17.699 (MW) /    141.591 (MB)
	Size of irrep 4 of <Ab|Cd> integrals:     15.335 (MW) /    122.680 (MB)
	Size of irrep 5 of <Ab|Cd> integrals:     19.696 (MW) /    157.567 (MB)
	Size of irrep 6 of <Ab|Cd> integrals:     19.856 (MW) /    158.847 (MB)
	Size of irrep 7 of <Ab|Cd> integrals:     19.696 (MW) /    157.567 (MB)
	Total:                                   150.030 (MW) /   1200.243 (MB)

	Size of irrep 0 of <IA|BC> integrals:      0.413 (MW) /      3.302 (MB)
	Size of irrep 1 of <IA|BC> integrals:      0.238 (MW) /      1.902 (MB)
	Size of irrep 2 of <IA|BC> integrals:      0.290 (MW) /      2.320 (MB)
	Size of irrep 3 of <IA|BC> integrals:      0.238 (MW) /      1.902 (MB)
	Size of irrep 4 of <IA|BC> integrals:      0.198 (MW) /      1.581 (MB)
	Size of irrep 5 of <IA|BC> integrals:      0.364 (MW) /      2.908 (MB)
	Size of irrep 6 of <IA|BC> integrals:      0.291 (MW) /      2.332 (MB)
	Size of irrep 7 of <IA|BC> integrals:      0.364 (MW) /      2.908 (MB)
	Total:                                     2.394 (MW) /     19.155 (MB)

	Size of irrep 0 of <ia|bc> integrals:      0.182 (MW) /      1.457 (MB)
	Size of irrep 1 of <ia|bc> integrals:      0.085 (MW) /      0.679 (MB)
	Size of irrep 2 of <ia|bc> integrals:      0.085 (MW) /      0.679 (MB)
	Size of irrep 3 of <ia|bc> integrals:      0.085 (MW) /      0.679 (MB)
	Size of irrep 4 of <ia|bc> integrals:      0.044 (MW) /      0.348 (MB)
	Size of irrep 5 of <ia|bc> integrals:      0.117 (MW) /      0.935 (MB)
	Size of irrep 6 of <ia|bc> integrals:      0.117 (MW) /      0.935 (MB)
	Size of irrep 7 of <ia|bc> integrals:      0.117 (MW) /      0.935 (MB)
	Total:                                     0.831 (MW) /      6.648 (MB)

	Size of irrep 0 of <Ia|Bc> integrals:      0.427 (MW) /      3.414 (MB)
	Size of irrep 1 of <Ia|Bc> integrals:      0.240 (MW) /      1.918 (MB)
	Size of irrep 2 of <Ia|Bc> integrals:      0.302 (MW) /      2.415 (MB)
	Size of irrep 3 of <Ia|Bc> integrals:      0.240 (MW) /      1.918 (MB)
	Size of irrep 4 of <Ia|Bc> integrals:      0.200 (MW) /      1.598 (MB)
	Size of irrep 5 of <Ia|Bc> integrals:      0.373 (MW) /      2.982 (MB)
	Size of irrep 6 of <Ia|Bc> integrals:      0.294 (MW) /      2.353 (MB)
	Size of irrep 7 of <Ia|Bc> integrals:      0.373 (MW) /      2.982 (MB)
	Total:                                     2.448 (MW) /     19.580 (MB)

	Size of irrep 0 of <iA|bC> integrals:      0.180 (MW) /      1.441 (MB)
	Size of irrep 1 of <iA|bC> integrals:      0.084 (MW) /      0.673 (MB)
	Size of irrep 2 of <iA|bC> integrals:      0.084 (MW) /      0.671 (MB)
	Size of irrep 3 of <iA|bC> integrals:      0.084 (MW) /      0.673 (MB)
	Size of irrep 4 of <iA|bC> integrals:      0.043 (MW) /      0.345 (MB)
	Size of irrep 5 of <iA|bC> integrals:      0.111 (MW) /      0.888 (MB)
	Size of irrep 6 of <iA|bC> integrals:      0.116 (MW) /      0.927 (MB)
	Size of irrep 7 of <iA|bC> integrals:      0.111 (MW) /      0.888 (MB)
	Total:                                     0.813 (MW) /      6.505 (MB)

	Size of irrep 0 of tIjAb amplitudes:       0.005 (MW) /      0.038 (MB)
	Size of irrep 1 of tIjAb amplitudes:       0.000 (MW) /      0.000 (MB)
	Size of irrep 2 of tIjAb amplitudes:       0.000 (MW) /      0.000 (MB)
	Size of irrep 3 of tIjAb amplitudes:       0.000 (MW) /      0.000 (MB)
	Size of irrep 4 of tIjAb amplitudes:       0.000 (MW) /      0.000 (MB)
	Size of irrep 5 of tIjAb amplitudes:       0.004 (MW) /      0.036 (MB)
	Size of irrep 6 of tIjAb amplitudes:       0.000 (MW) /      0.000 (MB)
	Size of irrep 7 of tIjAb amplitudes:       0.004 (MW) /      0.036 (MB)
	Total:                                     0.014 (MW) /      0.109 (MB)

	Nuclear Rep. energy          =      0.00000000000000
	SCF energy                   =    -37.69373232217323
	One-electron energy          =     -8.37673855526779
	Two-electron (AA) energy     =      1.38165103007083
	Two-electron (BB) energy     =      0.00000000000000
	Two-electron (AB) energy     =      1.66131090904288
	Two-electron energy          =      3.04296193911371
	Reference energy             =    -37.69373232217362

*** tstop() called on n411-011.vsc4.prov at Thu Jan 21 14:09:22 2021
Module time:
	user time   =      17.03 seconds =       0.28 minutes
	system time =      11.56 seconds =       0.19 minutes
	total time  =         61 seconds =       1.02 minutes
Total time:
	user time   =     126.38 seconds =       2.11 minutes
	system time =      14.71 seconds =       0.25 minutes
	total time  =        164 seconds =       2.73 minutes
            **************************
            *                        *
            *        CCENERGY        *
            *                        *
            **************************

    Nuclear Rep. energy (wfn)     =    0.000000000000000
    SCF energy          (wfn)     =  -37.693732322173226
    Reference energy    (file100) =  -37.693732322173624

    Input parameters:
    -----------------
    Wave function   =     CCSD_T
    Reference wfn   =     UHF
    Brueckner       =     No
    Memory (Mbytes) =     250000.0
    Maxiter         =     50
    R_Convergence   =     1.0e-07
    E_Convergence   =     1.0e-06
    Restart         =     Yes
    DIIS            =     Yes
    AO Basis        =     NONE
    ABCD            =     NEW
    Cache Level     =     2
    Cache Type      =     LRU
    Print Level     =     1
    Num. of threads =     48
    # Amps to Print =     10
    Print MP2 Amps? =     No
    Analyze T2 Amps =     No
    Print Pair Ener =     No
    Local CC        =     No
    SCS-MP2         =     False
    SCSN-MP2        =     False
    SCS-CCSD        =     False

MP2 correlation energy -0.0752698480513036
                Solving CC Amplitude Equations
                ------------------------------
  Iter             Energy              RMS        T1Diag      D1Diag    New D1Diag    D2Diag
  ----     ---------------------    ---------   ----------  ----------  ----------   --------
     0        -0.075269848051304    0.000e+00    0.000000    0.000000    0.000000    0.000000
     1        -0.085887141406975    4.450e-02    0.007039    0.000000    0.000000    0.000000
     2        -0.092205904199584    2.048e-02    0.012283    0.000000    0.000000    0.000000
     3        -0.092532821711982    5.020e-03    0.013941    0.000000    0.000000    0.000000
     4        -0.092633702539946    1.064e-03    0.014149    0.000000    0.000000    0.000000
     5        -0.092623239319306    2.955e-04    0.014128    0.000000    0.000000    0.000000
     6        -0.092623344092640    7.760e-05    0.014110    0.000000    0.000000    0.000000
     7        -0.092624925233160    2.190e-05    0.014106    0.000000    0.000000    0.000000
     8        -0.092624832960695    6.767e-06    0.014106    0.000000    0.000000    0.000000
     9        -0.092624697679546    2.070e-06    0.014106    0.000000    0.000000    0.000000
    10        -0.092624698786280    7.488e-07    0.014106    0.000000    0.000000    0.000000
    11        -0.092624706988253    1.899e-07    0.014106    0.000000    0.000000    0.000000
    12        -0.092624707145539    5.390e-08    0.014106    0.000000    0.000000    0.000000

    Iterations converged.


    Largest TIA Amplitudes:
              0   5         0.0121041097
              0  11        -0.0094567936
              0   1        -0.0058454862
              1 110        -0.0052494766
              2 161        -0.0052494766
              1 109        -0.0041223152
              2 160        -0.0041223152
              0  15        -0.0032982756
              0   0         0.0021306568
              0   6        -0.0018779528

    Largest Tia Amplitudes:
              0   3        -0.0144545950
              0   0         0.0102536964
              0   6         0.0089114636
              0  17        -0.0023551674
              0   1        -0.0008397977
              0   4         0.0005549963
              0  15        -0.0003818025
              0  10         0.0003351398
              0  12        -0.0002964571
              0   7         0.0002685570

    Largest TIJAB Amplitudes:
      2   1 164 113        -0.0198206931
      2   1 161 113        -0.0168575724
      2   1 164 110        -0.0168575724
      2   1 161 110        -0.0157775124
      2   1  59   4        -0.0154210720
      2   1  62  10        -0.0139942071
      2   1  59  10         0.0126121823
      2   1  62   4         0.0126121823
      2   1 164 116        -0.0119457089
      2   1 167 113        -0.0119457089

    Largest TIjAb Amplitudes:
      0   0 134 136         0.0627001546
      0   0 134 135         0.0531196689
      0   0 134 137         0.0452022868
      0   0 135 136         0.0433199697
      0   0 135 135         0.0366199296
      0   0 136 136         0.0345679260
      0   0 135 137         0.0314595281
      0   0 136 135         0.0290103616
      0   0 136 137         0.0257205079
      0   0 134 140         0.0244524457

    SCF energy       (wfn)                    =  -37.693732322173226
    Reference energy (file100)                =  -37.693732322173624

    Opposite-spin MP2 correlation energy      =   -0.061425164421166
    Same-spin MP2 correlation energy          =   -0.013844683630138
    Singles MP2 correlation energy            =   -0.000000000000000
    MP2 correlation energy                    =   -0.075269848051304
      * MP2 total energy                      =  -37.769002170224930

    Opposite-spin CCSD correlation energy     =   -0.077138819231380
    Same-spin CCSD correlation energy         =   -0.015485887914159
    Singles CCSD correlation energy           =    0.000000000000000
    CCSD correlation energy                   =   -0.092624707145539
      * CCSD total energy                     =  -37.786357029319163

            **************************
            *                        *
            *        CCTRIPLES       *
            *                        *
            **************************


    Wave function   =    CCSD_T
    Reference wfn   =      UHF

    Nuclear Rep. energy (wfn)                =    0.000000000000000
    SCF energy          (wfn)                =  -37.693732322173226
    Reference energy    (file100)            =  -37.693732322173624
    CCSD energy         (file100)            =   -0.092624707145539
    Total CCSD energy   (file100)            =  -37.786357029319163

    Number of ijk index combinations:
    Spin Case AAA:                                   1
    Spin Case BBB:                                   0
    Spin Case AAB:                                   3
    Spin Case ABB:                                   0
    AAA (T) energy                             =   -0.000072659313833
    BBB (T) energy                             =    0.000000000000000
    AAB (T) energy                             =   -0.002439501097605
    ABB (T) energy                             =    0.000000000000000
    (T) energy                                   =   -0.002512160411438
      * CCSD(T) total energy                     =  -37.788869189730597


    Psi4 stopped on: Thursday, 21 January 2021 02:10PM
    Psi4 wall time for execution: 0:03:27.98

*** Psi4 exiting successfully. Buy a developer a beer!
