
    -----------------------------------------------------------------------
          Psi4: An Open-Source Ab Initio Electronic Structure Package
                               Psi4 1.4a3.dev88 

                         Git: Rev {master} 262e345 


    D. G. A. Smith, L. A. Burns, A. C. Simmonett, R. M. Parrish,
    M. C. Schieber, R. Galvelis, P. Kraus, H. Kruse, R. Di Remigio,
    A. Alenaizan, A. M. James, S. Lehtola, J. P. Misiewicz, M. Scheurer,
    R. A. Shaw, J. B. Schriber, Y. Xie, Z. L. Glick, D. A. Sirianni,
    J. S. O'Brien, J. M. Waldrop, A. Kumar, E. G. Hohenstein,
    B. P. Pritchard, B. R. Brooks, H. F. Schaefer III, A. Yu. Sokolov,
    K. Patkowski, A. E. DePrince III, U. Bozkaya, R. A. King,
    F. A. Evangelista, J. M. Turney, T. D. Crawford, C. D. Sherrill,
    J. Chem. Phys. 152(18) 184108 (2020). https://doi.org/10.1063/5.0006002

                            Additional Code Authors
    E. T. Seidl, C. L. Janssen, E. F. Valeev, M. L. Leininger,
    J. F. Gonthier, R. M. Richard, H. R. McAlexander, M. Saitow, X. Wang,
    P. Verma, and M. H. Lechner

             Previous Authors, Complete List of Code Contributors,
                       and Citations for Specific Modules
    https://github.com/psi4/psi4/blob/master/codemeta.json
    https://github.com/psi4/psi4/graphs/contributors
    http://psicode.org/psi4manual/master/introduction.html#citing-psifour

    -----------------------------------------------------------------------


    Psi4 started on: Tuesday, 26 January 2021 06:14PM

    Process ID: 400003
    Host:       n412-039.vsc4.prov
    PSIDATADIR: /home/fs71337/gallo4/psi4/eri-6/psi4/build/stage/share/psi4
    Memory:     500.0 MiB
    Threads:    48
    
  ==> Input File <==

--------------------------------------------------------------------------
# Any line starting with the # character is a comment line
memory 250000 mb
molecule molecule{
0 3
C          0.0000000000        0.0000000000        0.0000000000
}

set {
  reference uhf
  basis aug-cc-pV(d+d)Z
  scf_type OUT_OF_CORE
  freeze_core true
}

energy('ccsd(t)')
--------------------------------------------------------------------------

  Memory set to 232.831 GiB by Python driver.

Scratch directory: /binfl/lv71337/airmler/temp/

*** tstart() called on n412-039.vsc4.prov
*** at Tue Jan 26 18:14:45 2021

   => Loading Basis Set <=

    Name: AUG-CC-PV(D+D)Z
    Role: ORBITAL
    Keyword: BASIS
    atoms 1 entry C          line   210 file /home/fs71337/gallo4/psi4/eri-6/psi4/build/stage/share/psi4/basis/aug-cc-pv_dpd_z.gbs 


         ---------------------------------------------------------
                                   SCF
               by Justin Turney, Rob Parrish, Andy Simmonett
                          and Daniel G. A. Smith
                              UHF Reference
                       48 Threads, 238418 MiB Core
         ---------------------------------------------------------

  ==> Geometry <==

    Molecular point group: d2h
    Geometry (in Angstrom), charge = 0, multiplicity = 3:

       Center              X                  Y                   Z               Mass       
    ------------   -----------------  -----------------  -----------------  -----------------
         C            0.000000000000     0.000000000000     0.000000000000    12.000000000000

  Running in d2h symmetry.

  Rotational constants: A = ************  B = ************  C = ************ [cm^-1]
  Rotational constants: A = ************  B = ************  C = ************ [MHz]
  Nuclear repulsion =    0.000000000000000

  Charge       = 0
  Multiplicity = 3
  Electrons    = 6
  Nalpha       = 4
  Nbeta        = 2

  ==> Algorithm <==

  SCF Algorithm Type is OUT_OF_CORE.
  DIIS enabled.
  MOM disabled.
  Fractional occupation disabled.
  Guess Type is CORE.
  Energy threshold   = 1.00e-08
  Density threshold  = 1.00e-08
  Integral threshold = 1.00e-12

  ==> Primary Basis <==

  Basis Set: AUG-CC-PV(D+D)Z
    Blend: AUG-CC-PV(D+D)Z
    Number of shells: 9
    Number of basis function: 23
    Number of Cartesian functions: 25
    Spherical Harmonics?: true
    Max angular momentum: 2

  ==> Integral Setup <==

  ==> DiskJK: Disk-Based J/K Matrices <==

    J tasked:                  Yes
    K tasked:                  Yes
    wK tasked:                  No
    Memory [MiB]:           178813
    Schwarz Cutoff:          1E-12

  Minimum eigenvalue in the overlap matrix is 7.9241747161E-02.
  Reciprocal condition number of the overlap matrix is 3.4970538636E-02.
    Using symmetric orthogonalization.

  ==> Pre-Iterations <==

  SCF Guess: Core (One-Electron) Hamiltonian.

   -------------------------------------------------------
    Irrep   Nso     Nmo     Nalpha   Nbeta   Ndocc  Nsocc
   -------------------------------------------------------
     Ag         8       8       2       2       2       0
     B1g        2       2       0       0       0       0
     B2g        2       2       0       0       0       0
     B3g        2       2       0       0       0       0
     Au         0       0       0       0       0       0
     B1u        3       3       1       0       0       1
     B2u        3       3       1       0       0       1
     B3u        3       3       0       0       0       0
   -------------------------------------------------------
    Total      23      23       4       2       2       2
   -------------------------------------------------------

  ==> Iterations <==

                        Total Energy        Delta E     RMS |[F,P]|

   @UHF iter   1:   -36.69366466342917   -3.66937e+01   8.86721e-02 DIIS
   @UHF iter   2:   -37.68009406031771   -9.86429e-01   9.11974e-03 DIIS
   @UHF iter   3:   -37.68691437344880   -6.82031e-03   2.36313e-03 DIIS
   @UHF iter   4:   -37.68768800808611   -7.73635e-04   6.86748e-04 DIIS
   @UHF iter   5:   -37.68776020838126   -7.22003e-05   1.17818e-04 DIIS
   @UHF iter   6:   -37.68776324024924   -3.03187e-06   1.30594e-05 DIIS
   @UHF iter   7:   -37.68776326723779   -2.69886e-08   1.22455e-06 DIIS
   @UHF iter   8:   -37.68776326739066   -1.52866e-10   1.37519e-07 DIIS
   @UHF iter   9:   -37.68776326739312   -2.45848e-12   1.03433e-08 DIIS
   @UHF iter  10:   -37.68776326739314   -2.84217e-14   1.39747e-09 DIIS
  Energy and wave function converged.


  ==> Post-Iterations <==

   @Spin Contamination Metric:   9.645979732E-03
   @S^2 Expected:                2.000000000E+00
   @S^2 Observed:                2.009645980E+00
   @S   Expected:                1.000000000E+00
   @S   Observed:                1.000000000E+00

    Orbital Energies [Eh]
    ---------------------

    Alpha Occupied:                                                       

       1Ag   -11.351427     2Ag    -0.830390     1B1u   -0.438185  
       1B2u   -0.438185  

    Alpha Virtual:                                                        

       1B3u    0.017329     3Ag     0.109114     2B1u    0.115007  
       2B2u    0.115007     2B3u    0.147956     1B3g    0.437826  
       4Ag     0.437826     1B2g    0.442446     1B1g    0.442446  
       5Ag     0.444791     3B1u    0.746199     3B2u    0.746199  
       3B3u    0.815460     6Ag     0.959027     2B3g    1.618321  
       7Ag     1.618321     2B1g    1.636417     2B2g    1.636417  
       8Ag     1.643884  

    Beta Occupied:                                                        

       1Ag   -11.304947     2Ag    -0.586405  

    Beta Virtual:                                                         

       1B3u    0.039743     1B1u    0.068181     1B2u    0.068181  
       3Ag     0.124248     2B3u    0.168046     2B1u    0.208924  
       2B2u    0.208924     4Ag     0.461678     1B2g    0.467521  
       1B1g    0.467521     5Ag     0.486050     1B3g    0.486050  
       3B3u    0.844637     3B1u    0.893511     3B2u    0.893511  
       6Ag     1.025222     7Ag     1.700889     2B1g    1.714700  
       2B2g    1.714700     2B3g    1.760450     8Ag     1.760450  

    Final Occupation by Irrep:
             Ag   B1g   B2g   B3g    Au   B1u   B2u   B3u 
    DOCC [     2,    0,    0,    0,    0,    0,    0,    0 ]
    SOCC [     0,    0,    0,    0,    0,    1,    1,    0 ]

  @UHF Final Energy:   -37.68776326739314

   => Energetics <=

    Nuclear Repulsion Energy =              0.0000000000000000
    One-Electron Energy =                 -50.4259867680312652
    Two-Electron Energy =                  12.7382235006381226
    Total Energy =                        -37.6877632673931444

  UHF NO Occupations:
  HONO-2 :    2 Ag 1.9951665
  HONO-1 :    1B2u 1.0000000
  HONO-0 :    1B1u 1.0000000
  LUNO+0 :    3 Ag 0.0048335
  LUNO+1 :    4 Ag 0.0000012
  LUNO+2 :    5 Ag 0.0000000
  LUNO+3 :    6 Ag 0.0000000


Computation Completed


Properties will be evaluated at   0.000000,   0.000000,   0.000000 [a0]

Properties computed using the SCF density matrix

  Nuclear Dipole Moment: [e a0]
     X:     0.0000      Y:     0.0000      Z:     0.0000

  Electronic Dipole Moment: [e a0]
     X:     0.0000      Y:     0.0000      Z:     0.0000

  Dipole Moment: [e a0]
     X:     0.0000      Y:     0.0000      Z:     0.0000     Total:     0.0000

  Dipole Moment: [D]
     X:     0.0000      Y:     0.0000      Z:     0.0000     Total:     0.0000


*** tstop() called on n412-039.vsc4.prov at Tue Jan 26 18:14:46 2021
Module time:
	user time   =       5.22 seconds =       0.09 minutes
	system time =       0.22 seconds =       0.00 minutes
	total time  =          1 seconds =       0.02 minutes
Total time:
	user time   =       5.22 seconds =       0.09 minutes
	system time =       0.22 seconds =       0.00 minutes
	total time  =          1 seconds =       0.02 minutes

*** tstart() called on n412-039.vsc4.prov
*** at Tue Jan 26 18:14:46 2021


	Wfn Parameters:
	--------------------
	Wavefunction         = CCSD_T
	Number of irreps     = 8
	Number of MOs        = 23
	Number of active MOs = 22
	AO-Basis             = NONE
	Semicanonical        = false
	Reference            = UHF
	Print Level          = 1

	IRREP	# MOs	# FZDC	# DOCC	# SOCC	# VIRT	# FZVR
	-----	-----	------	------	------	------	------
	 Ag	   8	    1	    1	    0	    6	    0
	 B1g	   2	    0	    0	    0	    2	    0
	 B2g	   2	    0	    0	    0	    2	    0
	 B3g	   2	    0	    0	    0	    2	    0
	 Au	   0	    0	    0	    0	    0	    0
	 B1u	   3	    0	    0	    1	    2	    0
	 B2u	   3	    0	    0	    1	    2	    0
	 B3u	   3	    0	    0	    0	    3	    0
	Transforming integrals...
	IWL integrals will be deleted.
	(OO|OO)...
	Presorting SO-basis two-electron integrals.
	Sorting File: SO Ints (nn|nn) nbuckets = 1
	Constructing frozen core operators
	Starting AA/AB first half-transformation.
	Sorting AA/AB half-transformed integrals.
	Starting BB first half-transformation.
	Sorting BB half-transformed integrals.
	First half integral transformation complete.
	Starting AA second half-transformation.
	Starting AB second half-transformation.
	Starting BB second half-transformation.
	Two-electron integral transformation complete.
	(OO|OV)...
	Starting AA second half-transformation.
	Starting AB second half-transformation.
	Starting BB second half-transformation.
	Two-electron integral transformation complete.
	(OO|VV)...
	Starting AA second half-transformation.
	Starting AB second half-transformation.
	Starting BB second half-transformation.
	Two-electron integral transformation complete.
	(OV|OO)...
	Starting AA/AB first half-transformation.
	Sorting AA/AB half-transformed integrals.
	Starting BB first half-transformation.
	Sorting BB half-transformed integrals.
	First half integral transformation complete.
	Starting AA second half-transformation.
	Starting AB second half-transformation.
	Starting BB second half-transformation.
	Two-electron integral transformation complete.
	(OV|OV)...
	Starting AA second half-transformation.
	Starting AB second half-transformation.
	Starting BB second half-transformation.
	Two-electron integral transformation complete.
	(OV|VV)...
	Starting AA second half-transformation.
	Starting AB second half-transformation.
	Starting BB second half-transformation.
	Two-electron integral transformation complete.
	(VV|OO)...
	Starting AA/AB first half-transformation.
	Sorting AA/AB half-transformed integrals.
	Starting BB first half-transformation.
	Sorting BB half-transformed integrals.
	First half integral transformation complete.
	Starting AA second half-transformation.
	Starting AB second half-transformation.
	Starting BB second half-transformation.
	Two-electron integral transformation complete.
	(VV|OV)...
	Starting AA second half-transformation.
	Starting AB second half-transformation.
	Starting BB second half-transformation.
	Two-electron integral transformation complete.
	(VV|VV)...
	Starting AA second half-transformation.
	Starting AB second half-transformation.
	Starting BB second half-transformation.
	Two-electron integral transformation complete.
	Frozen core energy     =    -32.35900719713041

	Size of irrep 0 of <AB|CD> integrals:      0.001 (MW) /      0.004 (MB)
	Size of irrep 1 of <AB|CD> integrals:      0.000 (MW) /      0.004 (MB)
	Size of irrep 2 of <AB|CD> integrals:      0.000 (MW) /      0.004 (MB)
	Size of irrep 3 of <AB|CD> integrals:      0.000 (MW) /      0.003 (MB)
	Size of irrep 4 of <AB|CD> integrals:      0.000 (MW) /      0.002 (MB)
	Size of irrep 5 of <AB|CD> integrals:      0.000 (MW) /      0.004 (MB)
	Size of irrep 6 of <AB|CD> integrals:      0.000 (MW) /      0.004 (MB)
	Size of irrep 7 of <AB|CD> integrals:      0.001 (MW) /      0.005 (MB)
	Total:                                     0.004 (MW) /      0.030 (MB)

	Size of irrep 0 of <ab|cd> integrals:      0.001 (MW) /      0.006 (MB)
	Size of irrep 1 of <ab|cd> integrals:      0.001 (MW) /      0.005 (MB)
	Size of irrep 2 of <ab|cd> integrals:      0.001 (MW) /      0.005 (MB)
	Size of irrep 3 of <ab|cd> integrals:      0.001 (MW) /      0.005 (MB)
	Size of irrep 4 of <ab|cd> integrals:      0.000 (MW) /      0.003 (MB)
	Size of irrep 5 of <ab|cd> integrals:      0.001 (MW) /      0.007 (MB)
	Size of irrep 6 of <ab|cd> integrals:      0.001 (MW) /      0.007 (MB)
	Size of irrep 7 of <ab|cd> integrals:      0.001 (MW) /      0.007 (MB)
	Total:                                     0.006 (MW) /      0.045 (MB)

	Size of irrep 0 of <Ab|Cd> integrals:      0.005 (MW) /      0.038 (MB)
	Size of irrep 1 of <Ab|Cd> integrals:      0.002 (MW) /      0.018 (MB)
	Size of irrep 2 of <Ab|Cd> integrals:      0.002 (MW) /      0.018 (MB)
	Size of irrep 3 of <Ab|Cd> integrals:      0.002 (MW) /      0.015 (MB)
	Size of irrep 4 of <Ab|Cd> integrals:      0.001 (MW) /      0.008 (MB)
	Size of irrep 5 of <Ab|Cd> integrals:      0.003 (MW) /      0.022 (MB)
	Size of irrep 6 of <Ab|Cd> integrals:      0.003 (MW) /      0.022 (MB)
	Size of irrep 7 of <Ab|Cd> integrals:      0.003 (MW) /      0.025 (MB)
	Total:                                     0.021 (MW) /      0.165 (MB)

	Size of irrep 0 of <IA|BC> integrals:      0.001 (MW) /      0.005 (MB)
	Size of irrep 1 of <IA|BC> integrals:      0.000 (MW) /      0.002 (MB)
	Size of irrep 2 of <IA|BC> integrals:      0.000 (MW) /      0.002 (MB)
	Size of irrep 3 of <IA|BC> integrals:      0.000 (MW) /      0.002 (MB)
	Size of irrep 4 of <IA|BC> integrals:      0.000 (MW) /      0.001 (MB)
	Size of irrep 5 of <IA|BC> integrals:      0.000 (MW) /      0.004 (MB)
	Size of irrep 6 of <IA|BC> integrals:      0.000 (MW) /      0.004 (MB)
	Size of irrep 7 of <IA|BC> integrals:      0.000 (MW) /      0.003 (MB)
	Total:                                     0.003 (MW) /      0.021 (MB)

	Size of irrep 0 of <ia|bc> integrals:      0.000 (MW) /      0.004 (MB)
	Size of irrep 1 of <ia|bc> integrals:      0.000 (MW) /      0.001 (MB)
	Size of irrep 2 of <ia|bc> integrals:      0.000 (MW) /      0.001 (MB)
	Size of irrep 3 of <ia|bc> integrals:      0.000 (MW) /      0.001 (MB)
	Size of irrep 4 of <ia|bc> integrals:      0.000 (MW) /      0.000 (MB)
	Size of irrep 5 of <ia|bc> integrals:      0.000 (MW) /      0.001 (MB)
	Size of irrep 6 of <ia|bc> integrals:      0.000 (MW) /      0.001 (MB)
	Size of irrep 7 of <ia|bc> integrals:      0.000 (MW) /      0.001 (MB)
	Total:                                     0.001 (MW) /      0.010 (MB)

	Size of irrep 0 of <Ia|Bc> integrals:      0.001 (MW) /      0.007 (MB)
	Size of irrep 1 of <Ia|Bc> integrals:      0.000 (MW) /      0.002 (MB)
	Size of irrep 2 of <Ia|Bc> integrals:      0.000 (MW) /      0.002 (MB)
	Size of irrep 3 of <Ia|Bc> integrals:      0.000 (MW) /      0.003 (MB)
	Size of irrep 4 of <Ia|Bc> integrals:      0.000 (MW) /      0.001 (MB)
	Size of irrep 5 of <Ia|Bc> integrals:      0.001 (MW) /      0.005 (MB)
	Size of irrep 6 of <Ia|Bc> integrals:      0.001 (MW) /      0.005 (MB)
	Size of irrep 7 of <Ia|Bc> integrals:      0.000 (MW) /      0.003 (MB)
	Total:                                     0.003 (MW) /      0.027 (MB)

	Size of irrep 0 of <iA|bC> integrals:      0.000 (MW) /      0.003 (MB)
	Size of irrep 1 of <iA|bC> integrals:      0.000 (MW) /      0.001 (MB)
	Size of irrep 2 of <iA|bC> integrals:      0.000 (MW) /      0.001 (MB)
	Size of irrep 3 of <iA|bC> integrals:      0.000 (MW) /      0.001 (MB)
	Size of irrep 4 of <iA|bC> integrals:      0.000 (MW) /      0.000 (MB)
	Size of irrep 5 of <iA|bC> integrals:      0.000 (MW) /      0.001 (MB)
	Size of irrep 6 of <iA|bC> integrals:      0.000 (MW) /      0.001 (MB)
	Size of irrep 7 of <iA|bC> integrals:      0.000 (MW) /      0.001 (MB)
	Total:                                     0.001 (MW) /      0.009 (MB)

	Size of irrep 0 of tIjAb amplitudes:       0.000 (MW) /      0.001 (MB)
	Size of irrep 1 of tIjAb amplitudes:       0.000 (MW) /      0.000 (MB)
	Size of irrep 2 of tIjAb amplitudes:       0.000 (MW) /      0.000 (MB)
	Size of irrep 3 of tIjAb amplitudes:       0.000 (MW) /      0.000 (MB)
	Size of irrep 4 of tIjAb amplitudes:       0.000 (MW) /      0.000 (MB)
	Size of irrep 5 of tIjAb amplitudes:       0.000 (MW) /      0.000 (MB)
	Size of irrep 6 of tIjAb amplitudes:       0.000 (MW) /      0.000 (MB)
	Size of irrep 7 of tIjAb amplitudes:       0.000 (MW) /      0.000 (MB)
	Total:                                     0.000 (MW) /      0.001 (MB)

	Nuclear Rep. energy          =      0.00000000000000
	SCF energy                   =    -37.68776326739314
	One-electron energy          =     -8.36434648280120
	Two-electron (AA) energy     =      1.37657628902828
	Two-electron (BB) energy     =      0.00000000000000
	Two-electron (AB) energy     =      1.65901412351022
	Two-electron energy          =      3.03559041253850
	Reference energy             =    -37.68776326739310

*** tstop() called on n412-039.vsc4.prov at Tue Jan 26 18:14:46 2021
Module time:
	user time   =       0.04 seconds =       0.00 minutes
	system time =       0.07 seconds =       0.00 minutes
	total time  =          0 seconds =       0.00 minutes
Total time:
	user time   =       5.26 seconds =       0.09 minutes
	system time =       0.29 seconds =       0.00 minutes
	total time  =          1 seconds =       0.02 minutes
            **************************
            *                        *
            *        CCENERGY        *
            *                        *
            **************************

    Nuclear Rep. energy (wfn)     =    0.000000000000000
    SCF energy          (wfn)     =  -37.687763267393144
    Reference energy    (file100) =  -37.687763267393102

    Input parameters:
    -----------------
    Wave function   =     CCSD_T
    Reference wfn   =     UHF
    Brueckner       =     No
    Memory (Mbytes) =     250000.0
    Maxiter         =     50
    R_Convergence   =     1.0e-07
    E_Convergence   =     1.0e-06
    Restart         =     Yes
    DIIS            =     Yes
    AO Basis        =     NONE
    ABCD            =     NEW
    Cache Level     =     2
    Cache Type      =     LRU
    Print Level     =     1
    Num. of threads =     48
    # Amps to Print =     10
    Print MP2 Amps? =     No
    Analyze T2 Amps =     No
    Print Pair Ener =     No
    Local CC        =     No
    SCS-MP2         =     False
    SCSN-MP2        =     False
    SCS-CCSD        =     False

MP2 correlation energy -0.0537013556163595
                Solving CC Amplitude Equations
                ------------------------------
  Iter             Energy              RMS        T1Diag      D1Diag    New D1Diag    D2Diag
  ----     ---------------------    ---------   ----------  ----------  ----------   --------
     0        -0.053701355616359    0.000e+00    0.000000    0.000000    0.000000    0.000000
     1        -0.068058170302528    4.973e-02    0.005681    0.000000    0.000000    0.000000
     2        -0.075250665678885    2.206e-02    0.011383    0.000000    0.000000    0.000000
     3        -0.075776043450534    5.760e-03    0.013574    0.000000    0.000000    0.000000
     4        -0.075863194074807    9.023e-04    0.013707    0.000000    0.000000    0.000000
     5        -0.075831916308983    1.973e-04    0.013659    0.000000    0.000000    0.000000
     6        -0.075840481168778    6.279e-05    0.013651    0.000000    0.000000    0.000000
     7        -0.075842032784100    1.774e-05    0.013648    0.000000    0.000000    0.000000
     8        -0.075840950674262    5.426e-06    0.013647    0.000000    0.000000    0.000000
     9        -0.075841384310403    1.662e-06    0.013647    0.000000    0.000000    0.000000
    10        -0.075841378088290    3.456e-07    0.013647    0.000000    0.000000    0.000000
    11        -0.075841370027851    1.106e-07    0.013647    0.000000    0.000000    0.000000
    12        -0.075841370081179    2.110e-08    0.013647    0.000000    0.000000    0.000000

    Iterations converged.


    Largest TIA Amplitudes:
              0   2        -0.0131238235
              1  12        -0.0109596465
              2  14        -0.0109596465
              0   5         0.0101441069
              1  13        -0.0048633228
              2  15        -0.0048633228
              0   0         0.0044963096
              0   3         0.0011588630

    Largest Tia Amplitudes:
              0   3        -0.0088666637
              0   0         0.0085212813
              0   4         0.0027673530
              0   1         0.0013652022

    Largest TIJAB Amplitudes:
      2   1  15  13        -0.0358803153
      2   1  14  13        -0.0194577742
      2   1  15  12        -0.0194577742
      1   0  13   3        -0.0189635253
      2   0  15   3        -0.0189635253
      2   1  11   4        -0.0182216027
      2   1  10   1        -0.0176548547
      2   1  14  12        -0.0131862750
      2   1  10   4         0.0130943838
      2   1  11   1         0.0130943838

    Largest TIjAb Amplitudes:
      0   0  16  18         0.0780035950
      0   0  16  19         0.0718656815
      0   0  17  18         0.0525856369
      0   0  17  19         0.0490730541
      1   0  13   3         0.0305089661
      2   0  15   3         0.0305089661
      0   0  16  20         0.0296312229
      1   0   1  13        -0.0283012939
      1   0  10  16        -0.0283012939
      2   0   1  16         0.0283012939

    SCF energy       (wfn)                    =  -37.687763267393144
    Reference energy (file100)                =  -37.687763267393102

    Opposite-spin MP2 correlation energy      =   -0.043898865194585
    Same-spin MP2 correlation energy          =   -0.009802490421775
    Singles MP2 correlation energy            =   -0.000000000000000
    MP2 correlation energy                    =   -0.053701355616359
      * MP2 total energy                      =  -37.741464623009463

    Opposite-spin CCSD correlation energy     =   -0.064339220813347
    Same-spin CCSD correlation energy         =   -0.011502149267832
    Singles CCSD correlation energy           =   -0.000000000000000
    CCSD correlation energy                   =   -0.075841370081179
      * CCSD total energy                     =  -37.763604637474280

            **************************
            *                        *
            *        CCTRIPLES       *
            *                        *
            **************************


    Wave function   =    CCSD_T
    Reference wfn   =      UHF

    Nuclear Rep. energy (wfn)                =    0.000000000000000
    SCF energy          (wfn)                =  -37.687763267393144
    Reference energy    (file100)            =  -37.687763267393102
    CCSD energy         (file100)            =   -0.075841370081179
    Total CCSD energy   (file100)            =  -37.763604637474280

    Number of ijk index combinations:
    Spin Case AAA:                                   1
    Spin Case BBB:                                   0
    Spin Case AAB:                                   3
    Spin Case ABB:                                   0
    AAA (T) energy                             =   -0.000027459748161
    BBB (T) energy                             =    0.000000000000000
    AAB (T) energy                             =   -0.001233753711998
    ABB (T) energy                             =    0.000000000000000
    (T) energy                                   =   -0.001261213460159
      * CCSD(T) total energy                     =  -37.764865850934441


    Psi4 stopped on: Tuesday, 26 January 2021 06:14PM
    Psi4 wall time for execution: 0:00:03.54

*** Psi4 exiting successfully. Buy a developer a beer!
