
    -----------------------------------------------------------------------
          Psi4: An Open-Source Ab Initio Electronic Structure Package
                               Psi4 1.2a1.dev938 

                         Git: Rev {HEAD} fc51d9a dirty


    R. M. Parrish, L. A. Burns, D. G. A. Smith, A. C. Simmonett,
    A. E. DePrince III, E. G. Hohenstein, U. Bozkaya, A. Yu. Sokolov,
    R. Di Remigio, R. M. Richard, J. F. Gonthier, A. M. James,
    H. R. McAlexander, A. Kumar, M. Saitow, X. Wang, B. P. Pritchard,
    P. Verma, H. F. Schaefer III, K. Patkowski, R. A. King, E. F. Valeev,
    F. A. Evangelista, J. M. Turney, T. D. Crawford, and C. D. Sherrill,
    J. Chem. Theory Comput. 13(7) pp 3185--3197 (2017).
    (doi: 10.1021/acs.jctc.7b00174)

    -----------------------------------------------------------------------


    Psi4 started on: Thursday, 20 August 2020 07:56PM

    Process ID: 422939
    PSIDATADIR: /home/irmler/Programs/psi4/beforeGrueneis3/stage/usr/local/psi4/share/psi4
    Memory:     500.0 MiB
    Threads:    4
    
  ==> Input File <==

--------------------------------------------------------------------------
# Any line starting with the # character is a comment line
memory 250000 mb
molecule molecule{
0 2
Al          0.0000000000        0.0000000000        0.0000000000
}

set {
  reference uhf
  basis aug-cc-pv(d+d)z
  scf_type OUT_OF_CORE
  freeze_core true
}

energy('ccsd')
--------------------------------------------------------------------------

  Memory set to 232.831 GiB by Python driver.

*** tstart() called on cqc05
*** at Thu Aug 20 19:56:05 2020

   => Loading Basis Set <=

    Name: AUG-CC-PV(D+D)Z
    Role: ORBITAL
    Keyword: BASIS
    atoms 1 entry AL         line   520 file /home/irmler/Programs/psi4/beforeGrueneis3/stage/usr/local/psi4/share/psi4/basis/aug-cc-pv_dpd_z.gbs 


         ---------------------------------------------------------
                                   SCF
            by Justin Turney, Rob Parrish, Andy Simmonett
                             and Daniel Smith
                              UHF Reference
                        4 Threads, 238418 MiB Core
         ---------------------------------------------------------

  ==> Geometry <==

    Molecular point group: d2h
    Geometry (in Angstrom), charge = 0, multiplicity = 2:

       Center              X                  Y                   Z               Mass       
    ------------   -----------------  -----------------  -----------------  -----------------
          AL          0.000000000000     0.000000000000     0.000000000000    26.981538627000

  Running in d2h symmetry.

  Rotational constants: A = ************  B = ************  C = ************ [cm^-1]
  Rotational constants: A = ************  B = ************  C = ************ [MHz]
  Nuclear repulsion =    0.000000000000000

  Charge       = 0
  Multiplicity = 2
  Electrons    = 13
  Nalpha       = 7
  Nbeta        = 6

  ==> Algorithm <==

  SCF Algorithm Type is OUT_OF_CORE.
  DIIS enabled.
  MOM disabled.
  Fractional occupation disabled.
  Guess Type is GWH.
  Energy threshold   = 1.00e-08
  Density threshold  = 1.00e-08
  Integral threshold = 0.00e+00

  ==> Primary Basis <==

  Basis Set: AUG-CC-PV(D+D)Z
    Blend: AUG-CC-PV(D+D)Z
    Number of shells: 12
    Number of basis function: 32
    Number of Cartesian functions: 35
    Spherical Harmonics?: true
    Max angular momentum: 2

  ==> Pre-Iterations <==

   -------------------------------------------------------
    Irrep   Nso     Nmo     Nalpha   Nbeta   Ndocc  Nsocc
   -------------------------------------------------------
     Ag        11      11       0       0       0       0
     B1g        3       3       0       0       0       0
     B2g        3       3       0       0       0       0
     B3g        3       3       0       0       0       0
     Au         0       0       0       0       0       0
     B1u        4       4       0       0       0       0
     B2u        4       4       0       0       0       0
     B3u        4       4       0       0       0       0
   -------------------------------------------------------
    Total      32      32       7       6       6       1
   -------------------------------------------------------

  ==> Integral Setup <==

  ==> DiskJK: Disk-Based J/K Matrices <==

    J tasked:                  Yes
    K tasked:                  Yes
    wK tasked:                  No
    Memory (MB):            178813
    Schwarz Cutoff:          1E-12

  Minimum eigenvalue in the overlap matrix is 4.3336883501E-02.
  Using Symmetric Orthogonalization.

  SCF Guess: Generalized Wolfsberg-Helmholtz.

  ==> Iterations <==

                        Total Energy        Delta E     RMS |[F,P]|

    Occupation by irrep:
             Ag   B1g   B2g   B3g    Au   B1u   B2u   B3u 
    DOCC [     3,    0,    0,    0,    0,    1,    1,    1 ]
    SOCC [     0,    0,    0,    0,    0,    1,    0,    0 ]

   @UHF iter   1:  -239.98008359593936   -2.39980e+02   9.29896e-02 
   @UHF iter   2:  -241.72133242562256   -1.74125e+00   2.18081e-02 DIIS
   @UHF iter   3:  -241.84948597937347   -1.28154e-01   5.56152e-03 DIIS
   @UHF iter   4:  -241.86783679698198   -1.83508e-02   3.06092e-03 DIIS
   @UHF iter   5:  -241.87396198406279   -6.12519e-03   9.36614e-04 DIIS
   @UHF iter   6:  -241.87427150490618   -3.09521e-04   2.01213e-04 DIIS
   @UHF iter   7:  -241.87428472563823   -1.32207e-05   4.08872e-05 DIIS
   @UHF iter   8:  -241.87428531782228   -5.92184e-07   7.88120e-06 DIIS
   @UHF iter   9:  -241.87428533509635   -1.72741e-08   1.13800e-06 DIIS
   @UHF iter  10:  -241.87428533565713   -5.60789e-10   2.31992e-07 DIIS
   @UHF iter  11:  -241.87428533568075   -2.36184e-11   3.52595e-08 DIIS
   @UHF iter  12:  -241.87428533568152   -7.67386e-13   3.65433e-09 DIIS

  ==> Post-Iterations <==

   @Spin Contamination Metric:   1.934155344E-02
   @S^2 Expected:                7.500000000E-01
   @S^2 Observed:                7.693415534E-01
   @S   Expected:                5.000000000E-01
   @S   Observed:                5.000000000E-01

    Orbital Energies (a.u.)
    -----------------------

    Alpha Occupied:                                                       

       1Ag   -58.502101     2Ag    -4.911540     1B1u   -3.224573  
       1B3u   -3.219012     1B2u   -3.219012     3Ag    -0.426210  
       2B1u   -0.217497  

    Alpha Virtual:                                                        

       2B2u    0.009982     2B3u    0.009982     3B1u    0.050324  
       4Ag     0.052310     3B2u    0.067552     3B3u    0.067552  
       5Ag     0.148584     1B2g    0.149286     1B3g    0.149286  
       1B1g    0.155479     6Ag     0.155479     4B1u    0.380622  
       7Ag     0.395109     4B3u    0.403854     4B2u    0.403854  
       8Ag     0.498204     2B2g    0.500009     2B3g    0.500009  
       9Ag     0.509099     2B1g    0.509099    10Ag     2.424749  
       3B1g    2.424749     3B3g    2.434860     3B2g    2.434860  
      11Ag     2.438203  

    Beta Occupied:                                                        

       1Ag   -58.499442     2Ag    -4.908100     1B3u   -3.217645  
       1B2u   -3.217645     1B1u   -3.208145     3Ag    -0.364411  

    Beta Virtual:                                                         

       2B2u    0.014968     2B3u    0.014968     2B1u    0.032238  
       4Ag     0.057505     3B2u    0.071528     3B3u    0.071528  
       3B1u    0.100623     5Ag     0.157087     1B1g    0.157087  
       1B2g    0.172198     1B3g    0.172198     6Ag     0.177813  
       4B3u    0.407503     4B2u    0.407503     7Ag     0.408885  
       4B1u    0.439594     8Ag     0.510049     2B1g    0.510049  
       2B2g    0.537981     2B3g    0.537981     9Ag     0.548890  
       3B1g    2.424728    10Ag     2.424728     3B2g    2.440825  
       3B3g    2.440825    11Ag     2.446220  

    Final Occupation by Irrep:
             Ag   B1g   B2g   B3g    Au   B1u   B2u   B3u 
    DOCC [     3,    0,    0,    0,    0,    1,    1,    1 ]
    SOCC [     0,    0,    0,    0,    0,    1,    0,    0 ]

  Energy converged.

  @UHF Final Energy:  -241.87428533568152

   => Energetics <=

    Nuclear Repulsion Energy =              0.0000000000000000
    One-Electron Energy =                -336.6132362836555103
    Two-Electron Energy =                  94.7389509479739900
    PCM Polarization Energy =               0.0000000000000000
    Total Energy =                       -241.8742853356815203

    Alert: EFP and PCM quantities not currently incorporated into SCF psivars.
  UHF NO Occupations:
  HONO-2 :    1B1u 1.9999997
  HONO-1 :    3 Ag 1.9902823
  HONO-0 :    2B1u 1.0000000
  LUNO+0 :    4 Ag 0.0097177
  LUNO+1 :    3B1u 0.0000003
  LUNO+2 :    5 Ag 0.0000000
  LUNO+3 :    2B2u 0.0000000



Properties will be evaluated at   0.000000,   0.000000,   0.000000 Bohr

Properties computed using the SCF density matrix

  Nuclear Dipole Moment: (a.u.)
     X:     0.0000      Y:     0.0000      Z:     0.0000

  Electronic Dipole Moment: (a.u.)
     X:     0.0000      Y:     0.0000      Z:     0.0000

  Dipole Moment: (a.u.)
     X:     0.0000      Y:     0.0000      Z:     0.0000     Total:     0.0000

  Dipole Moment: (Debye)
     X:     0.0000      Y:     0.0000      Z:     0.0000     Total:     0.0000


*** tstop() called on cqc05 at Thu Aug 20 19:56:05 2020
Module time:
	user time   =       0.30 seconds =       0.01 minutes
	system time =       0.01 seconds =       0.00 minutes
	total time  =          0 seconds =       0.00 minutes
Total time:
	user time   =       0.30 seconds =       0.01 minutes
	system time =       0.01 seconds =       0.00 minutes
	total time  =          0 seconds =       0.00 minutes

*** tstart() called on cqc05
*** at Thu Aug 20 19:56:05 2020


	Wfn Parameters:
	--------------------
	Wavefunction         = CCSD
	Number of irreps     = 8
	Number of MOs        = 32
	Number of active MOs = 27
	AO-Basis             = NONE
	Semicanonical        = false
	Reference            = UHF
	Print Level          = 1

	IRREP	# MOs	# FZDC	# DOCC	# SOCC	# VIRT	# FZVR
	-----	-----	------	------	------	------	------
	 Ag	   11	    2	    1	    0	    8	    0
	 B1g	   3	    0	    0	    0	    3	    0
	 B2g	   3	    0	    0	    0	    3	    0
	 B3g	   3	    0	    0	    0	    3	    0
	 Au	   0	    0	    0	    0	    0	    0
	 B1u	   4	    1	    0	    1	    2	    0
	 B2u	   4	    1	    0	    0	    3	    0
	 B3u	   4	    1	    0	    0	    3	    0
	Transforming integrals...
	IWL integrals will be deleted.
	(OO|OO)...
	Presorting SO-basis two-electron integrals.
	Sorting File: SO Ints (nn|nn) nbuckets = 1
	Transforming the one-electron integrals and constructing Fock matrices
	Starting AA/AB first half-transformation.
	Sorting AA/AB half-transformed integrals.
	Starting BB first half-transformation.
	Sorting BB half-transformed integrals.
	First half integral transformation complete.
	Starting AA second half-transformation.
	Starting AB second half-transformation.
	Starting BB second half-transformation.
	Two-electron integral transformation complete.
	(OO|OV)...
	Starting AA second half-transformation.
	Starting AB second half-transformation.
	Starting BB second half-transformation.
	Two-electron integral transformation complete.
	(OO|VV)...
	Starting AA second half-transformation.
	Starting AB second half-transformation.
	Starting BB second half-transformation.
	Two-electron integral transformation complete.
	(OV|OO)...
	Starting AA/AB first half-transformation.
	Sorting AA/AB half-transformed integrals.
	Starting BB first half-transformation.
	Sorting BB half-transformed integrals.
	First half integral transformation complete.
	Starting AA second half-transformation.
	Starting AB second half-transformation.
	Starting BB second half-transformation.
	Two-electron integral transformation complete.
	(OV|OV)...
	Starting AA second half-transformation.
	Starting AB second half-transformation.
	Starting BB second half-transformation.
	Two-electron integral transformation complete.
	(OV|VV)...
	Starting AA second half-transformation.
	Starting AB second half-transformation.
	Starting BB second half-transformation.
	Two-electron integral transformation complete.
	(VV|OO)...
	Starting AA/AB first half-transformation.
	Sorting AA/AB half-transformed integrals.
	Starting BB first half-transformation.
	Sorting BB half-transformed integrals.
	First half integral transformation complete.
	Starting AA second half-transformation.
	Starting AB second half-transformation.
	Starting BB second half-transformation.
	Two-electron integral transformation complete.
	(VV|OV)...
	Starting AA second half-transformation.
	Starting AB second half-transformation.
	Starting BB second half-transformation.
	Two-electron integral transformation complete.
	(VV|VV)...
	Starting AA second half-transformation.
	Starting AB second half-transformation.
	Starting BB second half-transformation.
	Two-electron integral transformation complete.
	Frozen core energy     =   -239.99258077591577

	Size of irrep 0 of <AB|CD> integrals:      0.002 (MW) /      0.015 (MB)
	Size of irrep 1 of <AB|CD> integrals:      0.002 (MW) /      0.014 (MB)
	Size of irrep 2 of <AB|CD> integrals:      0.002 (MW) /      0.012 (MB)
	Size of irrep 3 of <AB|CD> integrals:      0.002 (MW) /      0.012 (MB)
	Size of irrep 4 of <AB|CD> integrals:      0.001 (MW) /      0.005 (MB)
	Size of irrep 5 of <AB|CD> integrals:      0.001 (MW) /      0.009 (MB)
	Size of irrep 6 of <AB|CD> integrals:      0.002 (MW) /      0.012 (MB)
	Size of irrep 7 of <AB|CD> integrals:      0.002 (MW) /      0.012 (MB)
	Total:                                     0.012 (MW) /      0.092 (MB)

	Size of irrep 0 of <ab|cd> integrals:      0.002 (MW) /      0.017 (MB)
	Size of irrep 1 of <ab|cd> integrals:      0.002 (MW) /      0.014 (MB)
	Size of irrep 2 of <ab|cd> integrals:      0.002 (MW) /      0.014 (MB)
	Size of irrep 3 of <ab|cd> integrals:      0.002 (MW) /      0.014 (MB)
	Size of irrep 4 of <ab|cd> integrals:      0.001 (MW) /      0.006 (MB)
	Size of irrep 5 of <ab|cd> integrals:      0.002 (MW) /      0.014 (MB)
	Size of irrep 6 of <ab|cd> integrals:      0.002 (MW) /      0.014 (MB)
	Size of irrep 7 of <ab|cd> integrals:      0.002 (MW) /      0.014 (MB)
	Total:                                     0.013 (MW) /      0.107 (MB)

	Size of irrep 0 of <Ab|Cd> integrals:      0.013 (MW) /      0.106 (MB)
	Size of irrep 1 of <Ab|Cd> integrals:      0.007 (MW) /      0.056 (MB)
	Size of irrep 2 of <Ab|Cd> integrals:      0.007 (MW) /      0.052 (MB)
	Size of irrep 3 of <Ab|Cd> integrals:      0.007 (MW) /      0.052 (MB)
	Size of irrep 4 of <Ab|Cd> integrals:      0.003 (MW) /      0.021 (MB)
	Size of irrep 5 of <Ab|Cd> integrals:      0.006 (MW) /      0.046 (MB)
	Size of irrep 6 of <Ab|Cd> integrals:      0.007 (MW) /      0.052 (MB)
	Size of irrep 7 of <Ab|Cd> integrals:      0.007 (MW) /      0.052 (MB)
	Total:                                     0.055 (MW) /      0.439 (MB)

	Size of irrep 0 of <IA|BC> integrals:      0.001 (MW) /      0.009 (MB)
	Size of irrep 1 of <IA|BC> integrals:      0.000 (MW) /      0.002 (MB)
	Size of irrep 2 of <IA|BC> integrals:      0.000 (MW) /      0.004 (MB)
	Size of irrep 3 of <IA|BC> integrals:      0.000 (MW) /      0.004 (MB)
	Size of irrep 4 of <IA|BC> integrals:      0.000 (MW) /      0.001 (MB)
	Size of irrep 5 of <IA|BC> integrals:      0.001 (MW) /      0.005 (MB)
	Size of irrep 6 of <IA|BC> integrals:      0.000 (MW) /      0.004 (MB)
	Size of irrep 7 of <IA|BC> integrals:      0.000 (MW) /      0.004 (MB)
	Total:                                     0.004 (MW) /      0.033 (MB)

	Size of irrep 0 of <ia|bc> integrals:      0.001 (MW) /      0.008 (MB)
	Size of irrep 1 of <ia|bc> integrals:      0.000 (MW) /      0.002 (MB)
	Size of irrep 2 of <ia|bc> integrals:      0.000 (MW) /      0.002 (MB)
	Size of irrep 3 of <ia|bc> integrals:      0.000 (MW) /      0.002 (MB)
	Size of irrep 4 of <ia|bc> integrals:      0.000 (MW) /      0.000 (MB)
	Size of irrep 5 of <ia|bc> integrals:      0.000 (MW) /      0.002 (MB)
	Size of irrep 6 of <ia|bc> integrals:      0.000 (MW) /      0.002 (MB)
	Size of irrep 7 of <ia|bc> integrals:      0.000 (MW) /      0.002 (MB)
	Total:                                     0.002 (MW) /      0.020 (MB)

	Size of irrep 0 of <Ia|Bc> integrals:      0.001 (MW) /      0.010 (MB)
	Size of irrep 1 of <Ia|Bc> integrals:      0.000 (MW) /      0.002 (MB)
	Size of irrep 2 of <Ia|Bc> integrals:      0.000 (MW) /      0.004 (MB)
	Size of irrep 3 of <Ia|Bc> integrals:      0.000 (MW) /      0.004 (MB)
	Size of irrep 4 of <Ia|Bc> integrals:      0.000 (MW) /      0.001 (MB)
	Size of irrep 5 of <Ia|Bc> integrals:      0.001 (MW) /      0.007 (MB)
	Size of irrep 6 of <Ia|Bc> integrals:      0.000 (MW) /      0.004 (MB)
	Size of irrep 7 of <Ia|Bc> integrals:      0.000 (MW) /      0.004 (MB)
	Total:                                     0.004 (MW) /      0.036 (MB)

	Size of irrep 0 of <iA|bC> integrals:      0.001 (MW) /      0.007 (MB)
	Size of irrep 1 of <iA|bC> integrals:      0.000 (MW) /      0.002 (MB)
	Size of irrep 2 of <iA|bC> integrals:      0.000 (MW) /      0.002 (MB)
	Size of irrep 3 of <iA|bC> integrals:      0.000 (MW) /      0.002 (MB)
	Size of irrep 4 of <iA|bC> integrals:      0.000 (MW) /      0.000 (MB)
	Size of irrep 5 of <iA|bC> integrals:      0.000 (MW) /      0.001 (MB)
	Size of irrep 6 of <iA|bC> integrals:      0.000 (MW) /      0.002 (MB)
	Size of irrep 7 of <iA|bC> integrals:      0.000 (MW) /      0.002 (MB)
	Total:                                     0.002 (MW) /      0.018 (MB)

	Size of irrep 0 of tIjAb amplitudes:       0.000 (MW) /      0.001 (MB)
	Size of irrep 1 of tIjAb amplitudes:       0.000 (MW) /      0.000 (MB)
	Size of irrep 2 of tIjAb amplitudes:       0.000 (MW) /      0.000 (MB)
	Size of irrep 3 of tIjAb amplitudes:       0.000 (MW) /      0.000 (MB)
	Size of irrep 4 of tIjAb amplitudes:       0.000 (MW) /      0.000 (MB)
	Size of irrep 5 of tIjAb amplitudes:       0.000 (MW) /      0.001 (MB)
	Size of irrep 6 of tIjAb amplitudes:       0.000 (MW) /      0.000 (MB)
	Size of irrep 7 of tIjAb amplitudes:       0.000 (MW) /      0.000 (MB)
	Total:                                     0.000 (MW) /      0.002 (MB)

	Nuclear Rep. energy          =      0.00000000000000
	SCF energy                   =   -241.87428533568152
	One-electron energy          =     -2.75529131025082
	Two-electron (AA) energy     =      0.23081975517909
	Two-electron (BB) energy     =      0.00000000000000
	Two-electron (AB) energy     =      0.64276699530578
	Two-electron energy          =      0.87358675048488
	Reference energy             =   -241.87428533568172

*** tstop() called on cqc05 at Thu Aug 20 19:56:05 2020
Module time:
	user time   =       0.04 seconds =       0.00 minutes
	system time =       0.04 seconds =       0.00 minutes
	total time  =          0 seconds =       0.00 minutes
Total time:
	user time   =       0.34 seconds =       0.01 minutes
	system time =       0.06 seconds =       0.00 minutes
	total time  =          0 seconds =       0.00 minutes

*** tstart() called on cqc05
*** at Thu Aug 20 19:56:05 2020

            **************************
            *                        *
            *        CCENERGY        *
            *                        *
            **************************

    Nuclear Rep. energy (wfn)     =    0.000000000000000
    SCF energy          (wfn)     = -241.874285335681520
    Reference energy    (file100) = -241.874285335681719

    Input parameters:
    -----------------
    Wave function   =     CCSD
    Reference wfn   =     UHF
    Brueckner       =     No
    Memory (Mbytes) =     250000.0
    Maxiter         =     50
    R_Convergence   =     1.0e-07
    E_Convergence   =     1.0e-06
    Restart         =     Yes
    DIIS            =     Yes
    AO Basis        =     NONE
    ABCD            =     NEW
    Cache Level     =     2
    Cache Type      =     LRU
    Print Level     =     1
    Num. of threads =     4
    # Amps to Print =     10
    Print MP2 Amps? =     No
    Analyze T2 Amps =     No
    Print Pair Ener =     No
    Local CC        =     No
    SCS-MP2         =     False
    SCSN-MP2        =     False
    SCS-CCSD        =     False

MP2 correlation energy -0.0313575609066493
                Solving CC Amplitude Equations
                ------------------------------
  Iter             Energy              RMS        T1Diag      D1Diag    New D1Diag    D2Diag
  ----     ---------------------    ---------   ----------  ----------  ----------   --------
     0        -0.031357560906649    0.000e+00    0.000000    0.000000    0.000000    0.000000
     1        -0.041655231853665    6.441e-02    0.010200    0.000000    0.000000    0.000000
     2        -0.047897286842101    2.919e-02    0.021612    0.000000    0.000000    0.000000
     3        -0.048160546436631    6.474e-03    0.024579    0.000000    0.000000    0.000000
     4        -0.048340697180846    1.464e-03    0.024970    0.000000    0.000000    0.000000
     5        -0.048278697347076    2.862e-04    0.024859    0.000000    0.000000    0.000000
     6        -0.048300427269828    9.356e-05    0.024896    0.000000    0.000000    0.000000
     7        -0.048294239139894    3.150e-05    0.024887    0.000000    0.000000    0.000000
     8        -0.048294432176934    4.331e-06    0.024888    0.000000    0.000000    0.000000
     9        -0.048294618576266    1.343e-06    0.024889    0.000000    0.000000    0.000000
    10        -0.048294624106340    3.619e-07    0.024889    0.000000    0.000000    0.000000
    11        -0.048294623613570    8.289e-08    0.024889    0.000000    0.000000    0.000000
    11        -0.048294623613570    8.289e-08    0.024889    0.000000    0.000000    0.000000

    Iterations converged.


    CCSD corr. energy   =   -0.048294623613570
    PPL corr. energy    =    0.019677117874237
    OS PPL corr. energy =    0.019032271453899
    SS PPL corr. energy =    0.000644846420338
    Largest TIA Amplitudes:
              0   1        -0.0316765295
              0   4        -0.0221317682
              0   0         0.0117623800
              0   3        -0.0089212631
              1  18         0.0048133221
              1  17        -0.0032395489
              0   7         0.0003767213

    Largest Tia Amplitudes:
              0   0        -0.0083162282
              0   2         0.0051407019
              0   3         0.0031243242
              0   5         0.0028335501
              0   7         0.0000393804

    Largest TIJAB Amplitudes:
      1   0  18   3         0.0240365430
      1   0  19  14         0.0218387433
      1   0  22  11         0.0218387433
      1   0  20  14         0.0198766469
      1   0  23  11         0.0198766469
      1   0  18   0        -0.0158058204
      1   0  20  15         0.0143832351
      1   0  23  12         0.0143832351
      1   0  19  15         0.0141559873
      1   0  22  12         0.0141559873

    Largest TIjAb Amplitudes:
      0   0  19  21         0.0864422557
      0   0  22  24         0.0864422557
      0   0  19  20         0.0827892332
      0   0  22  23         0.0827892332
      0   0  20  21         0.0792008048
      0   0  23  24         0.0792008048
      0   0  20  20         0.0748596299
      0   0  23  23         0.0748596299
      1   0   1  18        -0.0738141144
      1   0   4  18        -0.0666486153

    SCF energy       (wfn)                    = -241.874285335681520
    Reference energy (file100)                = -241.874285335681719

    Opposite-spin MP2 correlation energy      =   -0.029122527339212
    Same-spin MP2 correlation energy          =   -0.002235033567432
    MP2 correlation energy                    =   -0.031357560906649
      * MP2 total energy                      = -241.905642896588375

    Opposite-spin CCSD correlation energy     =   -0.045616975285931
    Same-spin CCSD correlation energy         =   -0.002677649586514
    CCSD correlation energy                   =   -0.048294623613570
      * CCSD total energy                     = -241.922579959295291


*** tstop() called on cqc05 at Thu Aug 20 19:56:06 2020
Module time:
	user time   =       0.13 seconds =       0.00 minutes
	system time =       0.07 seconds =       0.00 minutes
	total time  =          1 seconds =       0.02 minutes
Total time:
	user time   =       0.47 seconds =       0.01 minutes
	system time =       0.13 seconds =       0.00 minutes
	total time  =          1 seconds =       0.02 minutes

*** Psi4 exiting successfully. Buy a developer a beer!
