
    -----------------------------------------------------------------------
          Psi4: An Open-Source Ab Initio Electronic Structure Package
                               Psi4 1.2a1.dev938 

                         Git: Rev {HEAD} fc51d9a dirty


    R. M. Parrish, L. A. Burns, D. G. A. Smith, A. C. Simmonett,
    A. E. DePrince III, E. G. Hohenstein, U. Bozkaya, A. Yu. Sokolov,
    R. Di Remigio, R. M. Richard, J. F. Gonthier, A. M. James,
    H. R. McAlexander, A. Kumar, M. Saitow, X. Wang, B. P. Pritchard,
    P. Verma, H. F. Schaefer III, K. Patkowski, R. A. King, E. F. Valeev,
    F. A. Evangelista, J. M. Turney, T. D. Crawford, and C. D. Sherrill,
    J. Chem. Theory Comput. 13(7) pp 3185--3197 (2017).
    (doi: 10.1021/acs.jctc.7b00174)

    -----------------------------------------------------------------------


    Psi4 started on: Friday, 21 August 2020 06:46AM

    Process ID: 427973
    PSIDATADIR: /home/irmler/Programs/psi4/beforeGrueneis3/stage/usr/local/psi4/share/psi4
    Memory:     500.0 MiB
    Threads:    4
    
  ==> Input File <==

--------------------------------------------------------------------------
# Any line starting with the # character is a comment line
memory 250000 mb
molecule molecule{
0 2
Al          0.0000000000        0.0000000000        0.0000000000
}

set {
  reference uhf
  basis aug-cc-pv(5+d)z
  scf_type OUT_OF_CORE
  freeze_core true
}

energy('ccsd')
--------------------------------------------------------------------------

  Memory set to 232.831 GiB by Python driver.

*** tstart() called on cqc05
*** at Fri Aug 21 06:46:02 2020

   => Loading Basis Set <=

    Name: AUG-CC-PV(5+D)Z
    Role: ORBITAL
    Keyword: BASIS
    atoms 1 entry AL         line   608 file /home/irmler/Programs/psi4/beforeGrueneis3/stage/usr/local/psi4/share/psi4/basis/aug-cc-pv_5pd_z.gbs 


         ---------------------------------------------------------
                                   SCF
            by Justin Turney, Rob Parrish, Andy Simmonett
                             and Daniel Smith
                              UHF Reference
                        4 Threads, 238418 MiB Core
         ---------------------------------------------------------

  ==> Geometry <==

    Molecular point group: d2h
    Geometry (in Angstrom), charge = 0, multiplicity = 2:

       Center              X                  Y                   Z               Mass       
    ------------   -----------------  -----------------  -----------------  -----------------
          AL          0.000000000000     0.000000000000     0.000000000000    26.981538627000

  Running in d2h symmetry.

  Rotational constants: A = ************  B = ************  C = ************ [cm^-1]
  Rotational constants: A = ************  B = ************  C = ************ [MHz]
  Nuclear repulsion =    0.000000000000000

  Charge       = 0
  Multiplicity = 2
  Electrons    = 13
  Nalpha       = 7
  Nbeta        = 6

  ==> Algorithm <==

  SCF Algorithm Type is OUT_OF_CORE.
  DIIS enabled.
  MOM disabled.
  Fractional occupation disabled.
  Guess Type is GWH.
  Energy threshold   = 1.00e-08
  Density threshold  = 1.00e-08
  Integral threshold = 0.00e+00

  ==> Primary Basis <==

  Basis Set: AUG-CC-PV(5+D)Z
    Blend: AUG-CC-PV(5+D)Z
    Number of shells: 30
    Number of basis function: 136
    Number of Cartesian functions: 192
    Spherical Harmonics?: true
    Max angular momentum: 5

  ==> Pre-Iterations <==

   -------------------------------------------------------
    Irrep   Nso     Nmo     Nalpha   Nbeta   Ndocc  Nsocc
   -------------------------------------------------------
     Ag        29      29       0       0       0       0
     B1g       12      12       0       0       0       0
     B2g       12      12       0       0       0       0
     B3g       12      12       0       0       0       0
     Au         8       8       0       0       0       0
     B1u       21      21       0       0       0       0
     B2u       21      21       0       0       0       0
     B3u       21      21       0       0       0       0
   -------------------------------------------------------
    Total     136     136       7       6       6       1
   -------------------------------------------------------

  ==> Integral Setup <==

  ==> DiskJK: Disk-Based J/K Matrices <==

    J tasked:                  Yes
    K tasked:                  Yes
    wK tasked:                  No
    Memory (MB):            178813
    Schwarz Cutoff:          1E-12

  Minimum eigenvalue in the overlap matrix is 1.6988824165E-04.
  Using Symmetric Orthogonalization.

  SCF Guess: Generalized Wolfsberg-Helmholtz.

  ==> Iterations <==

                        Total Energy        Delta E     RMS |[F,P]|

    Occupation by irrep:
             Ag   B1g   B2g   B3g    Au   B1u   B2u   B3u 
    DOCC [     3,    0,    0,    0,    0,    1,    1,    1 ]
    SOCC [     0,    0,    0,    0,    0,    1,    0,    0 ]

   @UHF iter   1:  -231.91409235867911   -2.31914e+02   1.49423e-01 
   @UHF iter   2:  -240.33205145276736   -8.41796e+00   5.49836e-02 DIIS
   @UHF iter   3:  -241.86074809968321   -1.52870e+00   8.48497e-03 DIIS
   @UHF iter   4:  -241.87822386527188   -1.74758e-02   1.07659e-03 DIIS
   @UHF iter   5:  -241.88052561282521   -2.30175e-03   2.92449e-04 DIIS
   @UHF iter   6:  -241.88072937748234   -2.03765e-04   8.77237e-05 DIIS
   @UHF iter   7:  -241.88075514390155   -2.57664e-05   1.62503e-05 DIIS
   @UHF iter   8:  -241.88075594546194   -8.01560e-07   3.61347e-06 DIIS
   @UHF iter   9:  -241.88075599394151   -4.84796e-08   1.07478e-06 DIIS
   @UHF iter  10:  -241.88075599883078   -4.88927e-09   2.69613e-07 DIIS
   @UHF iter  11:  -241.88075599915652   -3.25741e-10   3.33340e-08 DIIS
   @UHF iter  12:  -241.88075599916158   -5.05906e-12   5.49456e-09 DIIS

  ==> Post-Iterations <==

   @Spin Contamination Metric:   2.064569870E-02
   @S^2 Expected:                7.500000000E-01
   @S^2 Observed:                7.706456987E-01
   @S   Expected:                5.000000000E-01
   @S   Observed:                5.000000000E-01

    Orbital Energies (a.u.)
    -----------------------

    Alpha Occupied:                                                       

       1Ag   -58.500982     2Ag    -4.910721     1B1u   -3.225219  
       1B3u   -3.217872     1B2u   -3.217872     3Ag    -0.425533  
       2B1u   -0.218529  

    Alpha Virtual:                                                        

       2B3u    0.009256     2B2u    0.009256     3B1u    0.032835  
       4Ag     0.034029     3B3u    0.044523     3B2u    0.044523  
       5Ag     0.075473     1B1g    0.075473     1B3g    0.076721  
       1B2g    0.076721     6Ag     0.077433     4B1u    0.175372  
       4B2u    0.192978     4B3u    0.192978     5B3u    0.199538  
       5B2u    0.199538     7Ag     0.201876     5B1u    0.203520  
       1Au     0.203520     6B2u    0.207080     6B3u    0.207080  
       6B1u    0.207375     8Ag     0.224447     2B3g    0.226062  
       2B2g    0.226062     9Ag     0.234325     2B1g    0.234325  
       3B1g    0.523032    10Ag     0.523032     3B2g    0.529342  
       3B3g    0.529342    11Ag     0.533770     4B1g    0.533770  
       4B3g    0.536235     4B2g    0.536235    12Ag     0.537009  
      13Ag     0.563269     5B3g    0.563723     5B2g    0.563723  
      14Ag     0.566438     5B1g    0.566438     7B3u    0.568295  
       7B2u    0.568295     7B1u    0.573673     2Au     0.573673  
       8B2u    0.576460     8B3u    0.576460     8B1u    0.577309  
       9B1u    0.683021     9B2u    0.688992     9B3u    0.688992  
      15Ag     0.773583    10B3u    1.295697    10B2u    1.295697  
      16Ag     1.302356     6B1g    1.302356    10B1u    1.304506  
       3Au     1.304506    11B2u    1.306286    11B3u    1.306286  
      12B2u    1.309730    12B3u    1.309730    11B1u    1.311458  
       6B3g    1.313016     6B2g    1.313016     4Au     1.315159  
      12B1u    1.315159    17Ag     1.316674    13B2u    1.322210  
      13B3u    1.322210    13B1u    1.327328     5Au     1.327328  
      14B2u    1.330434    14B3u    1.330434    14B1u    1.331475  
       7B1g    1.405087    18Ag     1.405087     7B3g    1.414934  
       7B2g    1.414934    19Ag     1.422170     8B1g    1.422170  
       8B3g    1.426610     8B2g    1.426610    20Ag     1.428110  
      15B3u    2.455418    15B2u    2.455418    15B1u    2.463172  
      21Ag     2.658982     9B1g    2.658982     9B3g    2.673523  
       9B2g    2.673523    22Ag     2.678081    16B3u    2.740931  
      16B2u    2.740931    16B1u    2.752992     6Au     2.752992  
      17B2u    2.760396    17B3u    2.760396    17B1u    2.762891  
      23Ag     3.021761    18B2u    3.178974    18B3u    3.178974  
       7Au     3.190166    18B1u    3.190166    19B3u    3.199023  
      19B2u    3.199023    19B1u    3.205432     8Au     3.205432  
      20B3u    3.209310    20B2u    3.209310    20B1u    3.210608  
      10B1g    3.282084    24Ag     3.282084    10B2g    3.293611  
      10B3g    3.293611    25Ag     3.301995    11B1g    3.301995  
      11B2g    3.307086    11B3g    3.307086    26Ag     3.308794  
      12B1g    6.993191    27Ag     6.993191    12B2g    7.001315  
      12B3g    7.001315    28Ag     7.004093    21B3u    9.781453  
      21B2u    9.781453    21B1u    9.785868    29Ag    24.818727  

    Beta Occupied:                                                        

       1Ag   -58.497870     2Ag    -4.907317     1B2u   -3.216332  
       1B3u   -3.216332     1B1u   -3.206991     3Ag    -0.363375  

    Beta Virtual:                                                         

       2B3u    0.012908     2B2u    0.012908     2B1u    0.025060  
       4Ag     0.036619     3B3u    0.047699     3B2u    0.047699  
       3B1u    0.072968     1B1g    0.075806     5Ag     0.075806  
       1B2g    0.081117     1B3g    0.081117     6Ag     0.083374  
       4B2u    0.196304     4B3u    0.196304     5B2u    0.199799  
       5B3u    0.199799     4B1u    0.206166     1Au     0.206166  
       7Ag     0.210016     6B3u    0.210758     6B2u    0.210758  
       5B1u    0.211234     6B1u    0.223470     2B1g    0.235585  
       8Ag     0.235585     2B2g    0.253364     2B3g    0.253364  
       9Ag     0.261548     3B1g    0.523237    10Ag     0.523237  
       3B3g    0.532649     3B2g    0.532649    11Ag     0.539707  
       4B1g    0.539707     4B3g    0.544126     4B2g    0.544126  
      12Ag     0.545635    13Ag     0.566815     5B1g    0.566815  
       7B2u    0.568665     7B3u    0.568665     2Au     0.584343  
       7B1u    0.584343     5B2g    0.591563     5B3g    0.591563  
       8B3u    0.593899     8B2u    0.593899     8B1u    0.597359  
      14Ag     0.601172     9B2u    0.692116     9B3u    0.692116  
       9B1u    0.724879    15Ag     0.784231    10B2u    1.295214  
      10B3u    1.295214    16Ag     1.302584     6B1g    1.302584  
      11B2u    1.306144    11B3u    1.306144     3Au     1.315748  
      10B1u    1.315748    11B1u    1.318672     4Au     1.318672  
       6B2g    1.326619     6B3g    1.326619    12B3u    1.327703  
      12B2u    1.327703    13B2u    1.328945    13B3u    1.328945  
      12B1u    1.331418    17Ag     1.335841    13B1u    1.336992  
       5Au     1.336992    14B2u    1.342766    14B3u    1.342766  
      14B1u    1.345089     7B1g    1.404778    18Ag     1.404778  
       7B3g    1.421912     7B2g    1.421912     8B1g    1.434721  
      19Ag     1.434721     8B2g    1.442699     8B3g    1.442699  
      20Ag     1.445423    15B2u    2.457297    15B3u    2.457297  
      15B1u    2.485694    21Ag     2.659243     9B1g    2.659243  
       9B2g    2.680222     9B3g    2.680222    22Ag     2.686375  
      16B2u    2.740294    16B3u    2.740294    16B1u    2.759723  
       6Au     2.759723    17B3u    2.771789    17B2u    2.771789  
      17B1u    2.775902    23Ag     3.028387    18B2u    3.178154  
      18B3u    3.178154     7Au     3.193905    18B1u    3.193905  
      19B2u    3.206443    19B3u    3.206443     8Au     3.215562  
      19B1u    3.215562    20B3u    3.221100    20B2u    3.221100  
      20B1u    3.222957    10B1g    3.281187    24Ag     3.281187  
      10B3g    3.298664    10B2g    3.298664    11B1g    3.311468  
      25Ag     3.311468    11B2g    3.319288    11B3g    3.319288  
      26Ag     3.321920    12B1g    6.993507    27Ag     6.993507  
      12B3g    7.005622    12B2g    7.005622    28Ag     7.009768  
      21B2u    9.782753    21B3u    9.782753    21B1u    9.798239  
      29Ag    24.821699  

    Final Occupation by Irrep:
             Ag   B1g   B2g   B3g    Au   B1u   B2u   B3u 
    DOCC [     3,    0,    0,    0,    0,    1,    1,    1 ]
    SOCC [     0,    0,    0,    0,    0,    1,    0,    0 ]

  Energy converged.

  @UHF Final Energy:  -241.88075599916158

   => Energetics <=

    Nuclear Repulsion Energy =              0.0000000000000000
    One-Electron Energy =                -336.6365668323968521
    Two-Electron Energy =                  94.7558108332352589
    Total Energy =                       -241.8807559991615790


  UHF NO Occupations:
  HONO-2 :    1B1u 1.9999965
  HONO-1 :    3 Ag 1.9896276
  HONO-0 :    2B1u 1.0000000
  LUNO+0 :    4 Ag 0.0103724
  LUNO+1 :    3B1u 0.0000035
  LUNO+2 :    2B3u 0.0000003
  LUNO+3 :    2B2u 0.0000003



Properties will be evaluated at   0.000000,   0.000000,   0.000000 Bohr

Properties computed using the SCF density matrix

  Nuclear Dipole Moment: (a.u.)
     X:     0.0000      Y:     0.0000      Z:     0.0000

  Electronic Dipole Moment: (a.u.)
     X:     0.0000      Y:     0.0000      Z:     0.0000

  Dipole Moment: (a.u.)
     X:     0.0000      Y:     0.0000      Z:     0.0000     Total:     0.0000

  Dipole Moment: (Debye)
     X:     0.0000      Y:     0.0000      Z:     0.0000     Total:     0.0000


*** tstop() called on cqc05 at Fri Aug 21 06:46:10 2020
Module time:
	user time   =       8.54 seconds =       0.14 minutes
	system time =       0.27 seconds =       0.00 minutes
	total time  =          8 seconds =       0.13 minutes
Total time:
	user time   =       8.54 seconds =       0.14 minutes
	system time =       0.27 seconds =       0.00 minutes
	total time  =          8 seconds =       0.13 minutes

*** tstart() called on cqc05
*** at Fri Aug 21 06:46:10 2020


	Wfn Parameters:
	--------------------
	Wavefunction         = CCSD
	Number of irreps     = 8
	Number of MOs        = 136
	Number of active MOs = 131
	AO-Basis             = NONE
	Semicanonical        = false
	Reference            = UHF
	Print Level          = 1

	IRREP	# MOs	# FZDC	# DOCC	# SOCC	# VIRT	# FZVR
	-----	-----	------	------	------	------	------
	 Ag	   29	    2	    1	    0	    26	    0
	 B1g	   12	    0	    0	    0	    12	    0
	 B2g	   12	    0	    0	    0	    12	    0
	 B3g	   12	    0	    0	    0	    12	    0
	 Au	   8	    0	    0	    0	    8	    0
	 B1u	   21	    1	    0	    1	    19	    0
	 B2u	   21	    1	    0	    0	    20	    0
	 B3u	   21	    1	    0	    0	    20	    0
	Transforming integrals...
	IWL integrals will be deleted.
	(OO|OO)...
	Presorting SO-basis two-electron integrals.
	Sorting File: SO Ints (nn|nn) nbuckets = 1
	Transforming the one-electron integrals and constructing Fock matrices
	Starting AA/AB first half-transformation.
	Sorting AA/AB half-transformed integrals.
	Starting BB first half-transformation.
	Sorting BB half-transformed integrals.
	First half integral transformation complete.
	Starting AA second half-transformation.
	Starting AB second half-transformation.
	Starting BB second half-transformation.
	Two-electron integral transformation complete.
	(OO|OV)...
	Starting AA second half-transformation.
	Starting AB second half-transformation.
	Starting BB second half-transformation.
	Two-electron integral transformation complete.
	(OO|VV)...
	Starting AA second half-transformation.
	Starting AB second half-transformation.
	Starting BB second half-transformation.
	Two-electron integral transformation complete.
	(OV|OO)...
	Starting AA/AB first half-transformation.
	Sorting AA/AB half-transformed integrals.
	Starting BB first half-transformation.
	Sorting BB half-transformed integrals.
	First half integral transformation complete.
	Starting AA second half-transformation.
	Starting AB second half-transformation.
	Starting BB second half-transformation.
	Two-electron integral transformation complete.
	(OV|OV)...
	Starting AA second half-transformation.
	Starting AB second half-transformation.
	Starting BB second half-transformation.
	Two-electron integral transformation complete.
	(OV|VV)...
	Starting AA second half-transformation.
	Starting AB second half-transformation.
	Starting BB second half-transformation.
	Two-electron integral transformation complete.
	(VV|OO)...
	Starting AA/AB first half-transformation.
	Sorting AA/AB half-transformed integrals.
	Starting BB first half-transformation.
	Sorting BB half-transformed integrals.
	First half integral transformation complete.
	Starting AA second half-transformation.
	Starting AB second half-transformation.
	Starting BB second half-transformation.
	Two-electron integral transformation complete.
	(VV|OV)...
	Starting AA second half-transformation.
	Starting AB second half-transformation.
	Starting BB second half-transformation.
	Two-electron integral transformation complete.
	(VV|VV)...
	Starting AA second half-transformation.
	Starting AB second half-transformation.
	Starting BB second half-transformation.
	Two-electron integral transformation complete.
	Frozen core energy     =   -239.99814376667865

	Size of irrep 0 of <AB|CD> integrals:      1.214 (MW) /      9.715 (MB)
	Size of irrep 1 of <AB|CD> integrals:      1.016 (MW) /      8.129 (MB)
	Size of irrep 2 of <AB|CD> integrals:      0.992 (MW) /      7.936 (MB)
	Size of irrep 3 of <AB|CD> integrals:      0.992 (MW) /      7.936 (MB)
	Size of irrep 4 of <AB|CD> integrals:      0.839 (MW) /      6.712 (MB)
	Size of irrep 5 of <AB|CD> integrals:      1.145 (MW) /      9.159 (MB)
	Size of irrep 6 of <AB|CD> integrals:      1.175 (MW) /      9.400 (MB)
	Size of irrep 7 of <AB|CD> integrals:      1.175 (MW) /      9.400 (MB)
	Total:                                     8.549 (MW) /     68.389 (MB)

	Size of irrep 0 of <ab|cd> integrals:      1.257 (MW) /     10.053 (MB)
	Size of irrep 1 of <ab|cd> integrals:      1.032 (MW) /      8.258 (MB)
	Size of irrep 2 of <ab|cd> integrals:      1.032 (MW) /      8.258 (MB)
	Size of irrep 3 of <ab|cd> integrals:      1.032 (MW) /      8.258 (MB)
	Size of irrep 4 of <ab|cd> integrals:      0.861 (MW) /      6.889 (MB)
	Size of irrep 5 of <ab|cd> integrals:      1.201 (MW) /      9.610 (MB)
	Size of irrep 6 of <ab|cd> integrals:      1.201 (MW) /      9.610 (MB)
	Size of irrep 7 of <ab|cd> integrals:      1.201 (MW) /      9.610 (MB)
	Total:                                     8.818 (MW) /     70.546 (MB)

	Size of irrep 0 of <Ab|Cd> integrals:      5.532 (MW) /     44.255 (MB)
	Size of irrep 1 of <Ab|Cd> integrals:      4.097 (MW) /     32.773 (MB)
	Size of irrep 2 of <Ab|Cd> integrals:      4.048 (MW) /     32.385 (MB)
	Size of irrep 3 of <Ab|Cd> integrals:      4.048 (MW) /     32.385 (MB)
	Size of irrep 4 of <Ab|Cd> integrals:      3.400 (MW) /     27.203 (MB)
	Size of irrep 5 of <Ab|Cd> integrals:      4.692 (MW) /     37.532 (MB)
	Size of irrep 6 of <Ab|Cd> integrals:      4.752 (MW) /     38.019 (MB)
	Size of irrep 7 of <Ab|Cd> integrals:      4.752 (MW) /     38.019 (MB)
	Total:                                    35.321 (MW) /    282.572 (MB)

	Size of irrep 0 of <IA|BC> integrals:      0.105 (MW) /      0.840 (MB)
	Size of irrep 1 of <IA|BC> integrals:      0.040 (MW) /      0.323 (MB)
	Size of irrep 2 of <IA|BC> integrals:      0.064 (MW) /      0.510 (MB)
	Size of irrep 3 of <IA|BC> integrals:      0.064 (MW) /      0.510 (MB)
	Size of irrep 4 of <IA|BC> integrals:      0.037 (MW) /      0.293 (MB)
	Size of irrep 5 of <IA|BC> integrals:      0.096 (MW) /      0.770 (MB)
	Size of irrep 6 of <IA|BC> integrals:      0.069 (MW) /      0.555 (MB)
	Size of irrep 7 of <IA|BC> integrals:      0.069 (MW) /      0.555 (MB)
	Total:                                     0.544 (MW) /      4.356 (MB)

	Size of irrep 0 of <ia|bc> integrals:      0.062 (MW) /      0.493 (MB)
	Size of irrep 1 of <ia|bc> integrals:      0.024 (MW) /      0.195 (MB)
	Size of irrep 2 of <ia|bc> integrals:      0.024 (MW) /      0.195 (MB)
	Size of irrep 3 of <ia|bc> integrals:      0.024 (MW) /      0.195 (MB)
	Size of irrep 4 of <ia|bc> integrals:      0.015 (MW) /      0.119 (MB)
	Size of irrep 5 of <ia|bc> integrals:      0.044 (MW) /      0.351 (MB)
	Size of irrep 6 of <ia|bc> integrals:      0.044 (MW) /      0.351 (MB)
	Size of irrep 7 of <ia|bc> integrals:      0.044 (MW) /      0.351 (MB)
	Total:                                     0.281 (MW) /      2.250 (MB)

	Size of irrep 0 of <Ia|Bc> integrals:      0.108 (MW) /      0.866 (MB)
	Size of irrep 1 of <Ia|Bc> integrals:      0.040 (MW) /      0.324 (MB)
	Size of irrep 2 of <Ia|Bc> integrals:      0.064 (MW) /      0.515 (MB)
	Size of irrep 3 of <Ia|Bc> integrals:      0.064 (MW) /      0.515 (MB)
	Size of irrep 4 of <Ia|Bc> integrals:      0.037 (MW) /      0.295 (MB)
	Size of irrep 5 of <Ia|Bc> integrals:      0.100 (MW) /      0.797 (MB)
	Size of irrep 6 of <Ia|Bc> integrals:      0.070 (MW) /      0.558 (MB)
	Size of irrep 7 of <Ia|Bc> integrals:      0.070 (MW) /      0.558 (MB)
	Total:                                     0.553 (MW) /      4.428 (MB)

	Size of irrep 0 of <iA|bC> integrals:      0.061 (MW) /      0.489 (MB)
	Size of irrep 1 of <iA|bC> integrals:      0.024 (MW) /      0.194 (MB)
	Size of irrep 2 of <iA|bC> integrals:      0.024 (MW) /      0.193 (MB)
	Size of irrep 3 of <iA|bC> integrals:      0.024 (MW) /      0.193 (MB)
	Size of irrep 4 of <iA|bC> integrals:      0.015 (MW) /      0.118 (MB)
	Size of irrep 5 of <iA|bC> integrals:      0.041 (MW) /      0.329 (MB)
	Size of irrep 6 of <iA|bC> integrals:      0.044 (MW) /      0.349 (MB)
	Size of irrep 7 of <iA|bC> integrals:      0.044 (MW) /      0.349 (MB)
	Total:                                     0.277 (MW) /      2.215 (MB)

	Size of irrep 0 of tIjAb amplitudes:       0.002 (MW) /      0.019 (MB)
	Size of irrep 1 of tIjAb amplitudes:       0.000 (MW) /      0.000 (MB)
	Size of irrep 2 of tIjAb amplitudes:       0.000 (MW) /      0.000 (MB)
	Size of irrep 3 of tIjAb amplitudes:       0.000 (MW) /      0.000 (MB)
	Size of irrep 4 of tIjAb amplitudes:       0.000 (MW) /      0.000 (MB)
	Size of irrep 5 of tIjAb amplitudes:       0.002 (MW) /      0.017 (MB)
	Size of irrep 6 of tIjAb amplitudes:       0.000 (MW) /      0.000 (MB)
	Size of irrep 7 of tIjAb amplitudes:       0.000 (MW) /      0.000 (MB)
	Total:                                     0.005 (MW) /      0.036 (MB)

	Nuclear Rep. energy          =      0.00000000000000
	SCF energy                   =   -241.88075599916158
	One-electron energy          =     -2.75778743367706
	Two-electron (AA) energy     =      0.23130675035118
	Two-electron (BB) energy     =      0.00000000000000
	Two-electron (AB) energy     =      0.64386845084300
	Two-electron energy          =      0.87517520119419
	Reference energy             =   -241.88075599916152

*** tstop() called on cqc05 at Fri Aug 21 06:46:14 2020
Module time:
	user time   =       2.84 seconds =       0.05 minutes
	system time =       1.46 seconds =       0.02 minutes
	total time  =          4 seconds =       0.07 minutes
Total time:
	user time   =      11.38 seconds =       0.19 minutes
	system time =       1.73 seconds =       0.03 minutes
	total time  =         12 seconds =       0.20 minutes

*** tstart() called on cqc05
*** at Fri Aug 21 06:46:14 2020

            **************************
            *                        *
            *        CCENERGY        *
            *                        *
            **************************

    Nuclear Rep. energy (wfn)     =    0.000000000000000
    SCF energy          (wfn)     = -241.880755999161579
    Reference energy    (file100) = -241.880755999161522

    Input parameters:
    -----------------
    Wave function   =     CCSD
    Reference wfn   =     UHF
    Brueckner       =     No
    Memory (Mbytes) =     250000.0
    Maxiter         =     50
    R_Convergence   =     1.0e-07
    E_Convergence   =     1.0e-06
    Restart         =     Yes
    DIIS            =     Yes
    AO Basis        =     NONE
    ABCD            =     NEW
    Cache Level     =     2
    Cache Type      =     LRU
    Print Level     =     1
    Num. of threads =     4
    # Amps to Print =     10
    Print MP2 Amps? =     No
    Analyze T2 Amps =     No
    Print Pair Ener =     No
    Local CC        =     No
    SCS-MP2         =     False
    SCSN-MP2        =     False
    SCS-CCSD        =     False

MP2 correlation energy -0.0392331223782801
                Solving CC Amplitude Equations
                ------------------------------
  Iter             Energy              RMS        T1Diag      D1Diag    New D1Diag    D2Diag
  ----     ---------------------    ---------   ----------  ----------  ----------   --------
     0        -0.039233122378282    0.000e+00    0.000000    0.000000    0.000000    0.000000
     1        -0.046357732784040    5.865e-02    0.013520    0.000000    0.000000    0.000000
     2        -0.052302974885957    2.831e-02    0.025325    0.000000    0.000000    0.000000
     3        -0.052303383514712    5.821e-03    0.027444    0.000000    0.000000    0.000000
     4        -0.052483987093050    1.845e-03    0.027986    0.000000    0.000000    0.000000
     5        -0.052494729447449    4.878e-04    0.027996    0.000000    0.000000    0.000000
     6        -0.052488446719898    1.044e-04    0.027978    0.000000    0.000000    0.000000
     7        -0.052490561834665    3.190e-05    0.027983    0.000000    0.000000    0.000000
     8        -0.052490519026150    9.768e-06    0.027985    0.000000    0.000000    0.000000
     9        -0.052490312680507    2.661e-06    0.027985    0.000000    0.000000    0.000000
    10        -0.052490289998802    8.456e-07    0.027985    0.000000    0.000000    0.000000
    11        -0.052490309414158    2.942e-07    0.027986    0.000000    0.000000    0.000000
    12        -0.052490310617587    6.841e-08    0.027986    0.000000    0.000000    0.000000
    12        -0.052490310617587    6.841e-08    0.027986    0.000000    0.000000    0.000000

    Iterations converged.


    CCSD corr. energy   =   -0.052490310617587
    PPL corr. energy    =    0.024911873855807
    OS PPL corr. energy =    0.024057269453257
    SS PPL corr. energy =    0.000854604402552
    Largest TIA Amplitudes:
              0   4        -0.0318559446
              0   2         0.0172585675
              0   9        -0.0158349883
              0   3        -0.0108484001
              0   0         0.0100673465
              1  71         0.0091282237
              1  73         0.0069727719
              1  75         0.0061911211
              1  70        -0.0049137377
              1  76        -0.0048681257

    Largest Tia Amplitudes:
              0   3         0.0104015477
              0   0        -0.0088963745
              0   5        -0.0080948645
              0  10        -0.0061245344
              0   2         0.0034911228
              0  19        -0.0016057180
              0  16        -0.0006780932
              0  13        -0.0006741097
              0   8         0.0003984962
              0  11         0.0003182229

    Largest TIJAB Amplitudes:
      1   0 109  39        -0.0192306372
      1   0  89  51        -0.0192306371
      1   0  71   3         0.0186848296
      1   0 110  39         0.0179440046
      1   0  90  51         0.0179440045
      1   0 111  39        -0.0141776751
      1   0  91  51        -0.0141776750
      1   0  71  11        -0.0127448511
      1   0  76  11         0.0116077569
      1   0  71   4         0.0115274659

    Largest TIjAb Amplitudes:
      0   0 109 111        -0.0739361996
      0   0  89  91        -0.0739361989
      1   0   4  71        -0.0694901515
      0   0 110 111         0.0678035979
      0   0  90  91         0.0678035975
      0   0 109 110         0.0671958049
      0   0  89  90         0.0671958037
      0   0 110 110        -0.0613503761
      0   0  90  90        -0.0613503752
      0   0 109 112         0.0583799697

    SCF energy       (wfn)                    = -241.880755999161579
    Reference energy (file100)                = -241.880755999161522

    Opposite-spin MP2 correlation energy      =   -0.036545762161916
    Same-spin MP2 correlation energy          =   -0.002687360216301
    MP2 correlation energy                    =   -0.039233122378280
      * MP2 total energy                      = -241.919989121539800

    Opposite-spin CCSD correlation energy     =   -0.049391500949094
    Same-spin CCSD correlation energy         =   -0.003098811907734
    CCSD correlation energy                   =   -0.052490310617587
      * CCSD total energy                     = -241.933246309779122


*** tstop() called on cqc05 at Fri Aug 21 06:46:17 2020
Module time:
	user time   =       1.19 seconds =       0.02 minutes
	system time =       1.16 seconds =       0.02 minutes
	total time  =          3 seconds =       0.05 minutes
Total time:
	user time   =      12.57 seconds =       0.21 minutes
	system time =       2.89 seconds =       0.05 minutes
	total time  =         15 seconds =       0.25 minutes

*** Psi4 exiting successfully. Buy a developer a beer!
