
    -----------------------------------------------------------------------
          Psi4: An Open-Source Ab Initio Electronic Structure Package
                               Psi4 1.2a1.dev939 

                         Git: Rev {HEAD} fa1ec19 dirty


    R. M. Parrish, L. A. Burns, D. G. A. Smith, A. C. Simmonett,
    A. E. DePrince III, E. G. Hohenstein, U. Bozkaya, A. Yu. Sokolov,
    R. Di Remigio, R. M. Richard, J. F. Gonthier, A. M. James,
    H. R. McAlexander, A. Kumar, M. Saitow, X. Wang, B. P. Pritchard,
    P. Verma, H. F. Schaefer III, K. Patkowski, R. A. King, E. F. Valeev,
    F. A. Evangelista, J. M. Turney, T. D. Crawford, and C. D. Sherrill,
    J. Chem. Theory Comput. 13(7) pp 3185--3197 (2017).
    (doi: 10.1021/acs.jctc.7b00174)

    -----------------------------------------------------------------------


    Psi4 started on: Thursday, 06 August 2020 05:25PM

    Process ID: 153115
    PSIDATADIR: /home/fs71337/airmler/src/psi4new/build/stage/usr/local/psi4/share/psi4
    Memory:     500.0 MiB
    Threads:    48
    
  ==> Input File <==

--------------------------------------------------------------------------
# Any line starting with the # character is a comment line

memory 500000 mb

molecule molecule {
0 1
O         -0.7244270781        0.0593002388       -0.0313570792
O          0.7244270781       -0.0593002388       -0.0313570792
H         -0.9500122316       -0.7177793110        0.4977423786
H          0.9500122316        0.7177793110        0.4977423786
}

set {
  reference rhf


  basis aug-cc-pv(6+d)z
  scf_type OUT_OF_CORE
  freeze_core true
}

energy('ccsd')
--------------------------------------------------------------------------

  Memory set to 465.661 GiB by Python driver.

*** tstart() called on n411-012.vsc4.prov
*** at Thu Aug  6 17:25:30 2020

   => Loading Basis Set <=

    Name: AUG-CC-PV(6+D)Z
    Role: ORBITAL
    Keyword: BASIS
    atoms 1-2 entry O          line   459 file /home/fs71337/airmler/src/psi4new/build/stage/usr/local/psi4/share/psi4/basis/aug-cc-pv_6pd_z.gbs 
    atoms 3-4 entry H          line    51 file /home/fs71337/airmler/src/psi4new/build/stage/usr/local/psi4/share/psi4/basis/aug-cc-pv_6pd_z.gbs 


         ---------------------------------------------------------
                                   SCF
            by Justin Turney, Rob Parrish, Andy Simmonett
                             and Daniel Smith
                              RHF Reference
                       48 Threads, 476837 MiB Core
         ---------------------------------------------------------

  ==> Geometry <==

    Molecular point group: c2
    Full point group: C2

    Geometry (in Angstrom), charge = 0, multiplicity = 1:

       Center              X                  Y                   Z               Mass       
    ------------   -----------------  -----------------  -----------------  -----------------
           O         -0.724427078100     0.059300238800    -0.031361985712    15.994914619560
           O          0.724427078100    -0.059300238800    -0.031361985712    15.994914619560
           H         -0.950012231600    -0.717779311000     0.497737472088     1.007825032070
           H          0.950012231600     0.717779311000     0.497737472088     1.007825032070

  Running in c2 symmetry.

  Rotational constants: A =     10.02358  B =      0.88084  C =      0.85320 [cm^-1]
  Rotational constants: A = 300499.43432  B =  26406.97586  C =  25578.15107 [MHz]
  Nuclear repulsion =   36.791784198804564

  Charge       = 0
  Multiplicity = 1
  Electrons    = 18
  Nalpha       = 9
  Nbeta        = 9

  ==> Algorithm <==

  SCF Algorithm Type is OUT_OF_CORE.
  DIIS enabled.
  MOM disabled.
  Fractional occupation disabled.
  Guess Type is SAD.
  Energy threshold   = 1.00e-08
  Density threshold  = 1.00e-08
  Integral threshold = 0.00e+00

  ==> Primary Basis <==

  Basis Set: AUG-CC-PV(6+D)Z
    Blend: AUG-CC-PV(6+D)Z
    Number of shells: 124
    Number of basis function: 632
    Number of Cartesian functions: 952
    Spherical Harmonics?: true
    Max angular momentum: 6

  ==> Pre-Iterations <==

   -------------------------------------------------------
    Irrep   Nso     Nmo     Nalpha   Nbeta   Ndocc  Nsocc
   -------------------------------------------------------
     A        316     316       0       0       0       0
     B        316     316       0       0       0       0
   -------------------------------------------------------
    Total     632     632       9       9       9       0
   -------------------------------------------------------

  ==> Integral Setup <==

  ==> DiskJK: Disk-Based J/K Matrices <==

    J tasked:                  Yes
    K tasked:                  Yes
    wK tasked:                  No
    Memory (MB):            357627
    Schwarz Cutoff:          1E-12

  Minimum eigenvalue in the overlap matrix is 1.9089667989E-06.
  Using Symmetric Orthogonalization.

  SCF Guess: Superposition of Atomic Densities via on-the-fly atomic UHF.

  ==> Iterations <==

                        Total Energy        Delta E     RMS |[F,P]|

   @RHF iter   0:  -150.88456430006585   -1.50885e+02   2.37920e-02 
   @RHF iter   1:  -150.80818531421039    7.63790e-02   3.86020e-03 
   @RHF iter   2:  -150.84579834555140   -3.76130e-02   1.28105e-03 DIIS
   @RHF iter   3:  -150.85002441836161   -4.22607e-03   3.95387e-04 DIIS
   @RHF iter   4:  -150.85115762287356   -1.13320e-03   1.68776e-04 DIIS
   @RHF iter   5:  -150.85143458241004   -2.76960e-04   6.04874e-05 DIIS
   @RHF iter   6:  -150.85148645829395   -5.18759e-05   1.99036e-05 DIIS
   @RHF iter   7:  -150.85149384446524   -7.38617e-06   6.99580e-06 DIIS
   @RHF iter   8:  -150.85149491348926   -1.06902e-06   2.18006e-06 DIIS
   @RHF iter   9:  -150.85149495554660   -4.20573e-08   4.12350e-07 DIIS
   @RHF iter  10:  -150.85149495707083   -1.52423e-09   6.60744e-08 DIIS
   @RHF iter  11:  -150.85149495713105   -6.02256e-11   1.79572e-08 DIIS
   @RHF iter  12:  -150.85149495713290   -1.84741e-12   4.65523e-09 DIIS

  ==> Post-Iterations <==

    Orbital Energies (a.u.)
    -----------------------

    Doubly Occupied:                                                      

       1A    -20.630583     1B    -20.630293     2A     -1.475029  
       2B     -1.214756     3A     -0.713338     3B     -0.711973  
       4A     -0.609629     5A     -0.520376     4B     -0.488971  

    Virtual:                                                              

       6A      0.022663     5B      0.028778     6B      0.059470  
       7A      0.066120     8A      0.093348     7B      0.097226  
       8B      0.101983     9A      0.105479    10A      0.115977  
       9B      0.136108    11A      0.149932    10B      0.179489  
      11B      0.196966    12A      0.203502    12B      0.211009  
      13A      0.211728    13B      0.243297    14A      0.246024  
      14B      0.287418    15A      0.324607    15B      0.328787  
      16A      0.373856    16B      0.377253    17A      0.387571  
      18A      0.388514    17B      0.394485    19A      0.400670  
      18B      0.411713    20A      0.437204    19B      0.447270  
      21A      0.452781    20B      0.459293    21B      0.464269  
      22A      0.465785    22B      0.470635    23A      0.478221  
      23B      0.488527    24A      0.488853    24B      0.502292  
      25A      0.510922    26A      0.570853    25B      0.575997  
      26B      0.583593    27B      0.609198    27A      0.617287  
      28B      0.632551    28A      0.638637    29A      0.700907  
      29B      0.792442    30A      0.804867    30B      0.834308  
      31A      0.851738    31B      0.873519    32A      0.885234  
      32B      0.896822    33B      0.903580    33A      0.911086  
      34A      0.965869    35A      0.972790    34B      0.978230  
      35B      0.994755    36A      0.995483    37A      0.997789  
      36B      1.000489    37B      1.017526    38A      1.023902  
      38B      1.026987    39B      1.047584    39A      1.054417  
      40B      1.093916    40A      1.105517    41B      1.114043  
      41A      1.116672    42A      1.128021    43A      1.142253  
      42B      1.164240    43B      1.180461    44A      1.209802  
      44B      1.220879    45A      1.234105    45B      1.247477  
      46A      1.284478    46B      1.286300    47A      1.294670  
      48A      1.300377    47B      1.330588    48B      1.345934  
      49A      1.356549    49B      1.412256    50A      1.414612  
      51A      1.440895    50B      1.471960    52A      1.524640  
      51B      1.526171    52B      1.563106    53A      1.671627  
      53B      1.706141    54A      1.717478    55A      1.728236  
      54B      1.737701    55B      1.837028    56B      1.891170  
      56A      1.898313    57B      1.932307    57A      1.937573  
      58A      1.939918    59A      2.007300    58B      2.014636  
      60A      2.059742    59B      2.061277    60B      2.075036  
      61B      2.099086    61A      2.141319    62A      2.202055  
      62B      2.203789    63B      2.221575    63A      2.243427  
      64B      2.253104    64A      2.261587    65B      2.265158  
      65A      2.297236    66A      2.336946    66B      2.344042  
      67A      2.355173    67B      2.356084    68A      2.369280  
      68B      2.390586    69A      2.391977    69B      2.422166  
      70A      2.439032    70B      2.443974    71A      2.464048  
      72A      2.503967    71B      2.506545    73A      2.519620  
      72B      2.531363    74A      2.558093    73B      2.559240  
      75A      2.573990    76A      2.598078    74B      2.609507  
      75B      2.633122    77A      2.640806    76B      2.668274  
      78A      2.677130    77B      2.684143    78B      2.721491  
      79A      2.740041    80A      2.755988    79B      2.759770  
      81A      2.772091    80B      2.782633    82A      2.814078  
      81B      2.850381    82B      2.877283    83A      2.910869  
      83B      2.912641    84A      2.943239    85A      2.964755  
      84B      2.969278    86A      3.013074    85B      3.023104  
      87A      3.061100    86B      3.074154    88A      3.087077  
      87B      3.127124    89A      3.210098    88B      3.253319  
      89B      3.292913    90B      3.323859    90A      3.333802  
      91A      3.409307    92A      3.461678    91B      3.526684  
      92B      3.552946    93A      3.640417    93B      3.655843  
      94A      3.704969    94B      3.720001    95A      3.746775  
      95B      3.816390    96A      3.880676    96B      3.992945  
      97A      4.086165    97B      4.088884    98A      4.123421  
      99A      4.179938    98B      4.253440   100A      4.259888  
      99B      4.305021   100B      4.366108   101A      4.384689  
     102A      4.469715   101B      4.471523   103A      4.525432  
     102B      4.570489   104A      4.578101   103B      4.583241  
     104B      4.615472   105A      4.621102   105B      4.661515  
     106A      4.676486   107A      4.690487   108A      4.744975  
     106B      4.772746   107B      4.796424   108B      4.813038  
     109B      4.832051   109A      4.840614   110A      4.872024  
     111A      4.884500   112A      4.902399   110B      4.905985  
     111B      4.952734   113A      4.954038   112B      4.974638  
     113B      4.993139   114A      5.012361   114B      5.040352  
     115A      5.047776   115B      5.086245   116A      5.119001  
     116B      5.138410   117B      5.164787   117A      5.168997  
     118A      5.200932   118B      5.210667   119A      5.214822  
     119B      5.253232   120A      5.253909   120B      5.265620  
     121A      5.300871   121B      5.321866   122A      5.352922  
     122B      5.353282   123A      5.397325   123B      5.410010  
     124A      5.441850   124B      5.446342   125A      5.460230  
     125B      5.478456   126A      5.479751   126B      5.510741  
     127A      5.549943   127B      5.584745   128B      5.613196  
     128A      5.619536   129A      5.693652   129B      5.705383  
     130B      5.766881   130A      5.778079   131A      5.788426  
     131B      5.816375   132A      5.854243   132B      5.877745  
     133A      5.883763   134A      5.924382   133B      5.957945  
     135A      5.993022   136A      6.093584   134B      6.098524  
     135B      6.139808   137A      6.164697   138A      6.211215  
     136B      6.221641   137B      6.267405   139A      6.280530  
     140A      6.358515   138B      6.407132   141A      6.446959  
     139B      6.463327   140B      6.510072   142A      6.528900  
     141B      6.543698   142B      6.671946   143A      6.777747  
     143B      6.851381   144B      6.877784   144A      6.882560  
     145A      6.918516   145B      6.995638   146A      7.039831  
     146B      7.182974   147B      7.290346   147A      7.309820  
     148A      7.315847   149A      7.341480   148B      7.343584  
     149B      7.485847   150A      7.544641   151A      7.640812  
     152A      7.667902   150B      7.697061   151B      7.701956  
     152B      7.755687   153A      7.881543   153B      7.953150  
     154A      7.957914   154B      8.074951   155A      8.091537  
     156A      8.096943   155B      8.105914   156B      8.238379  
     157A      8.362258   157B      8.482780   158A      8.492641  
     159A      8.540716   158B      8.616898   159B      8.765472  
     160A      9.045876   160B      9.146749   161B      9.163829  
     161A      9.181516   162B      9.273211   162A      9.287716  
     163A      9.460641   164A      9.462919   165A      9.503694  
     163B      9.507430   164B      9.559904   166A      9.571809  
     167A      9.614763   165B      9.635143   166B      9.675924  
     167B      9.742491   168A      9.766427   169A      9.799207  
     168B      9.862112   169B      9.875897   170A      9.876882  
     170B      9.955478   171A      9.968676   171B     10.005125  
     172A     10.016745   172B     10.054286   173B     10.129874  
     173A     10.144189   174A     10.182345   174B     10.215657  
     175A     10.252406   175B     10.274511   176A     10.343293  
     176B     10.464681   177A     10.633346   177B     10.636328  
     178B     10.719967   178A     10.737031   179A     10.785937  
     180A     10.811437   179B     10.863416   181A     10.915232  
     180B     10.917045   181B     11.006058   182A     11.034077  
     183A     11.059589   182B     11.094873   184A     11.099341  
     183B     11.124401   185A     11.164181   184B     11.167327  
     186A     11.173543   185B     11.186017   186B     11.238574  
     187A     11.248675   187B     11.329413   188A     11.373204  
     188B     11.393765   189A     11.418081   190A     11.425292  
     189B     11.437706   191A     11.476804   190B     11.496709  
     191B     11.537267   192A     11.570465   192B     11.582620  
     193A     11.587876   193B     11.652347   194A     11.722978  
     194B     11.785842   195A     11.875951   195B     11.943423  
     196A     11.986051   196B     12.177135   197A     12.181956  
     197B     12.292910   198A     12.345175   198B     12.362093  
     199A     12.482429   200A     12.575558   199B     12.585392  
     201A     12.659819   200B     12.804497   201B     12.839220  
     202B     12.885549   202A     12.968909   203A     13.051759  
     203B     13.190464   204A     13.256803   205A     13.426955  
     204B     13.434014   205B     13.532845   206A     13.586994  
     207A     13.671556   208A     13.773856   206B     13.784348  
     207B     13.827712   209A     13.858549   210A     13.945592  
     208B     13.945937   209B     14.000091   210B     14.105413  
     211A     14.150097   212A     14.235733   211B     14.239153  
     212B     14.288343   213A     14.295862   214A     14.493361  
     213B     14.525414   215A     14.567976   214B     14.624233  
     216A     14.654789   215B     14.799041   217A     14.832774  
     216B     14.886766   218A     15.341387   217B     15.358005  
     218B     15.385806   219A     15.459719   219B     15.530379  
     220A     15.556253   220B     15.654339   221B     15.777448  
     221A     15.936409   222B     16.059891   222A     16.090934  
     223A     16.231318   223B     16.255177   224A     16.403327  
     224B     16.495393   225A     16.556291   225B     16.736580  
     226A     17.373327   226B     17.455532   227A     17.575081  
     227B     17.651517   228A     17.676307   228B     17.690413  
     229A     17.813885   229B     17.848938   230A     18.018043  
     230B     18.100482   231A     18.360443   231B     18.361672  
     232B     18.392840   233B     18.518056   232A     18.563826  
     233A     18.653224   234A     19.263750   234B     19.306589  
     235A     19.754398   235B     19.783411   236B     19.925996  
     236A     19.932020   237A     20.338311   237B     20.443469  
     238B     20.489425   238A     20.490110   239A     20.503610  
     239B     20.597652   240B     20.703775   241B     20.908312  
     240A     20.910728   241A     20.994109   242A     21.229161  
     242B     21.240063   243A     21.307224   243B     21.323387  
     244A     21.392745   244B     21.396806   245B     21.444606  
     245A     21.492040   246B     21.583487   246A     21.590904  
     247A     21.637630   248A     21.695142   247B     21.717203  
     248B     21.817962   249A     21.867000   249B     21.941799  
     250A     22.074839   250B     22.134581   251A     22.627903  
     251B     23.029591   252A     23.079980   253A     23.106836  
     252B     23.201972   254A     23.262218   255A     23.270866  
     253B     23.337655   254B     23.360521   255B     23.450735  
     256A     23.462643   256B     23.541542   257A     23.588499  
     258A     23.639272   257B     23.652319   258B     23.678067  
     259A     23.698320   259B     23.804826   260A     23.826372  
     260B     23.862395   261B     24.207383   262B     24.256514  
     261A     24.286828   263B     24.319349   262A     24.332516  
     263A     24.456398   264B     24.459554   264A     24.480811  
     265B     24.499669   265A     24.529463   266A     24.579519  
     266B     24.620541   267B     24.651327   267A     24.677337  
     268B     24.971765   268A     25.031082   269A     25.464835  
     269B     25.532293   270B     25.554340   270A     25.559376  
     271B     25.678207   271A     25.747153   272A     26.285040  
     272B     26.302005   273A     26.496855   273B     26.515657  
     274A     26.560358   274B     26.661342   275B     26.774118  
     275A     26.805213   276A     27.059149   277A     27.122109  
     276B     27.134683   277B     27.205802   278A     27.254474  
     278B     27.257723   279A     27.394323   279B     27.448248  
     280A     27.482460   281A     27.501305   280B     27.503109  
     281B     27.650432   282B     27.672161   282A     27.680140  
     283A     27.699640   284A     27.732950   283B     27.795889  
     284B     27.965507   285A     27.993599   285B     28.118516  
     286B     28.183807   286A     28.210460   287A     28.262706  
     287B     28.413166   288A     28.506280   288B     28.617419  
     289A     28.776018   289B     28.797232   290B     28.978300  
     291B     29.258512   290A     29.282243   291A     29.432835  
     292A     29.753503   292B     29.921241   293A     30.079408  
     293B     30.197266   294A     30.606983   294B     31.309988  
     295B     31.883552   295A     31.937320   296A     32.025182  
     296B     32.115321   297A     32.149755   297B     32.323584  
     298A     32.365619   298B     32.446883   299A     32.509407  
     299B     33.005620   300A     33.230221   300B     33.247371  
     301A     33.299561   301B     33.341095   302A     33.450412  
     302B     33.582929   303B     33.651250   303A     33.693191  
     304A     33.967991   304B     34.024534   305A     34.200691  
     305B     34.225865   306B     34.925822   306A     34.938528  
     307A     35.158159   307B     35.386396   308A     35.924503  
     308B     35.989437   309B     36.013538   309A     36.032007  
     310B     36.101243   311B     36.393625   310A     36.546494  
     311A     37.267097   312A     39.284867   312B     39.328383  
     313A     39.474409   313B     39.533322   314B     39.618261  
     314A     39.753470   315A     41.677775   315B     41.806474  
     316A    106.958161   316B    107.316174  

    Final Occupation by Irrep:
              A     B 
    DOCC [     5,    4 ]

  Energy converged.

  @RHF Final Energy:  -150.85149495713290

   => Energetics <=

    Nuclear Repulsion Energy =             36.7917841988045637
    One-Electron Energy =                -281.2966646788950129
    Two-Electron Energy =                  93.6533855229575352
    PCM Polarization Energy =               0.0000000000000000
    Total Energy =                       -150.8514949571328998

    Alert: EFP and PCM quantities not currently incorporated into SCF psivars.

Properties will be evaluated at   0.000000,   0.000000,   0.000000 Bohr

Properties computed using the SCF density matrix

  Nuclear Dipole Moment: (a.u.)
     X:     0.0000      Y:     0.0000      Z:     0.9329

  Electronic Dipole Moment: (a.u.)
     X:     0.0000      Y:     0.0000      Z:    -0.1952

  Dipole Moment: (a.u.)
     X:     0.0000      Y:     0.0000      Z:     0.7378     Total:     0.7378

  Dipole Moment: (Debye)
     X:     0.0000      Y:     0.0000      Z:     1.8752     Total:     1.8752


*** tstop() called on n411-012.vsc4.prov at Thu Aug  6 20:56:05 2020
Module time:
	user time   =   10291.81 seconds =     171.53 minutes
	system time =    2585.28 seconds =      43.09 minutes
	total time  =      12635 seconds =     210.58 minutes
Total time:
	user time   =   10291.81 seconds =     171.53 minutes
	system time =    2585.28 seconds =      43.09 minutes
	total time  =      12635 seconds =     210.58 minutes

*** tstart() called on n411-012.vsc4.prov
*** at Thu Aug  6 20:56:05 2020


	Wfn Parameters:
	--------------------
	Wavefunction         = CCSD
	Number of irreps     = 2
	Number of MOs        = 632
	Number of active MOs = 630
	AO-Basis             = NONE
	Semicanonical        = false
	Reference            = RHF
	Print Level          = 1

	IRREP	# MOs	# FZDC	# DOCC	# SOCC	# VIRT	# FZVR
	-----	-----	------	------	------	------	------
	 A	   316	    1	    4	    0	    311	    0
	 B	   316	    1	    3	    0	    312	    0
	Transforming integrals...
	IWL integrals will be deleted.
	(OO|OO)...
	Presorting SO-basis two-electron integrals.
	Sorting File: SO Ints (nn|nn) nbuckets = 1
	Transforming the one-electron integrals and constructing Fock matrices
	Starting first half-transformation.
	Sorting half-transformed integrals.
	First half integral transformation complete.
	Starting second half-transformation.
	Two-electron integral transformation complete.
	(OO|OV)...
	Starting second half-transformation.
	Two-electron integral transformation complete.
	(OO|VV)...
	Starting second half-transformation.
	Two-electron integral transformation complete.
	(OV|OO)...
	Starting first half-transformation.
	Sorting half-transformed integrals.
	First half integral transformation complete.
	Starting second half-transformation.
	Two-electron integral transformation complete.
	(OV|OV)...
	Starting second half-transformation.
	Two-electron integral transformation complete.
	(OV|VV)...
	Starting second half-transformation.
	Two-electron integral transformation complete.
	(VV|OO)...
	Starting first half-transformation.
	Sorting half-transformed integrals.
	First half integral transformation complete.
	Starting second half-transformation.
	Two-electron integral transformation complete.
	(VV|OV)...
	Starting second half-transformation.
	Two-electron integral transformation complete.
	(VV|VV)...
	Starting second half-transformation.
	Two-electron integral transformation complete.
	Frozen core energy     =   -131.72547807168286

	Size of irrep 0 of <ab|cd> integrals:  37661.224 (MW) / 301289.794 (MB)
	Size of irrep 1 of <ab|cd> integrals:  37660.836 (MW) / 301286.689 (MB)
	Total:                                 75322.060 (MW) / 602576.483 (MB)

	Size of irrep 0 of <ia|bc> integrals:    423.062 (MW) /   3384.494 (MB)
	Size of irrep 1 of <ia|bc> integrals:    423.254 (MW) /   3386.029 (MB)
	Total:                                   846.315 (MW) /   6770.522 (MB)

	Size of irrep 0 of tijab amplitudes:       4.852 (MW) /     38.813 (MB)
	Size of irrep 1 of tijab amplitudes:       4.658 (MW) /     37.260 (MB)
	Total:                                     9.509 (MW) /     76.073 (MB)

	Nuclear Rep. energy          =     36.79178419880456
	SCF energy                   =   -150.85149495713290
	One-electron energy          =   -100.36746120116516
	Two-electron energy          =     44.44966011690964
	Reference energy             =   -150.85149495713381

*** tstop() called on n411-012.vsc4.prov at Fri Aug  7 00:28:12 2020
Module time:
	user time   =   17130.31 seconds =     285.51 minutes
	system time =    2684.36 seconds =      44.74 minutes
	total time  =      12727 seconds =     212.12 minutes
Total time:
	user time   =   27422.26 seconds =     457.04 minutes
	system time =    5269.64 seconds =      87.83 minutes
	total time  =      25362 seconds =     422.70 minutes

*** tstart() called on n411-012.vsc4.prov
*** at Fri Aug  7 00:28:12 2020

            **************************
            *                        *
            *        CCENERGY        *
            *                        *
            **************************

    Nuclear Rep. energy (wfn)     =   36.791784198804564
    SCF energy          (wfn)     = -150.851494957132900
    Reference energy    (file100) = -150.851494957133809

    Input parameters:
    -----------------
    Wave function   =     CCSD
    Reference wfn   =     RHF
    Brueckner       =     No
    Memory (Mbytes) =     500000.0
    Maxiter         =     50
    R_Convergence   =     1.0e-07
    E_Convergence   =     1.0e-06
    Restart         =     Yes
    DIIS            =     Yes
    AO Basis        =     NONE
    ABCD            =     NEW
    Cache Level     =     2
    Cache Type      =     LOW
    Print Level     =     1
    Num. of threads =     48
    # Amps to Print =     10
    Print MP2 Amps? =     No
    Analyze T2 Amps =     No
    Print Pair Ener =     No
    Local CC        =     No
    SCS-MP2         =     False
    SCSN-MP2        =     False
    SCS-CCSD        =     False

MP2 correlation energy -0.5615948289390859
                Solving CC Amplitude Equations
                ------------------------------
  Iter             Energy              RMS        T1Diag      D1Diag    New D1Diag    D2Diag
  ----     ---------------------    ---------   ----------  ----------  ----------   --------
     0        -0.561594828939008    0.000e+00    0.000000    0.000000    0.000000    0.164052
     1        -0.560658270837239    3.033e-01    0.019259    0.038896    0.038896    0.183882
     2        -0.567479095193574    4.359e-02    0.012135    0.023196    0.023196    0.185405
     3        -0.558302212309822    1.291e-02    0.012343    0.023614    0.023614    0.178730
     4        -0.557555906379099    3.006e-03    0.011885    0.022930    0.022930    0.177609
     5        -0.557606165971238    8.887e-04    0.011795    0.022682    0.022682    0.177272
     6        -0.557536702218382    3.331e-04    0.011770    0.022633    0.022633    0.177089
     7        -0.557524321246401    1.221e-04    0.011764    0.022617    0.022617    0.177043
     8        -0.557531365752867    6.178e-05    0.011767    0.022614    0.022614    0.177045
     9        -0.557530492822172    3.663e-05    0.011769    0.022613    0.022613    0.177045
    10        -0.557529422290785    1.793e-05    0.011771    0.022613    0.022613    0.177047
    11        -0.557530724070847    7.422e-06    0.011772    0.022614    0.022614    0.177049
    12        -0.557530777001299    2.929e-06    0.011772    0.022614    0.022614    0.177049
    13        -0.557530782137077    1.215e-06    0.011772    0.022614    0.022614    0.177049
    14        -0.557530798583063    5.041e-07    0.011772    0.022614    0.022614    0.177049
    15        -0.557530774185609    2.013e-07    0.011772    0.022614    0.022614    0.177049
    16        -0.557530772784142    7.629e-08    0.011772    0.022614    0.022614    0.177049
    16        -0.557530772784142    7.629e-08    0.011772    0.022614    0.022614    0.177049

    Iterations converged.


    CCSD corr. energy   =   -0.557530772784142
    PPL corr. energy    =    0.129072184253101
    OS PPL corr. energy =    0.109348026302726
    SS PPL corr. energy =    0.019724157950374
    Largest TIA Amplitudes:
              5 319         0.0087740838
              6 314        -0.0064559601
              6 322         0.0062680138
              2  70         0.0059837004
              6 321         0.0059645276
              5 328        -0.0058978338
              5 313        -0.0057997131
              3  11         0.0056998120
              3   5        -0.0056983327
              6 316         0.0053471163

    Largest TIjAb Amplitudes:
      2   2 320 320        -0.0458785732
      2   2 319 320        -0.0288027371
      2   2 320 319        -0.0288027371
      2   2 316 320        -0.0280831775
      2   2 320 316        -0.0280831775
      1   1 320 320        -0.0244257177
      1   2 320 320         0.0237928338
      2   1 320 320         0.0237928338
      3   3 320 320        -0.0213898635
      2   2 319 319        -0.0197386677

    SCF energy       (wfn)                    = -150.851494957132900
    Reference energy (file100)                = -150.851494957133809

    Opposite-spin MP2 correlation energy      =   -0.429606681883025
    Same-spin MP2 correlation energy          =   -0.131988147055983
    MP2 correlation energy                    =   -0.561594828939086
      * MP2 total energy                      = -151.413089786072902

    Opposite-spin CCSD correlation energy     =   -0.442336702012604
    Same-spin CCSD correlation energy         =   -0.115194071013139
    CCSD correlation energy                   =   -0.557530772784142
      * CCSD total energy                     = -151.409025729917943


*** tstop() called on n411-012.vsc4.prov at Fri Aug  7 03:51:55 2020
Module time:
	user time   =   24409.31 seconds =     406.82 minutes
	system time =    3150.24 seconds =      52.50 minutes
	total time  =      12223 seconds =     203.72 minutes
Total time:
	user time   =   51831.57 seconds =     863.86 minutes
	system time =    8419.88 seconds =     140.33 minutes
	total time  =      37585 seconds =     626.42 minutes

*** Psi4 exiting successfully. Buy a developer a beer!
