
    -----------------------------------------------------------------------
          Psi4: An Open-Source Ab Initio Electronic Structure Package
                               Psi4 1.2a1.dev939 

                         Git: Rev {HEAD} fa1ec19 


    R. M. Parrish, L. A. Burns, D. G. A. Smith, A. C. Simmonett,
    A. E. DePrince III, E. G. Hohenstein, U. Bozkaya, A. Yu. Sokolov,
    R. Di Remigio, R. M. Richard, J. F. Gonthier, A. M. James,
    H. R. McAlexander, A. Kumar, M. Saitow, X. Wang, B. P. Pritchard,
    P. Verma, H. F. Schaefer III, K. Patkowski, R. A. King, E. F. Valeev,
    F. A. Evangelista, J. M. Turney, T. D. Crawford, and C. D. Sherrill,
    J. Chem. Theory Comput. 13(7) pp 3185--3197 (2017).
    (doi: 10.1021/acs.jctc.7b00174)

    -----------------------------------------------------------------------


    Psi4 started on: Sunday, 28 April 2019 07:44AM

    Process ID:   5232
    PSIDATADIR: /home/grueneis/src/psi4/objdir/stage/usr/local/psi4/share/psi4
    Memory:     500.0 MiB
    Threads:    1
    
  ==> Input File <==

--------------------------------------------------------------------------
# Any line starting with the # character is a comment line

memory 32000 mb

molecule molecule {
0 1
O         -0.7244270781        0.0593002388       -0.0313570792
O          0.7244270781       -0.0593002388       -0.0313570792
H         -0.9500122316       -0.7177793110        0.4977423786
H          0.9500122316        0.7177793110        0.4977423786
}

set {
  reference rhf
  basis aug-cc-pv(Q+d)z
  scf_type OUT_OF_CORE
  freeze_core true
}

energy('ccsd')
--------------------------------------------------------------------------

  Memory set to  29.802 GiB by Python driver.

*** tstart() called on cqc01
*** at Sun Apr 28 07:44:35 2019

   => Loading Basis Set <=

    Name: AUG-CC-PV(Q+D)Z
    Role: ORBITAL
    Keyword: BASIS
    atoms 1-2 entry O          line   439 file /home/grueneis/src/psi4/objdir/stage/usr/local/psi4/share/psi4/basis/aug-cc-pv_qpd_z.gbs 
    atoms 3-4 entry H          line    56 file /home/grueneis/src/psi4/objdir/stage/usr/local/psi4/share/psi4/basis/aug-cc-pv_qpd_z.gbs 


         ---------------------------------------------------------
                                   SCF
            by Justin Turney, Rob Parrish, Andy Simmonett
                             and Daniel Smith
                              RHF Reference
                        1 Threads,  30517 MiB Core
         ---------------------------------------------------------

  ==> Geometry <==

    Molecular point group: c2
    Full point group: C2

    Geometry (in Angstrom), charge = 0, multiplicity = 1:

       Center              X                  Y                   Z               Mass       
    ------------   -----------------  -----------------  -----------------  -----------------
           O         -0.724427078100     0.059300238800    -0.031361985712    15.994914619560
           O          0.724427078100    -0.059300238800    -0.031361985712    15.994914619560
           H         -0.950012231600    -0.717779311000     0.497737472088     1.007825032070
           H          0.950012231600     0.717779311000     0.497737472088     1.007825032070

  Running in c2 symmetry.

  Rotational constants: A =     10.02358  B =      0.88084  C =      0.85320 [cm^-1]
  Rotational constants: A = 300499.43432  B =  26406.97586  C =  25578.15107 [MHz]
  Nuclear repulsion =   36.791784198804564

  Charge       = 0
  Multiplicity = 1
  Electrons    = 18
  Nalpha       = 9
  Nbeta        = 9

  ==> Algorithm <==

  SCF Algorithm Type is OUT_OF_CORE.
  DIIS enabled.
  MOM disabled.
  Fractional occupation disabled.
  Guess Type is SAD.
  Energy threshold   = 1.00e-08
  Density threshold  = 1.00e-08
  Integral threshold = 0.00e+00

  ==> Primary Basis <==

  Basis Set: AUG-CC-PV(Q+D)Z
    Blend: AUG-CC-PV(Q+D)Z
    Number of shells: 68
    Number of basis function: 252
    Number of Cartesian functions: 320
    Spherical Harmonics?: true
    Max angular momentum: 4

  ==> Pre-Iterations <==

   -------------------------------------------------------
    Irrep   Nso     Nmo     Nalpha   Nbeta   Ndocc  Nsocc
   -------------------------------------------------------
     A        126     126       0       0       0       0
     B        126     126       0       0       0       0
   -------------------------------------------------------
    Total     252     252       9       9       9       0
   -------------------------------------------------------

  ==> Integral Setup <==

  ==> DiskJK: Disk-Based J/K Matrices <==

    J tasked:                  Yes
    K tasked:                  Yes
    wK tasked:                  No
    Memory (MB):             22888
    Schwarz Cutoff:          1E-12

  Minimum eigenvalue in the overlap matrix is 6.8275183362E-05.
  Using Symmetric Orthogonalization.

  SCF Guess: Superposition of Atomic Densities via on-the-fly atomic UHF.

  ==> Iterations <==

                        Total Energy        Delta E     RMS |[F,P]|

   @RHF iter   0:  -150.79300164876662   -1.50793e+02   1.18375e-02 
   @RHF iter   1:  -150.81548312759065   -2.24815e-02   1.58929e-03 
   @RHF iter   2:  -150.84582997070152   -3.03468e-02   3.71860e-04 DIIS
   @RHF iter   3:  -150.84809737379268   -2.26740e-03   1.19927e-04 DIIS
   @RHF iter   4:  -150.84863962411816   -5.42250e-04   4.88822e-05 DIIS
   @RHF iter   5:  -150.84871982682139   -8.02027e-05   1.87126e-05 DIIS
   @RHF iter   6:  -150.84873612302638   -1.62962e-05   5.25278e-06 DIIS
   @RHF iter   7:  -150.84873777201267   -1.64899e-06   2.28627e-06 DIIS
   @RHF iter   8:  -150.84873818033114   -4.08318e-07   8.93341e-07 DIIS
   @RHF iter   9:  -150.84873824953706   -6.92059e-08   1.85834e-07 DIIS
   @RHF iter  10:  -150.84873825124254   -1.70547e-09   2.92100e-08 DIIS
   @RHF iter  11:  -150.84873825127488   -3.23439e-11   7.47363e-09 DIIS

  ==> Post-Iterations <==

    Orbital Energies (a.u.)
    -----------------------

    Doubly Occupied:                                                      

       1A    -20.631398     1B    -20.631109     2A     -1.475339  
       2B     -1.215020     3A     -0.713381     3B     -0.712011  
       4A     -0.609671     5A     -0.520365     4B     -0.488939  

    Virtual:                                                              

       6A      0.029506     5B      0.037953     6B      0.092615  
       7A      0.110526     7B      0.137464     8A      0.145300  
       9A      0.157103     8B      0.164005    10A      0.167339  
       9B      0.184137    11A      0.199588    10B      0.243857  
      11B      0.261223    12B      0.276482    12A      0.282486  
      13A      0.304221    13B      0.330434    14A      0.354336  
      14B      0.374880    15B      0.485284    15A      0.485292  
      16A      0.530409    16B      0.553682    17A      0.561271  
      17B      0.563438    18A      0.583061    18B      0.593180  
      19A      0.610245    19B      0.617399    20A      0.630178  
      20B      0.658430    21A      0.689917    21B      0.708835  
      22A      0.718653    23A      0.738008    24A      0.741001  
      22B      0.742444    25A      0.779993    23B      0.784121  
      24B      0.798055    25B      0.815482    26A      0.867332  
      26B      0.941190    27B      1.009952    27A      1.035225  
      28B      1.036470    28A      1.092079    29B      1.132324  
      29A      1.151536    30B      1.193539    30A      1.213394  
      31A      1.320617    31B      1.392671    32A      1.458260  
      33A      1.485144    32B      1.488456    34A      1.505767  
      33B      1.506921    34B      1.547937    35A      1.566088  
      35B      1.572020    36A      1.595493    37A      1.617535  
      36B      1.633733    37B      1.672323    38A      1.673565  
      39A      1.693733    40A      1.709255    38B      1.709257  
      39B      1.732444    41A      1.785955    40B      1.802194  
      42A      1.802410    41B      1.819249    42B      1.851549  
      43A      1.902930    43B      1.924715    44A      1.929441  
      44B      1.967503    45A      1.969834    45B      2.010280  
      46B      2.068249    46A      2.085807    47A      2.149052  
      47B      2.162305    48A      2.186643    49A      2.223025  
      48B      2.236536    49B      2.280063    50A      2.317904  
      50B      2.366707    51B      2.428386    51A      2.430381  
      52B      2.630227    52A      2.653746    53A      2.750563  
      53B      2.855273    54A      2.866617    54B      2.987569  
      55A      3.010695    56A      3.053976    55B      3.069440  
      56B      3.123032    57B      3.185408    57A      3.189011  
      58A      3.262221    58B      3.335691    59A      3.411392  
      59B      3.432457    60A      3.652487    60B      3.733624  
      61A      3.738820    61B      3.751934    62A      3.788649  
      63A      3.881856    62B      3.890082    64A      3.915577  
      63B      4.009197    65A      4.009418    66A      4.106651  
      64B      4.109166    65B      4.159033    67A      4.170940  
      68A      4.192082    66B      4.198127    69A      4.248679  
      67B      4.251598    68B      4.312859    70A      4.361352  
      69B      4.393772    71A      4.454094    70B      4.459001  
      72A      4.472096    73A      4.558218    71B      4.566217  
      72B      4.584618    73B      4.711135    74A      4.751696  
      75A      4.799972    74B      4.811735    75B      4.847552  
      76A      4.973349    76B      5.070454    77A      5.120049  
      77B      5.137743    78B      5.195285    78A      5.242212  
      79B      5.296207    79A      5.380605    80A      5.436543  
      80B      5.439309    81A      5.550741    81B      5.663480  
      82A      5.686622    82B      5.876412    83B      5.984242  
      83A      6.070375    84A      6.261805    84B      6.359084  
      85A      6.433431    85B      6.850575    86A      6.857114  
      87A      6.948220    86B      7.004894    87B      7.169791  
      88A      7.765239    88B      7.783384    89A      7.818098  
      89B      7.830406    90A      7.919121    90B      7.923801  
      91B      8.008114    91A      8.010040    92A      8.126289  
      92B      8.150644    93A      8.611404    93B      8.629724  
      94B      8.640947    94A      8.774052    95B      8.815147  
      95A      8.852084    96B      8.901354    96A      8.958727  
      97A      9.125790    97B      9.375643    98A      9.862815  
      98B      9.864719    99A      9.910246    99B      9.937530  
     100B      9.982032   100A     10.029782   101A     10.614181  
     102A     10.708449   101B     10.763089   102B     10.859730  
     103A     10.863634   104A     10.984782   103B     10.993289  
     105A     11.030084   104B     11.079345   106A     11.121592  
     105B     11.131155   106B     11.259122   107A     11.294678  
     108A     11.333981   107B     11.411894   108B     11.609103  
     109A     11.638124   110A     11.660978   109B     11.694626  
     111A     11.812230   110B     11.834754   111B     11.903284  
     112A     11.997345   112B     12.165521   113A     12.172737  
     113B     12.225930   114A     12.268290   114B     12.275140  
     115B     12.340928   115A     12.349354   116B     12.536738  
     116A     12.727759   117B     12.803598   117A     12.807785  
     118A     12.926842   118B     12.948360   119B     13.201326  
     119A     13.291703   120B     13.632615   120A     13.721422  
     121A     14.256801   121B     14.268020   122B     14.572485  
     122A     14.573044   123A     14.595930   123B     14.648174  
     124A     14.690898   124B     15.459810   125A     17.028449  
     125B     17.044983   126A     43.957411   126B     45.619346  

    Final Occupation by Irrep:
              A     B 
    DOCC [     5,    4 ]

  Energy converged.

  @RHF Final Energy:  -150.84873825127488

   => Energetics <=

    Nuclear Repulsion Energy =             36.7917841988045637
    One-Electron Energy =                -281.2865824436103139
    Two-Electron Energy =                  93.6460599935308693
    Total Energy =                       -150.8487382512748809



Properties will be evaluated at   0.000000,   0.000000,   0.000000 Bohr

Properties computed using the SCF density matrix

  Nuclear Dipole Moment: (a.u.)
     X:     0.0000      Y:     0.0000      Z:     0.9329

  Electronic Dipole Moment: (a.u.)
     X:     0.0000      Y:     0.0000      Z:    -0.1953

  Dipole Moment: (a.u.)
     X:     0.0000      Y:     0.0000      Z:     0.7376     Total:     0.7376

  Dipole Moment: (Debye)
     X:     0.0000      Y:     0.0000      Z:     1.8748     Total:     1.8748


*** tstop() called on cqc01 at Sun Apr 28 07:47:52 2019
Module time:
	user time   =     108.83 seconds =       1.81 minutes
	system time =      13.37 seconds =       0.22 minutes
	total time  =        197 seconds =       3.28 minutes
Total time:
	user time   =     108.83 seconds =       1.81 minutes
	system time =      13.37 seconds =       0.22 minutes
	total time  =        197 seconds =       3.28 minutes

*** tstart() called on cqc01
*** at Sun Apr 28 07:47:52 2019


	Wfn Parameters:
	--------------------
	Wavefunction         = CCSD
	Number of irreps     = 2
	Number of MOs        = 252
	Number of active MOs = 250
	AO-Basis             = NONE
	Semicanonical        = false
	Reference            = RHF
	Print Level          = 1

	IRREP	# MOs	# FZDC	# DOCC	# SOCC	# VIRT	# FZVR
	-----	-----	------	------	------	------	------
	 A	   126	    1	    4	    0	    121	    0
	 B	   126	    1	    3	    0	    122	    0
	Transforming integrals...
	IWL integrals will be deleted.
	(OO|OO)...
	Presorting SO-basis two-electron integrals.
	Sorting File: SO Ints (nn|nn) nbuckets = 1
	Transforming the one-electron integrals and constructing Fock matrices
	Starting first half-transformation.
	Sorting half-transformed integrals.
	First half integral transformation complete.
	Starting second half-transformation.
	Two-electron integral transformation complete.
	(OO|OV)...
	Starting second half-transformation.
	Two-electron integral transformation complete.
	(OO|VV)...
	Starting second half-transformation.
	Two-electron integral transformation complete.
	(OV|OO)...
	Starting first half-transformation.
	Sorting half-transformed integrals.
	First half integral transformation complete.
	Starting second half-transformation.
	Two-electron integral transformation complete.
	(OV|OV)...
	Starting second half-transformation.
	Two-electron integral transformation complete.
	(OV|VV)...
	Starting second half-transformation.
	Two-electron integral transformation complete.
	(VV|OO)...
	Starting first half-transformation.
	Sorting half-transformed integrals.
	First half integral transformation complete.
	Starting second half-transformation.
	Two-electron integral transformation complete.
	(VV|OV)...
	Starting second half-transformation.
	Two-electron integral transformation complete.
	(VV|VV)...
	Starting second half-transformation.
	Two-electron integral transformation complete.
	Frozen core energy     =   -131.72511534740769

	Size of irrep 0 of <ab|cd> integrals:    871.726 (MW) /   6973.805 (MB)
	Size of irrep 1 of <ab|cd> integrals:    871.667 (MW) /   6973.333 (MB)
	Total:                                  1743.392 (MW) /  13947.138 (MB)

	Size of irrep 0 of <ia|bc> integrals:     25.096 (MW) /    200.770 (MB)
	Size of irrep 1 of <ia|bc> integrals:     25.125 (MW) /    200.999 (MB)
	Total:                                    50.221 (MW) /    401.769 (MB)

	Size of irrep 0 of tijab amplitudes:       0.738 (MW) /      5.905 (MB)
	Size of irrep 1 of tijab amplitudes:       0.709 (MW) /      5.669 (MB)
	Total:                                     1.447 (MW) /     11.574 (MB)

	Nuclear Rep. energy          =     36.79178419880456
	SCF energy                   =   -150.84873825127488
	One-electron energy          =   -100.36136383828452
	Two-electron energy          =     44.44595673561045
	Reference energy             =   -150.84873825127721

*** tstop() called on cqc01 at Sun Apr 28 08:03:57 2019
Module time:
	user time   =     201.63 seconds =       3.36 minutes
	system time =     116.50 seconds =       1.94 minutes
	total time  =        965 seconds =      16.08 minutes
Total time:
	user time   =     310.46 seconds =       5.17 minutes
	system time =     129.87 seconds =       2.16 minutes
	total time  =       1162 seconds =      19.37 minutes

*** tstart() called on cqc01
*** at Sun Apr 28 08:03:57 2019

            **************************
            *                        *
            *        CCENERGY        *
            *                        *
            **************************

    Nuclear Rep. energy (wfn)     =   36.791784198804564
    SCF energy          (wfn)     = -150.848738251274881
    Reference energy    (file100) = -150.848738251277211

    Input parameters:
    -----------------
    Wave function   =     CCSD
    Reference wfn   =     RHF
    Brueckner       =     No
    Memory (Mbytes) =     32000.0
    Maxiter         =     50
    R_Convergence   =     1.0e-07
    E_Convergence   =     1.0e-06
    Restart         =     Yes
    DIIS            =     Yes
    AO Basis        =     NONE
    ABCD            =     NEW
    Cache Level     =     2
    Cache Type      =     LOW
    Print Level     =     1
    Num. of threads =     1
    # Amps to Print =     10
    Print MP2 Amps? =     No
    Analyze T2 Amps =     No
    Print Pair Ener =     No
    Local CC        =     No
    SCS-MP2         =     False
    SCSN-MP2        =     False
    SCS-CCSD        =     False

MP2 correlation energy -0.5422845111987454
                Solving CC Amplitude Equations
                ------------------------------
  Iter             Energy              RMS        T1Diag      D1Diag    New D1Diag    D2Diag
  ----     ---------------------    ---------   ----------  ----------  ----------   --------
     0        -0.542284511197945    0.000e+00    0.000000    0.000000    0.000000    0.163704
     1        -0.552978648057778    2.985e-01    0.019600    0.038176    0.038176    0.185395
     2        -0.553355581254822    4.321e-02    0.012392    0.023896    0.023896    0.185732
     3        -0.544362140563068    1.252e-02    0.012608    0.024309    0.024309    0.179293
     4        -0.543783813757722    2.956e-03    0.012156    0.023274    0.023274    0.178241
     5        -0.543814782730347    8.464e-04    0.012066    0.023087    0.023087    0.177901
     6        -0.543738311536179    3.167e-04    0.012041    0.023008    0.023008    0.177721
     7        -0.543731244812950    1.181e-04    0.012037    0.022983    0.022983    0.177682
     8        -0.543739141022703    6.024e-05    0.012040    0.022983    0.022983    0.177685
     9        -0.543737133254956    3.558e-05    0.012042    0.022981    0.022981    0.177684
    10        -0.543736507946045    1.647e-05    0.012044    0.022982    0.022982    0.177686
    11        -0.543737803980236    6.660e-06    0.012044    0.022983    0.022983    0.177689
    12        -0.543737752083515    2.692e-06    0.012044    0.022983    0.022983    0.177688
    13        -0.543737765641176    1.060e-06    0.012044    0.022983    0.022983    0.177688
    14        -0.543737764161074    4.411e-07    0.012044    0.022983    0.022983    0.177688
    15        -0.543737738407314    1.670e-07    0.012044    0.022983    0.022983    0.177688
    16        -0.543737740649990    5.736e-08    0.012044    0.022983    0.022983    0.177688
    16        -0.543737740649990    5.736e-08    0.012044    0.022983    0.022983    0.177688

    Iterations converged.


    CCSD corr. energy   =   -0.543737740649990
    PPL corr. energy    =    0.122431163940567
    OS PPL corr. energy =    0.103117764177876
    SS PPL corr. energy =    0.019313399762699
    Largest TIA Amplitudes:
              6 124        -0.0102344611
              5 129        -0.0097979863
              5 123         0.0081763723
              2   1        -0.0078763586
              3   5         0.0071046509
              5 135        -0.0063905914
              2  47        -0.0062345949
              1   7        -0.0061622478
              2  20         0.0061205163
              1   1        -0.0061117666

    Largest TIjAb Amplitudes:
      2   2 126 126        -0.0508766839
      2   2 126 129         0.0316528633
      2   2 129 126         0.0316528633
      1   1 126 126        -0.0239239957
      1   2 126 126         0.0238619459
      2   1 126 126         0.0238619459
      3   3 126 126        -0.0226882307
      2   2 126 130        -0.0222441608
      2   2 130 126        -0.0222441608
      2   2 129 129        -0.0217920132

    SCF energy       (wfn)                    = -150.848738251274881
    Reference energy (file100)                = -150.848738251277211

    Opposite-spin MP2 correlation energy      =   -0.411947714466279
    Same-spin MP2 correlation energy          =   -0.130336796731666
    MP2 correlation energy                    =   -0.542284511198745
      * MP2 total energy                      = -151.391022762475956

    Opposite-spin CCSD correlation energy     =   -0.429904547854308
    Same-spin CCSD correlation energy         =   -0.113833190990483
    CCSD correlation energy                   =   -0.543737740649990
      * CCSD total energy                     = -151.392475991927199


*** tstop() called on cqc01 at Sun Apr 28 08:16:24 2019
Module time:
	user time   =     121.15 seconds =       2.02 minutes
	system time =     117.09 seconds =       1.95 minutes
	total time  =        747 seconds =      12.45 minutes
Total time:
	user time   =     431.62 seconds =       7.19 minutes
	system time =     246.96 seconds =       4.12 minutes
	total time  =       1909 seconds =      31.82 minutes

*** Psi4 exiting successfully. Buy a developer a beer!
