
    -----------------------------------------------------------------------
          Psi4: An Open-Source Ab Initio Electronic Structure Package
                               Psi4 1.4a3.dev88 

                         Git: Rev {master} 262e345 


    D. G. A. Smith, L. A. Burns, A. C. Simmonett, R. M. Parrish,
    M. C. Schieber, R. Galvelis, P. Kraus, H. Kruse, R. Di Remigio,
    A. Alenaizan, A. M. James, S. Lehtola, J. P. Misiewicz, M. Scheurer,
    R. A. Shaw, J. B. Schriber, Y. Xie, Z. L. Glick, D. A. Sirianni,
    J. S. O'Brien, J. M. Waldrop, A. Kumar, E. G. Hohenstein,
    B. P. Pritchard, B. R. Brooks, H. F. Schaefer III, A. Yu. Sokolov,
    K. Patkowski, A. E. DePrince III, U. Bozkaya, R. A. King,
    F. A. Evangelista, J. M. Turney, T. D. Crawford, C. D. Sherrill,
    J. Chem. Phys. 152(18) 184108 (2020). https://doi.org/10.1063/5.0006002

                            Additional Code Authors
    E. T. Seidl, C. L. Janssen, E. F. Valeev, M. L. Leininger,
    J. F. Gonthier, R. M. Richard, H. R. McAlexander, M. Saitow, X. Wang,
    P. Verma, and M. H. Lechner

             Previous Authors, Complete List of Code Contributors,
                       and Citations for Specific Modules
    https://github.com/psi4/psi4/blob/master/codemeta.json
    https://github.com/psi4/psi4/graphs/contributors
    http://psicode.org/psi4manual/master/introduction.html#citing-psifour

    -----------------------------------------------------------------------


    Psi4 started on: Wednesday, 20 January 2021 09:17PM

    Process ID: 457568
    Host:       l43
    PSIDATADIR: /home/fs71337/gallo4/psi4/psi4/build/stage/share/psi4
    Memory:     500.0 MiB
    Threads:    48
    
  ==> Input File <==

--------------------------------------------------------------------------
# Any line starting with the # character is a comment line
memory 250000 mb
molecule molecule{
1 2
P          0.0000000000        0.0000000000        0.9966955025
P          0.0000000000        0.0000000000       -0.9966955025
}

set {
  reference uhf
  basis aug-cc-pV(Q+d)Z
  scf_type OUT_OF_CORE
  freeze_core true
}

energy('ccsd(t)')
--------------------------------------------------------------------------

  Memory set to 232.831 GiB by Python driver.

Scratch directory: /tmp/

*** tstart() called on l43
*** at Wed Jan 20 21:17:38 2021

   => Loading Basis Set <=

    Name: AUG-CC-PV(Q+D)Z
    Role: ORBITAL
    Keyword: BASIS
    atoms 1-2 entry P          line  1066 file /home/fs71337/gallo4/psi4/psi4/build/stage/share/psi4/basis/aug-cc-pv_qpd_z.gbs 


         ---------------------------------------------------------
                                   SCF
               by Justin Turney, Rob Parrish, Andy Simmonett
                          and Daniel G. A. Smith
                              UHF Reference
                       48 Threads, 238418 MiB Core
         ---------------------------------------------------------

  ==> Geometry <==

    Molecular point group: d2h
    Full point group: D_inf_h

    Geometry (in Angstrom), charge = 1, multiplicity = 2:

       Center              X                  Y                   Z               Mass       
    ------------   -----------------  -----------------  -----------------  -----------------
         P            0.000000000000     0.000000000000     0.996695502500    30.973761998420
         P            0.000000000000     0.000000000000    -0.996695502500    30.973761998420

  Running in d2h symmetry.

  Rotational constants: A = ************  B =      0.27394  C =      0.27394 [cm^-1]
  Rotational constants: A = ************  B =   8212.36512  C =   8212.36512 [MHz]
  Nuclear repulsion =   59.729813218832106

  Charge       = 1
  Multiplicity = 2
  Electrons    = 29
  Nalpha       = 15
  Nbeta        = 14

  ==> Algorithm <==

  SCF Algorithm Type is OUT_OF_CORE.
  DIIS enabled.
  MOM disabled.
  Fractional occupation disabled.
  Guess Type is SAD.
  Energy threshold   = 1.00e-08
  Density threshold  = 1.00e-08
  Integral threshold = 1.00e-12

  ==> Primary Basis <==

  Basis Set: AUG-CC-PV(Q+D)Z
    Blend: AUG-CC-PV(Q+D)Z
    Number of shells: 46
    Number of basis function: 178
    Number of Cartesian functions: 230
    Spherical Harmonics?: true
    Max angular momentum: 4

  ==> Integral Setup <==

  ==> DiskJK: Disk-Based J/K Matrices <==

    J tasked:                  Yes
    K tasked:                  Yes
    wK tasked:                  No
    Memory [MiB]:           178813
    Schwarz Cutoff:          1E-12

  Minimum eigenvalue in the overlap matrix is 6.4380658651E-05.
  Reciprocal condition number of the overlap matrix is 1.0961229626E-05.
    Using symmetric orthogonalization.

  ==> Pre-Iterations <==

  SCF Guess: Superposition of Atomic Densities via on-the-fly atomic UHF (no occupation information).


 WARNING: Atomic UHF is not converging! Try casting from a smaller basis or call Rob at CCMST.
   -------------------------
    Irrep   Nso     Nmo    
   -------------------------
     Ag        35      35 
     B1g       12      12 
     B2g       21      21 
     B3g       21      21 
     Au        12      12 
     B1u       35      35 
     B2u       21      21 
     B3u       21      21 
   -------------------------
    Total     178     178
   -------------------------

  ==> Iterations <==

                        Total Energy        Delta E     RMS |[F,P]|

   @UHF iter SAD:  -663.56367979324580   -6.63564e+02   0.00000e+00 
   @UHF iter   1:  -680.72699416840578   -1.71633e+01   1.74175e-02 DIIS
   @UHF iter   2:  -681.09246471990775   -3.65471e-01   4.16622e-03 DIIS
   @UHF iter   3:  -681.11540313867124   -2.29384e-02   7.06681e-04 DIIS
   @UHF iter   4:  -681.11738906870460   -1.98593e-03   2.81035e-04 DIIS
   @UHF iter   5:  -681.11790602947542   -5.16961e-04   8.33443e-05 DIIS
   @UHF iter   6:  -681.11797035440225   -6.43249e-05   2.62129e-05 DIIS
   @UHF iter   7:  -681.11797776607386   -7.41167e-06   7.14148e-06 DIIS
   @UHF iter   8:  -681.11797826876773   -5.02694e-07   2.05773e-06 DIIS
   @UHF iter   9:  -681.11797831749107   -4.87233e-08   4.26344e-07 DIIS
   @UHF iter  10:  -681.11797831941306   -1.92199e-09   9.08790e-08 DIIS
   @UHF iter  11:  -681.11797831948661   -7.35554e-11   1.50480e-08 DIIS
   @UHF iter  12:  -681.11797831948832   -1.70530e-12   3.75314e-09 DIIS
  Energy and wave function converged.


  ==> Post-Iterations <==

   @Spin Contamination Metric:   3.887314383E-02
   @S^2 Expected:                7.500000000E-01
   @S^2 Observed:                7.888731438E-01
   @S   Expected:                5.000000000E-01
   @S   Observed:                5.000000000E-01

    Orbital Energies [Eh]
    ---------------------

    Alpha Occupied:                                                       

       1Ag   -80.301515     1B1u  -80.301509     2Ag    -7.835739  
       2B1u   -7.835246     3Ag    -5.735681     3B1u   -5.734195  
       1B3u   -5.724143     1B2u   -5.724143     1B2g   -5.723987  
       1B3g   -5.723987     4Ag    -1.185212     4B1u   -0.925800  
       5Ag    -0.732833     2B3u   -0.622878     2B2u   -0.622878  

    Alpha Virtual:                                                        

       2B2g   -0.246371     2B3g   -0.246371     5B1u   -0.100365  
       6Ag    -0.094421     3B2u   -0.065257     3B3u   -0.065257  
       7Ag    -0.057097     6B1u   -0.047085     3B3g   -0.032847  
       3B2g   -0.032847     1B1g   -0.026939     8Ag    -0.026939  
       7B1u    0.019411     4B2u    0.020299     4B3u    0.020299  
       9Ag     0.042686     1Au     0.053262     8B1u    0.053262  
       4B3g    0.086704     4B2g    0.086704     9B1u    0.091090  
       5B2u    0.139241     5B3u    0.139241    10Ag     0.148674  
      11Ag     0.178904     2B1g    0.178904     6B2u    0.196934  
       6B3u    0.196934     7B2u    0.227692     7B3u    0.227692  
      12Ag     0.230554    10B1u    0.237092    11B1u    0.264845  
       2Au     0.264845     5B3g    0.274501     5B2g    0.274501  
      13Ag     0.278826     3B1g    0.310024    14Ag     0.310024  
       6B3g    0.310873     6B2g    0.310873     7B3g    0.327695  
       7B2g    0.327695    12B1u    0.364019     8B2u    0.430131  
       8B3u    0.430131    13B1u    0.450522     3Au     0.450522  
      14B1u    0.493695    15Ag     0.557394     8B3g    0.595197  
       8B2g    0.595197    15B1u    0.706590     9B2u    0.772903  
       9B3u    0.772903    16Ag     0.805564     4B1g    0.805564  
      17Ag     0.840668    16B1u    0.904223     4Au     0.904223  
      10B3u    0.932281    10B2u    0.932281    18Ag     0.944031  
       5B1g    0.944031    19Ag     0.958122     6B1g    0.958122  
      20Ag     0.970960     9B3g    0.972055     9B2g    0.972055  
      17B1u    0.972121    11B2u    1.036271    11B3u    1.036271  
      12B2u    1.042150    12B3u    1.042150    10B3g    1.055936  
      10B2g    1.055936     5Au     1.105564    18B1u    1.105564  
       6Au     1.112155    19B1u    1.112155    13B2u    1.120657  
      13B3u    1.120657    11B3g    1.169761    11B2g    1.169761  
      21Ag     1.197511    20B1u    1.224600     7B1g    1.265659  
      22Ag     1.265659    12B3g    1.277575    12B2g    1.277575  
      13B2g    1.334076    13B3g    1.334076    21B1u    1.506943  
      23Ag     1.577841    14B2u    1.617729    14B3u    1.617729  
       7Au     1.693921    22B1u    1.693921    23B1u    1.731186  
      14B3g    1.959889    14B2g    1.959889    24B1u    2.076579  
      24Ag     2.101615     8B1g    2.225645    25Ag     2.225645  
      15B2u    2.264656    15B3u    2.264656     8Au     2.317975  
      25B1u    2.317975    26Ag     2.527613    27Ag     2.673184  
       9B1g    2.714830    28Ag     2.714830    15B3g    2.739374  
      15B2g    2.739374    16B2u    2.753149    16B3u    2.753149  
      17B2u    2.758077    17B3u    2.758077    16B3g    2.813693  
      16B2g    2.813693    26B1u    2.929948    18B2u    2.964998  
      18B3u    2.964998    10B1g    2.965686    29Ag     2.965686  
       9Au     2.977421    27B1u    2.977421    30Ag     3.025816  
      11B1g    3.025816    17B3g    3.081350    17B2g    3.081350  
      28B1u    3.092802    10Au     3.092802    19B2u    3.226454  
      19B3u    3.226454    18B2g    3.234812    18B3g    3.234812  
      29B1u    3.353231    31Ag     3.509630    11Au     3.532385  
      30B1u    3.532385    19B3g    3.967358    19B2g    3.967358  
      31B1u    4.122650    20B2u    5.398795    20B3u    5.398795  
      20B3g    6.027391    20B2g    6.027391    32Ag     6.873494  
      32B1u    7.110894    12B1g    7.293792    33Ag     7.293792  
      12Au     7.355099    33B1u    7.355099    21B2u    7.386050  
      21B3u    7.386050    21B3g    7.744822    21B2g    7.744822  
      34B1u    7.755436    34Ag     7.800844    35Ag    13.551742  
      35B1u   14.983985  

    Beta Occupied:                                                        

       1Ag   -80.297240     1B1u  -80.297238     2Ag    -7.830966  
       2B1u   -7.830655     1B3u   -5.721835     1B2u   -5.721835  
       1B2g   -5.721712     1B3g   -5.721712     3Ag    -5.712345  
       3B1u   -5.711019     4Ag    -1.113189     4B1u   -0.823144  
       2B2u   -0.617954     2B3u   -0.617954  

    Beta Virtual:                                                         

       5Ag    -0.331906     2B2g   -0.231717     2B3g   -0.231717  
       5B1u   -0.089193     6Ag    -0.086352     3B2u   -0.063986  
       3B3u   -0.063986     7Ag    -0.050125     3B3g   -0.032647  
       3B2g   -0.032647     1B1g   -0.027580     8Ag    -0.027580  
       6B1u   -0.017548     7B1u    0.029992     4B2u    0.035630  
       4B3u    0.035630     1Au     0.053915     8B1u    0.053915  
       9Ag     0.056328     4B3g    0.086703     4B2g    0.086703  
       9B1u    0.106611     5B2u    0.148097     5B3u    0.148097  
      10Ag     0.168348    11Ag     0.177989     2B1g    0.177989  
       6B2u    0.219609     6B3u    0.219609     7B2u    0.227216  
       7B3u    0.227216    12Ag     0.246188    10B1u    0.258671  
      11B1u    0.267453     2Au     0.267453     5B3g    0.277554  
       5B2g    0.277554    13Ag     0.292446     3B1g    0.312905  
      14Ag     0.312905     6B3g    0.317094     6B2g    0.317094  
       7B3g    0.327856     7B2g    0.327856    12B1u    0.369901  
       8B2u    0.434809     8B3u    0.434809    13B1u    0.449683  
       3Au     0.449683    14B1u    0.495084    15Ag     0.575534  
       8B3g    0.608421     8B2g    0.608421    15B1u    0.731753  
       9B2u    0.790282     9B3u    0.790282    16Ag     0.806216  
       4B1g    0.806216    17Ag     0.862899    16B1u    0.905944  
       4Au     0.905944    10B2u    0.930908    10B3u    0.930908  
      18Ag     0.956904     5B1g    0.956904     6B1g    0.957547  
      19Ag     0.957547     9B3g    0.987709     9B2g    0.987709  
      17B1u    1.000547    20Ag     1.001969    11B2u    1.039851  
      11B3u    1.039851    10B3g    1.057509    10B2g    1.057509  
      12B2u    1.059826    12B3u    1.059826    18B1u    1.105369  
       5Au     1.105369    19B1u    1.120610     6Au     1.120610  
      13B2u    1.126600    13B3u    1.126600    11B3g    1.178791  
      11B2g    1.178791    21Ag     1.206585    20B1u    1.241489  
       7B1g    1.270376    22Ag     1.270376    12B3g    1.278511  
      12B2g    1.278511    13B3g    1.334513    13B2g    1.334513  
      21B1u    1.524807    23Ag     1.583311    14B2u    1.627090  
      14B3u    1.627090     7Au     1.696657    22B1u    1.696657  
      23B1u    1.742680    14B3g    1.970158    14B2g    1.970158  
      24B1u    2.082036    24Ag     2.122341     8B1g    2.226124  
      25Ag     2.226124    15B2u    2.273425    15B3u    2.273425  
       8Au     2.318593    25B1u    2.318593    26Ag     2.544529  
      27Ag     2.699261     9B1g    2.725444    28Ag     2.725444  
      15B3g    2.751513    15B2g    2.751513    16B2u    2.757541  
      16B3u    2.757541    17B2u    2.773765    17B3u    2.773765  
      16B3g    2.814029    16B2g    2.814029    26B1u    2.952740  
      18B2u    2.972585    18B3u    2.972585    10B1g    2.981576  
      29Ag     2.981576     9Au     2.989133    27B1u    2.989133  
      30Ag     3.025253    11B1g    3.025253    28B1u    3.092062  
      10Au     3.092062    17B3g    3.093303    17B2g    3.093303  
      18B2g    3.240202    18B3g    3.240202    19B2u    3.246168  
      19B3u    3.246168    29B1u    3.364265    31Ag     3.534781  
      11Au     3.541972    30B1u    3.541972    19B3g    3.981196  
      19B2g    3.981196    31B1u    4.141798    20B2u    5.401177  
      20B3u    5.401177    20B3g    6.030277    20B2g    6.030277  
      32Ag     6.889087    32B1u    7.127866    12B1g    7.294303  
      33Ag     7.294303    12Au     7.355477    33B1u    7.355477  
      21B2u    7.391597    21B3u    7.391597    21B3g    7.750139  
      21B2g    7.750139    34B1u    7.762084    34Ag     7.809392  
      35Ag    13.556402    35B1u   14.989113  

    Final Occupation by Irrep:
             Ag   B1g   B2g   B3g    Au   B1u   B2u   B3u 
    DOCC [     4,    0,    1,    1,    0,    4,    2,    2 ]
    SOCC [     1,    0,    0,    0,    0,    0,    0,    0 ]

  @UHF Final Energy:  -681.11797831948832

   => Energetics <=

    Nuclear Repulsion Energy =             59.7298132188321063
    One-Electron Energy =               -1053.2270358337261769
    Two-Electron Energy =                 312.3792442954058401
    Total Energy =                       -681.1179783194882020

  UHF NO Occupations:
  HONO-2 :    4 Ag 1.9967102
  HONO-1 :    4B1u 1.9843997
  HONO-0 :    5 Ag 1.0000000
  LUNO+0 :    5B1u 0.0156003
  LUNO+1 :    6 Ag 0.0032898
  LUNO+2 :    3B2u 0.0003344
  LUNO+3 :    3B3u 0.0003344


Computation Completed


Properties will be evaluated at   0.000000,   0.000000,   0.000000 [a0]

Properties computed using the SCF density matrix

  Nuclear Dipole Moment: [e a0]
     X:     0.0000      Y:     0.0000      Z:    -0.0000

  Electronic Dipole Moment: [e a0]
     X:     0.0000      Y:     0.0000      Z:     0.0000

  Dipole Moment: [e a0]
     X:     0.0000      Y:     0.0000      Z:    -0.0000     Total:     0.0000

  Dipole Moment: [D]
     X:     0.0000      Y:     0.0000      Z:    -0.0000     Total:     0.0000


*** tstop() called on l43 at Wed Jan 20 21:18:11 2021
Module time:
	user time   =      34.78 seconds =       0.58 minutes
	system time =       4.93 seconds =       0.08 minutes
	total time  =         33 seconds =       0.55 minutes
Total time:
	user time   =      34.78 seconds =       0.58 minutes
	system time =       4.93 seconds =       0.08 minutes
	total time  =         33 seconds =       0.55 minutes

*** tstart() called on l43
*** at Wed Jan 20 21:18:11 2021


	Wfn Parameters:
	--------------------
	Wavefunction         = CCSD_T
	Number of irreps     = 8
	Number of MOs        = 178
	Number of active MOs = 168
	AO-Basis             = NONE
	Semicanonical        = false
	Reference            = UHF
	Print Level          = 1

	IRREP	# MOs	# FZDC	# DOCC	# SOCC	# VIRT	# FZVR
	-----	-----	------	------	------	------	------
	 Ag	   35	    3	    1	    1	    30	    0
	 B1g	   12	    0	    0	    0	    12	    0
	 B2g	   21	    1	    0	    0	    20	    0
	 B3g	   21	    1	    0	    0	    20	    0
	 Au	   12	    0	    0	    0	    12	    0
	 B1u	   35	    3	    1	    0	    31	    0
	 B2u	   21	    1	    1	    0	    19	    0
	 B3u	   21	    1	    1	    0	    19	    0
	Transforming integrals...
	IWL integrals will be deleted.
	(OO|OO)...
	Presorting SO-basis two-electron integrals.
	Sorting File: SO Ints (nn|nn) nbuckets = 1
	Constructing frozen core operators
	Starting AA/AB first half-transformation.
	Sorting AA/AB half-transformed integrals.
	Starting BB first half-transformation.
	Sorting BB half-transformed integrals.
	First half integral transformation complete.
	Starting AA second half-transformation.
	Starting AB second half-transformation.
	Starting BB second half-transformation.
	Two-electron integral transformation complete.
	(OO|OV)...
	Starting AA second half-transformation.
	Starting AB second half-transformation.
	Starting BB second half-transformation.
	Two-electron integral transformation complete.
	(OO|VV)...
	Starting AA second half-transformation.
	Starting AB second half-transformation.
	Starting BB second half-transformation.
	Two-electron integral transformation complete.
	(OV|OO)...
	Starting AA/AB first half-transformation.
	Sorting AA/AB half-transformed integrals.
	Starting BB first half-transformation.
	Sorting BB half-transformed integrals.
	First half integral transformation complete.
	Starting AA second half-transformation.
	Starting AB second half-transformation.
	Starting BB second half-transformation.
	Two-electron integral transformation complete.
	(OV|OV)...
	Starting AA second half-transformation.
	Starting AB second half-transformation.
	Starting BB second half-transformation.
	Two-electron integral transformation complete.
	(OV|VV)...
	Starting AA second half-transformation.
	Starting AB second half-transformation.
	Starting BB second half-transformation.
	Two-electron integral transformation complete.
	(VV|OO)...
	Starting AA/AB first half-transformation.
	Sorting AA/AB half-transformed integrals.
	Starting BB first half-transformation.
	Sorting BB half-transformed integrals.
	First half integral transformation complete.
	Starting AA second half-transformation.
	Starting AB second half-transformation.
	Starting BB second half-transformation.
	Two-electron integral transformation complete.
	(VV|OV)...
	Starting AA second half-transformation.
	Starting AB second half-transformation.
	Starting BB second half-transformation.
	Two-electron integral transformation complete.
	(VV|VV)...
	Starting AA second half-transformation.
	Starting AB second half-transformation.
	Starting BB second half-transformation.
	Two-electron integral transformation complete.
	Frozen core energy     =   -721.81787090740067

	Size of irrep 0 of <AB|CD> integrals:      3.077 (MW) /     24.612 (MB)
	Size of irrep 1 of <AB|CD> integrals:      2.229 (MW) /     17.832 (MB)
	Size of irrep 2 of <AB|CD> integrals:      2.746 (MW) /     21.965 (MB)
	Size of irrep 3 of <AB|CD> integrals:      2.746 (MW) /     21.965 (MB)
	Size of irrep 4 of <AB|CD> integrals:      2.226 (MW) /     17.809 (MB)
	Size of irrep 5 of <AB|CD> integrals:      3.364 (MW) /     26.908 (MB)
	Size of irrep 6 of <AB|CD> integrals:      2.749 (MW) /     21.992 (MB)
	Size of irrep 7 of <AB|CD> integrals:      2.749 (MW) /     21.992 (MB)
	Total:                                    21.884 (MW) /    175.075 (MB)

	Size of irrep 0 of <ab|cd> integrals:      3.183 (MW) /     25.461 (MB)
	Size of irrep 1 of <ab|cd> integrals:      2.265 (MW) /     18.120 (MB)
	Size of irrep 2 of <ab|cd> integrals:      2.812 (MW) /     22.499 (MB)
	Size of irrep 3 of <ab|cd> integrals:      2.812 (MW) /     22.499 (MB)
	Size of irrep 4 of <ab|cd> integrals:      2.262 (MW) /     18.096 (MB)
	Size of irrep 5 of <ab|cd> integrals:      3.478 (MW) /     27.826 (MB)
	Size of irrep 6 of <ab|cd> integrals:      2.812 (MW) /     22.499 (MB)
	Size of irrep 7 of <ab|cd> integrals:      2.812 (MW) /     22.499 (MB)
	Total:                                    22.437 (MW) /    179.498 (MB)

	Size of irrep 0 of <Ab|Cd> integrals:     13.697 (MW) /    109.579 (MB)
	Size of irrep 1 of <Ab|Cd> integrals:      8.988 (MW) /     71.904 (MB)
	Size of irrep 2 of <Ab|Cd> integrals:     11.116 (MW) /     88.924 (MB)
	Size of irrep 3 of <Ab|Cd> integrals:     11.116 (MW) /     88.924 (MB)
	Size of irrep 4 of <Ab|Cd> integrals:      8.976 (MW) /     71.808 (MB)
	Size of irrep 5 of <Ab|Cd> integrals:     13.683 (MW) /    109.461 (MB)
	Size of irrep 6 of <Ab|Cd> integrals:     11.122 (MW) /     88.978 (MB)
	Size of irrep 7 of <Ab|Cd> integrals:     11.122 (MW) /     88.978 (MB)
	Total:                                    89.820 (MW) /    718.557 (MB)

	Size of irrep 0 of <IA|BC> integrals:      0.474 (MW) /      3.788 (MB)
	Size of irrep 1 of <IA|BC> integrals:      0.221 (MW) /      1.768 (MB)
	Size of irrep 2 of <IA|BC> integrals:      0.338 (MW) /      2.704 (MB)
	Size of irrep 3 of <IA|BC> integrals:      0.338 (MW) /      2.704 (MB)
	Size of irrep 4 of <IA|BC> integrals:      0.227 (MW) /      1.814 (MB)
	Size of irrep 5 of <IA|BC> integrals:      0.484 (MW) /      3.873 (MB)
	Size of irrep 6 of <IA|BC> integrals:      0.332 (MW) /      2.653 (MB)
	Size of irrep 7 of <IA|BC> integrals:      0.332 (MW) /      2.653 (MB)
	Total:                                     2.745 (MW) /     21.958 (MB)

	Size of irrep 0 of <ia|bc> integrals:      0.373 (MW) /      2.986 (MB)
	Size of irrep 1 of <ia|bc> integrals:      0.187 (MW) /      1.493 (MB)
	Size of irrep 2 of <ia|bc> integrals:      0.275 (MW) /      2.200 (MB)
	Size of irrep 3 of <ia|bc> integrals:      0.275 (MW) /      2.200 (MB)
	Size of irrep 4 of <ia|bc> integrals:      0.193 (MW) /      1.540 (MB)
	Size of irrep 5 of <ia|bc> integrals:      0.380 (MW) /      3.044 (MB)
	Size of irrep 6 of <ia|bc> integrals:      0.275 (MW) /      2.200 (MB)
	Size of irrep 7 of <ia|bc> integrals:      0.275 (MW) /      2.200 (MB)
	Total:                                     2.233 (MW) /     17.863 (MB)

	Size of irrep 0 of <Ia|Bc> integrals:      0.485 (MW) /      3.879 (MB)
	Size of irrep 1 of <Ia|Bc> integrals:      0.222 (MW) /      1.775 (MB)
	Size of irrep 2 of <Ia|Bc> integrals:      0.340 (MW) /      2.721 (MB)
	Size of irrep 3 of <Ia|Bc> integrals:      0.340 (MW) /      2.721 (MB)
	Size of irrep 4 of <Ia|Bc> integrals:      0.228 (MW) /      1.822 (MB)
	Size of irrep 5 of <Ia|Bc> integrals:      0.492 (MW) /      3.936 (MB)
	Size of irrep 6 of <Ia|Bc> integrals:      0.337 (MW) /      2.695 (MB)
	Size of irrep 7 of <Ia|Bc> integrals:      0.337 (MW) /      2.695 (MB)
	Total:                                     2.780 (MW) /     22.241 (MB)

	Size of irrep 0 of <iA|bC> integrals:      0.366 (MW) /      2.931 (MB)
	Size of irrep 1 of <iA|bC> integrals:      0.186 (MW) /      1.487 (MB)
	Size of irrep 2 of <iA|bC> integrals:      0.273 (MW) /      2.187 (MB)
	Size of irrep 3 of <iA|bC> integrals:      0.273 (MW) /      2.187 (MB)
	Size of irrep 4 of <iA|bC> integrals:      0.192 (MW) /      1.534 (MB)
	Size of irrep 5 of <iA|bC> integrals:      0.374 (MW) /      2.989 (MB)
	Size of irrep 6 of <iA|bC> integrals:      0.270 (MW) /      2.161 (MB)
	Size of irrep 7 of <iA|bC> integrals:      0.270 (MW) /      2.161 (MB)
	Total:                                     2.205 (MW) /     17.637 (MB)

	Size of irrep 0 of tIjAb amplitudes:       0.019 (MW) /      0.148 (MB)
	Size of irrep 1 of tIjAb amplitudes:       0.006 (MW) /      0.048 (MB)
	Size of irrep 2 of tIjAb amplitudes:       0.007 (MW) /      0.053 (MB)
	Size of irrep 3 of tIjAb amplitudes:       0.007 (MW) /      0.053 (MB)
	Size of irrep 4 of tIjAb amplitudes:       0.000 (MW) /      0.000 (MB)
	Size of irrep 5 of tIjAb amplitudes:       0.011 (MW) /      0.089 (MB)
	Size of irrep 6 of tIjAb amplitudes:       0.010 (MW) /      0.080 (MB)
	Size of irrep 7 of tIjAb amplitudes:       0.010 (MW) /      0.080 (MB)
	Total:                                     0.069 (MW) /      0.552 (MB)

	Nuclear Rep. energy          =     59.72981321883211
	SCF energy                   =   -681.11797831948832
	One-electron energy          =    -30.79799746564782
	Two-electron (AA) energy     =      2.94227715877096
	Two-electron (BB) energy     =      1.78530748928690
	Two-electron (AB) energy     =      7.04049218666957
	Two-electron energy          =     11.76807683472742
	Reference energy             =   -681.11797831948900

*** tstop() called on l43 at Wed Jan 20 21:18:32 2021
Module time:
	user time   =      13.74 seconds =       0.23 minutes
	system time =       7.16 seconds =       0.12 minutes
	total time  =         21 seconds =       0.35 minutes
Total time:
	user time   =      48.52 seconds =       0.81 minutes
	system time =      12.09 seconds =       0.20 minutes
	total time  =         54 seconds =       0.90 minutes
            **************************
            *                        *
            *        CCENERGY        *
            *                        *
            **************************

    Nuclear Rep. energy (wfn)     =   59.729813218832106
    SCF energy          (wfn)     = -681.117978319488316
    Reference energy    (file100) = -681.117978319488998

    Input parameters:
    -----------------
    Wave function   =     CCSD_T
    Reference wfn   =     UHF
    Brueckner       =     No
    Memory (Mbytes) =     250000.0
    Maxiter         =     50
    R_Convergence   =     1.0e-07
    E_Convergence   =     1.0e-06
    Restart         =     Yes
    DIIS            =     Yes
    AO Basis        =     NONE
    ABCD            =     NEW
    Cache Level     =     2
    Cache Type      =     LRU
    Print Level     =     1
    Num. of threads =     48
    # Amps to Print =     10
    Print MP2 Amps? =     No
    Analyze T2 Amps =     No
    Print Pair Ener =     No
    Local CC        =     No
    SCS-MP2         =     False
    SCSN-MP2        =     False
    SCS-CCSD        =     False

MP2 correlation energy -0.2823165615563875
                Solving CC Amplitude Equations
                ------------------------------
  Iter             Energy              RMS        T1Diag      D1Diag    New D1Diag    D2Diag
  ----     ---------------------    ---------   ----------  ----------  ----------   --------
     0        -0.282316561556388    0.000e+00    0.000000    0.000000    0.000000    0.000000
     1        -0.273202464151222    1.231e-01    0.027546    0.000000    0.000000    0.000000
     2        -0.287682006338563    4.740e-02    0.028120    0.000000    0.000000    0.000000
     3        -0.292321174109385    2.293e-02    0.035756    0.000000    0.000000    0.000000
     4        -0.292570350090298    6.145e-03    0.037184    0.000000    0.000000    0.000000
     5        -0.292645355269502    2.443e-03    0.037679    0.000000    0.000000    0.000000
     6        -0.292609242966579    8.424e-04    0.037729    0.000000    0.000000    0.000000
     7        -0.292626455781475    2.605e-04    0.037741    0.000000    0.000000    0.000000
     8        -0.292628101986749    9.430e-05    0.037744    0.000000    0.000000    0.000000
     9        -0.292625510510429    3.365e-05    0.037745    0.000000    0.000000    0.000000
    10        -0.292625583975627    1.248e-05    0.037747    0.000000    0.000000    0.000000
    11        -0.292625347048232    4.561e-06    0.037747    0.000000    0.000000    0.000000
    12        -0.292625551231904    1.551e-06    0.037748    0.000000    0.000000    0.000000
    13        -0.292625555941831    5.515e-07    0.037748    0.000000    0.000000    0.000000
    14        -0.292625559450217    2.181e-07    0.037748    0.000000    0.000000    0.000000
    15        -0.292625563230638    9.435e-08    0.037748    0.000000    0.000000    0.000000

    Iterations converged.


    Largest TIA Amplitudes:
              2  94        -0.0312234785
              3 128         0.0292814771
              4 147         0.0292814771
              2  95         0.0286880502
              4 145        -0.0222094411
              3 126        -0.0222094409
              2  98         0.0153166170
              3 130         0.0118780164
              4 149         0.0118780164
              4 154        -0.0107358315

    Largest Tia Amplitudes:
              0   0         0.0441162843
              3 148         0.0281581597
              2 129         0.0281581597
              1  96        -0.0220328771
              2 127        -0.0187407017
              3 146        -0.0187407017
              1  99        -0.0184552044
              1 100        -0.0162605076
              1  97         0.0158210460
              0   5         0.0131975214

    Largest TIJAB Amplitudes:
      4   3  62  42         0.0371715921
      3   1  95  62        -0.0230625452
      4   1  95  42        -0.0230625452
      4   1  94  42         0.0215793142
      3   1  94  62         0.0215793142
      4   3  31   5         0.0160542184
      4   3  30   5         0.0134215639
      4   3  31   2         0.0134215639
      3   1  98  62        -0.0132716448
      4   1  98  42        -0.0132716448

    Largest Tijab Amplitudes:
      3   2  63  43         0.0420015609
      3   1  43   0        -0.0411974921
      2   1  63   0        -0.0411974918
      3   2  32   6         0.0160399665
      3   2  31   6         0.0135984349
      3   2  32   3         0.0135984349
      3   2  31   3         0.0125338206
      3   1  43   1        -0.0124154773
      2   1  63   1        -0.0124154772
      3   1  43   6         0.0122921625

    Largest TIjAb Amplitudes:
      4   3  42  43        -0.1358158443
      3   2  62  63        -0.1358158418
      3   3  62  43        -0.0744577697
      4   2  42  63        -0.0744577686
      4   1  42   0        -0.0738534551
      3   1  62   0        -0.0738534548
      2   1  42  43        -0.0509365519
      2   1  62  63        -0.0509365513
      1   1  95   0         0.0436197092
      1   1  94   0        -0.0371003095

    SCF energy       (wfn)                    = -681.117978319488316
    Reference energy (file100)                = -681.117978319488998

    Opposite-spin MP2 correlation energy      =   -0.216114750544782
    Same-spin MP2 correlation energy          =   -0.066201811011605
    Singles MP2 correlation energy            =   -0.000000000000000
    MP2 correlation energy                    =   -0.282316561556388
      * MP2 total energy                      = -681.400294881045397

    Opposite-spin CCSD correlation energy     =   -0.238348686819996
    Same-spin CCSD correlation energy         =   -0.054276876410645
    Singles CCSD correlation energy           =    0.000000000000003
    CCSD correlation energy                   =   -0.292625563230638
      * CCSD total energy                     = -681.410603882719670

            **************************
            *                        *
            *        CCTRIPLES       *
            *                        *
            **************************


    Wave function   =    CCSD_T
    Reference wfn   =      UHF

    Nuclear Rep. energy (wfn)                =   59.729813218832106
    SCF energy          (wfn)                = -681.117978319488316
    Reference energy    (file100)            = -681.117978319488998
    CCSD energy         (file100)            =   -0.292625563230638
    Total CCSD energy   (file100)            = -681.410603882719670

    Number of ijk index combinations:
    Spin Case AAA:                                  10
    Spin Case BBB:                                   4
    Spin Case AAB:                                  40
    Spin Case ABB:                                  30
    AAA (T) energy                             =   -0.000506080614553
    BBB (T) energy                             =   -0.000364597825648
    AAB (T) energy                             =   -0.013359257094999
    ABB (T) energy                             =   -0.011349005855072
    (T) energy                                   =   -0.025578941390272
      * CCSD(T) total energy                     = -681.436182824109892


    Psi4 stopped on: Wednesday, 20 January 2021 09:18PM
    Psi4 wall time for execution: 0:01:18.01

*** Psi4 exiting successfully. Buy a developer a beer!
