
    -----------------------------------------------------------------------
          Psi4: An Open-Source Ab Initio Electronic Structure Package
                               Psi4 1.2a1.dev938 

                         Git: Rev {HEAD} fc51d9a dirty


    R. M. Parrish, L. A. Burns, D. G. A. Smith, A. C. Simmonett,
    A. E. DePrince III, E. G. Hohenstein, U. Bozkaya, A. Yu. Sokolov,
    R. Di Remigio, R. M. Richard, J. F. Gonthier, A. M. James,
    H. R. McAlexander, A. Kumar, M. Saitow, X. Wang, B. P. Pritchard,
    P. Verma, H. F. Schaefer III, K. Patkowski, R. A. King, E. F. Valeev,
    F. A. Evangelista, J. M. Turney, T. D. Crawford, and C. D. Sherrill,
    J. Chem. Theory Comput. 13(7) pp 3185--3197 (2017).
    (doi: 10.1021/acs.jctc.7b00174)

    -----------------------------------------------------------------------


    Psi4 started on: Thursday, 20 August 2020 08:00PM

    Process ID: 423428
    PSIDATADIR: /home/irmler/Programs/psi4/beforeGrueneis3/stage/usr/local/psi4/share/psi4
    Memory:     500.0 MiB
    Threads:    4
    
  ==> Input File <==

--------------------------------------------------------------------------
# Any line starting with the # character is a comment line
memory 250000 mb
molecule molecule{
1 2
Cl         0.0000000000        0.0000000000        0.5316695235
F          0.0000000000        0.0000000000       -0.9921507411
}

set {
  reference uhf
  basis aug-cc-pv(t+d)z
  scf_type OUT_OF_CORE
  freeze_core true
}

energy('ccsd')
--------------------------------------------------------------------------

  Memory set to 232.831 GiB by Python driver.

*** tstart() called on cqc05
*** at Thu Aug 20 20:00:34 2020

   => Loading Basis Set <=

    Name: AUG-CC-PV(T+D)Z
    Role: ORBITAL
    Keyword: BASIS
    atoms 1 entry CL         line  1012 file /home/irmler/Programs/psi4/beforeGrueneis3/stage/usr/local/psi4/share/psi4/basis/aug-cc-pv_tpd_z.gbs 
    atoms 2 entry F          line   393 file /home/irmler/Programs/psi4/beforeGrueneis3/stage/usr/local/psi4/share/psi4/basis/aug-cc-pv_tpd_z.gbs 


         ---------------------------------------------------------
                                   SCF
            by Justin Turney, Rob Parrish, Andy Simmonett
                             and Daniel Smith
                              UHF Reference
                        4 Threads, 238418 MiB Core
         ---------------------------------------------------------

  ==> Geometry <==

    Molecular point group: c2v
    Full point group: C_inf_v

    Geometry (in Angstrom), charge = 1, multiplicity = 2:

       Center              X                  Y                   Z               Mass       
    ------------   -----------------  -----------------  -----------------  -----------------
          CL          0.000000000000     0.000000000000     0.536439204509    34.968852682000
           F          0.000000000000     0.000000000000    -0.987381060091    18.998403224000

  Running in c2v symmetry.

  Rotational constants: A = ************  B =      0.58974  C =      0.58974 [cm^-1]
  Rotational constants: A = ************  B =  17679.97139  C =  17679.97139 [MHz]
  Nuclear repulsion =   53.132324589162046

  Charge       = 1
  Multiplicity = 2
  Electrons    = 25
  Nalpha       = 13
  Nbeta        = 12

  ==> Algorithm <==

  SCF Algorithm Type is OUT_OF_CORE.
  DIIS enabled.
  MOM disabled.
  Fractional occupation disabled.
  Guess Type is GWH.
  Energy threshold   = 1.00e-08
  Density threshold  = 1.00e-08
  Integral threshold = 0.00e+00

  ==> Primary Basis <==

  Basis Set: AUG-CC-PV(T+D)Z
    Blend: AUG-CC-PV(T+D)Z
    Number of shells: 31
    Number of basis function: 101
    Number of Cartesian functions: 120
    Spherical Harmonics?: true
    Max angular momentum: 3

  ==> Pre-Iterations <==

   -------------------------------------------------------
    Irrep   Nso     Nmo     Nalpha   Nbeta   Ndocc  Nsocc
   -------------------------------------------------------
     A1        42      42       0       0       0       0
     A2        11      11       0       0       0       0
     B1        24      24       0       0       0       0
     B2        24      24       0       0       0       0
   -------------------------------------------------------
    Total     101     101      13      12      12       1
   -------------------------------------------------------

  ==> Integral Setup <==

  ==> DiskJK: Disk-Based J/K Matrices <==

    J tasked:                  Yes
    K tasked:                  Yes
    wK tasked:                  No
    Memory (MB):            178813
    Schwarz Cutoff:          1E-12

  Minimum eigenvalue in the overlap matrix is 7.7658189917E-04.
  Using Symmetric Orthogonalization.

  SCF Guess: Generalized Wolfsberg-Helmholtz.

  ==> Iterations <==

                        Total Energy        Delta E     RMS |[F,P]|

    Occupation by irrep:
             A1    A2    B1    B2 
    DOCC [     7,    0,    2,    3 ]
    SOCC [     0,    0,    1,    0 ]

   @UHF iter   1:  -535.69378615166784   -5.35694e+02   2.87535e-01 
   @UHF iter   2:  -541.20057113032158   -5.50678e+00   1.67438e-01 DIIS
   @UHF iter   3:  -544.20515833351681   -3.00459e+00   1.38218e-01 DIIS
   @UHF iter   4:  -557.24303949142904   -1.30379e+01   5.65467e-02 DIIS
   @UHF iter   5:  -558.30847711141871   -1.06544e+00   1.75169e-02 DIIS
   @UHF iter   6:  -558.45916565694324   -1.50689e-01   4.56120e-03 DIIS
   @UHF iter   7:  -558.47421994241904   -1.50543e-02   1.30792e-03 DIIS
   @UHF iter   8:  -558.47528476022546   -1.06482e-03   4.33299e-04 DIIS
   @UHF iter   9:  -558.47547504602971   -1.90286e-04   1.08017e-04 DIIS
   @UHF iter  10:  -558.47549282367106   -1.77776e-05   5.37927e-05 DIIS
   @UHF iter  11:  -558.47549907318705   -6.24952e-06   3.50629e-05 DIIS
   @UHF iter  12:  -558.47550383236035   -4.75917e-06   1.88409e-05 DIIS
   @UHF iter  13:  -558.47550513940098   -1.30704e-06   7.28402e-06 DIIS
   @UHF iter  14:  -558.47550523991924   -1.00518e-07   1.84781e-06 DIIS
   @UHF iter  15:  -558.47550524519067   -5.27143e-09   5.64412e-07 DIIS
   @UHF iter  16:  -558.47550524585301   -6.62340e-10   2.08697e-07 DIIS
   @UHF iter  17:  -558.47550524595840   -1.05388e-10   7.08921e-08 DIIS
   @UHF iter  18:  -558.47550524597261   -1.42109e-11   3.34327e-08 DIIS
   @UHF iter  19:  -558.47550524597568   -3.06954e-12   1.53184e-08 DIIS
   @UHF iter  20:  -558.47550524597614   -4.54747e-13   4.23114e-09 DIIS

  ==> Post-Iterations <==

   @Spin Contamination Metric:   1.467940741E-02
   @S^2 Expected:                7.500000000E-01
   @S^2 Observed:                7.646794074E-01
   @S   Expected:                5.000000000E-01
   @S   Observed:                5.000000000E-01

    Orbital Energies (a.u.)
    -----------------------

    Alpha Occupied:                                                       

       1A1  -105.390716     2A1   -26.734962     3A1   -11.099317  
       1B1    -8.583339     4A1    -8.561378     1B2    -8.557488  
       5A1    -2.048530     6A1    -1.522934     2B1    -1.132031  
       2B2    -1.103964     7A1    -1.091058     3B1    -0.929749  
       3B2    -0.863039  

    Alpha Virtual:                                                        

       8A1    -0.251154     9A1    -0.105977     4B1    -0.075380  
       4B2    -0.068098    10A1    -0.051896    11A1     0.020790  
       1A2     0.024072    12A1     0.029891     5B1     0.035751  
       5B2     0.043025     6B1     0.121516     6B2     0.142060  
      13A1     0.173087    14A1     0.237900     7B1     0.305568  
       7B2     0.331083    15A1     0.370333    16A1     0.464180  
       2A2     0.465038     8B1     0.490650     8B2     0.518488  
      17A1     0.561665    18A1     0.614735     3A2     0.614973  
      19A1     0.696537     9B1     0.822789     9B2     0.829481  
      10B1     0.831420    10B2     0.831483    11B1     0.943448  
      11B2     0.965458    20A1     0.974687    21A1     1.011898  
       4A2     1.014378    22A1     1.033920    12B1     1.295391  
      12B2     1.315687    23A1     1.390979     5A2     1.864414  
      24A1     1.864533    25A1     1.965984    13B1     1.973142  
      13B2     2.013189    26A1     2.040133    14B1     2.224165  
      14B2     2.258299    15B1     2.399228    27A1     2.401969  
       6A2     2.402343    15B2     2.432272    16B1     2.582542  
      16B2     2.582594    28A1     2.605963    17B1     2.629986  
      17B2     2.630012    29A1     2.703185     7A2     2.703402  
      30A1     2.884706     8A2     2.905130    31A1     2.909295  
      18B1     2.960176    18B2     2.981904    32A1     3.492280  
      19B1     3.589078    19B2     3.608783    33A1     3.650511  
      20B1     4.958511    20B2     4.972513    34A1     5.282022  
      35A1     6.239576    36A1     8.282540     9A2     8.282808  
      21B1     8.334894    21B2     8.361595    22B1     8.448160  
      22B2     8.448161    37A1     8.501112    38A1     8.537850  
      10A2     8.537960    39A1     8.795232    23B1     8.858577  
      23B2     8.869115    11A2     8.933570    40A1     8.933615  
      24B1     9.060213    24B2     9.073564    41A1     9.646457  
      42A1    14.096674  

    Beta Occupied:                                                        

       1A1  -105.378668     2A1   -26.726280     3A1   -11.086888  
       4A1    -8.555987     1B2    -8.551143     1B1    -8.531135  
       5A1    -2.023884     6A1    -1.420824     2B2    -1.094664  
       7A1    -1.070394     2B1    -1.029064     3B2    -0.843345  

    Beta Virtual:                                                         

       3B1    -0.384577     8A1    -0.228358     9A1    -0.102687  
       4B2    -0.067411     4B1    -0.064949    10A1    -0.049459  
      11A1     0.028122     5B2     0.043360     5B1     0.045236  
       1A2     0.057334    12A1     0.058170     6B2     0.142765  
       6B1     0.155986    13A1     0.174045    14A1     0.245506  
       7B2     0.334654     7B1     0.351775    15A1     0.375435  
       2A2     0.518263    16A1     0.518382     8B2     0.520159  
       8B1     0.534576    17A1     0.569041     3A2     0.619251  
      18A1     0.619799    19A1     0.713486     9B2     0.830673  
       9B1     0.836335    10B2     0.849550    10B1     0.849554  
      11B1     0.964790    11B2     0.966177    20A1     0.981112  
      21A1     1.022964     4A2     1.023963    22A1     1.035405  
      12B1     1.311457    12B2     1.317520    23A1     1.408705  
      24A1     1.893215     5A2     1.893484    25A1     1.969508  
      13B1     2.007364    13B2     2.015054    26A1     2.042928  
      14B2     2.263554    14B1     2.271585     6A2     2.413107  
      27A1     2.413177    15B1     2.435201    15B2     2.437046  
      16B2     2.598024    16B1     2.598024    28A1     2.618252  
      17B1     2.656668    17B2     2.656668    29A1     2.722298  
       7A2     2.722383    30A1     2.898045     8A2     2.913618  
      31A1     2.914021    18B1     2.981037    18B2     2.983824  
      32A1     3.499219    19B1     3.601048    19B2     3.609679  
      33A1     3.655267    20B2     4.976872    20B1     4.987361  
      34A1     5.291145    35A1     6.253453    36A1     8.296538  
       9A2     8.296660    21B1     8.348147    21B2     8.363235  
      22B1     8.456993    22B2     8.456993    37A1     8.506830  
      38A1     8.543898    10A2     8.543918    39A1     8.798697  
      23B1     8.865704    23B2     8.870328    11A2     8.951616  
      40A1     8.951627    24B2     9.076484    24B1     9.077284  
      41A1     9.652013    42A1    14.104620  

    Final Occupation by Irrep:
             A1    A2    B1    B2 
    DOCC [     7,    0,    2,    3 ]
    SOCC [     0,    0,    1,    0 ]

  Energy converged.

  @UHF Final Energy:  -558.47550524597614

   => Energetics <=

    Nuclear Repulsion Energy =             53.1323245891620459
    One-Electron Energy =                -869.2848779459683328
    Two-Electron Energy =                 257.6770481108300714
    PCM Polarization Energy =               0.0000000000000000
    Total Energy =                       -558.4755052459761373

    Alert: EFP and PCM quantities not currently incorporated into SCF psivars.
  UHF NO Occupations:
  HONO-2 :    2 B1 1.9987284
  HONO-1 :    7 A1 1.9943765
  HONO-0 :    3 B1 1.0000000
  LUNO+0 :    8 A1 0.0056235
  LUNO+1 :    4 B1 0.0012716
  LUNO+2 :    4 B2 0.0003191
  LUNO+3 :    9 A1 0.0001023



Properties will be evaluated at   0.000000,   0.000000,   0.000000 Bohr

Properties computed using the SCF density matrix

  Nuclear Dipole Moment: (a.u.)
     X:     0.0000      Y:     0.0000      Z:     0.4404

  Electronic Dipole Moment: (a.u.)
     X:     0.0000      Y:     0.0000      Z:     0.4418

  Dipole Moment: (a.u.)
     X:     0.0000      Y:     0.0000      Z:     0.8822     Total:     0.8822

  Dipole Moment: (Debye)
     X:     0.0000      Y:     0.0000      Z:     2.2423     Total:     2.2423


*** tstop() called on cqc05 at Thu Aug 20 20:00:37 2020
Module time:
	user time   =       3.93 seconds =       0.07 minutes
	system time =       0.16 seconds =       0.00 minutes
	total time  =          3 seconds =       0.05 minutes
Total time:
	user time   =       3.93 seconds =       0.07 minutes
	system time =       0.16 seconds =       0.00 minutes
	total time  =          3 seconds =       0.05 minutes

*** tstart() called on cqc05
*** at Thu Aug 20 20:00:37 2020


	Wfn Parameters:
	--------------------
	Wavefunction         = CCSD
	Number of irreps     = 4
	Number of MOs        = 101
	Number of active MOs = 95
	AO-Basis             = NONE
	Semicanonical        = false
	Reference            = UHF
	Print Level          = 1

	IRREP	# MOs	# FZDC	# DOCC	# SOCC	# VIRT	# FZVR
	-----	-----	------	------	------	------	------
	 A1	   42	    4	    3	    0	    35	    0
	 A2	   11	    0	    0	    0	    11	    0
	 B1	   24	    1	    1	    1	    21	    0
	 B2	   24	    1	    2	    0	    21	    0
	Transforming integrals...
	IWL integrals will be deleted.
	(OO|OO)...
	Presorting SO-basis two-electron integrals.
	Sorting File: SO Ints (nn|nn) nbuckets = 1
	Transforming the one-electron integrals and constructing Fock matrices
	Starting AA/AB first half-transformation.
	Sorting AA/AB half-transformed integrals.
	Starting BB first half-transformation.
	Sorting BB half-transformed integrals.
	First half integral transformation complete.
	Starting AA second half-transformation.
	Starting AB second half-transformation.
	Starting BB second half-transformation.
	Two-electron integral transformation complete.
	(OO|OV)...
	Starting AA second half-transformation.
	Starting AB second half-transformation.
	Starting BB second half-transformation.
	Two-electron integral transformation complete.
	(OO|VV)...
	Starting AA second half-transformation.
	Starting AB second half-transformation.
	Starting BB second half-transformation.
	Two-electron integral transformation complete.
	(OV|OO)...
	Starting AA/AB first half-transformation.
	Sorting AA/AB half-transformed integrals.
	Starting BB first half-transformation.
	Sorting BB half-transformed integrals.
	First half integral transformation complete.
	Starting AA second half-transformation.
	Starting AB second half-transformation.
	Starting BB second half-transformation.
	Two-electron integral transformation complete.
	(OV|OV)...
	Starting AA second half-transformation.
	Starting AB second half-transformation.
	Starting BB second half-transformation.
	Two-electron integral transformation complete.
	(OV|VV)...
	Starting AA second half-transformation.
	Starting AB second half-transformation.
	Starting BB second half-transformation.
	Two-electron integral transformation complete.
	(VV|OO)...
	Starting AA/AB first half-transformation.
	Sorting AA/AB half-transformed integrals.
	Starting BB first half-transformation.
	Sorting BB half-transformed integrals.
	First half integral transformation complete.
	Starting AA second half-transformation.
	Starting AB second half-transformation.
	Starting BB second half-transformation.
	Two-electron integral transformation complete.
	(VV|OV)...
	Starting AA second half-transformation.
	Starting AB second half-transformation.
	Starting BB second half-transformation.
	Two-electron integral transformation complete.
	(VV|VV)...
	Starting AA second half-transformation.
	Starting AB second half-transformation.
	Starting BB second half-transformation.
	Two-electron integral transformation complete.
	Frozen core energy     =   -556.34348745905356

	Size of irrep 0 of <AB|CD> integrals:      1.145 (MW) /      9.159 (MB)
	Size of irrep 1 of <AB|CD> integrals:      0.682 (MW) /      5.458 (MB)
	Size of irrep 2 of <AB|CD> integrals:      0.933 (MW) /      7.465 (MB)
	Size of irrep 3 of <AB|CD> integrals:      0.933 (MW) /      7.465 (MB)
	Total:                                     3.693 (MW) /     29.548 (MB)

	Size of irrep 0 of <ab|cd> integrals:      1.190 (MW) /      9.522 (MB)
	Size of irrep 1 of <ab|cd> integrals:      0.717 (MW) /      5.739 (MB)
	Size of irrep 2 of <ab|cd> integrals:      1.002 (MW) /      8.016 (MB)
	Size of irrep 3 of <ab|cd> integrals:      0.955 (MW) /      7.636 (MB)
	Total:                                     3.864 (MW) /     30.914 (MB)

	Size of irrep 0 of <Ab|Cd> integrals:      5.058 (MW) /     40.464 (MB)
	Size of irrep 1 of <Ab|Cd> integrals:      2.799 (MW) /     22.391 (MB)
	Size of irrep 2 of <Ab|Cd> integrals:      3.869 (MW) /     30.953 (MB)
	Size of irrep 3 of <Ab|Cd> integrals:      3.775 (MW) /     30.202 (MB)
	Total:                                    15.501 (MW) /    124.010 (MB)

	Size of irrep 0 of <IA|BC> integrals:      0.421 (MW) /      3.369 (MB)
	Size of irrep 1 of <IA|BC> integrals:      0.193 (MW) /      1.546 (MB)
	Size of irrep 2 of <IA|BC> integrals:      0.299 (MW) /      2.396 (MB)
	Size of irrep 3 of <IA|BC> integrals:      0.299 (MW) /      2.396 (MB)
	Total:                                     1.213 (MW) /      9.706 (MB)

	Size of irrep 0 of <ia|bc> integrals:      0.384 (MW) /      3.070 (MB)
	Size of irrep 1 of <ia|bc> integrals:      0.166 (MW) /      1.328 (MB)
	Size of irrep 2 of <ia|bc> integrals:      0.246 (MW) /      1.970 (MB)
	Size of irrep 3 of <ia|bc> integrals:      0.281 (MW) /      2.251 (MB)
	Total:                                     1.077 (MW) /      8.619 (MB)

	Size of irrep 0 of <Ia|Bc> integrals:      0.430 (MW) /      3.436 (MB)
	Size of irrep 1 of <Ia|Bc> integrals:      0.199 (MW) /      1.593 (MB)
	Size of irrep 2 of <Ia|Bc> integrals:      0.311 (MW) /      2.486 (MB)
	Size of irrep 3 of <Ia|Bc> integrals:      0.301 (MW) /      2.409 (MB)
	Total:                                     1.241 (MW) /      9.925 (MB)

	Size of irrep 0 of <iA|bC> integrals:      0.378 (MW) /      3.023 (MB)
	Size of irrep 1 of <iA|bC> integrals:      0.161 (MW) /      1.285 (MB)
	Size of irrep 2 of <iA|bC> integrals:      0.236 (MW) /      1.888 (MB)
	Size of irrep 3 of <iA|bC> integrals:      0.280 (MW) /      2.238 (MB)
	Total:                                     1.054 (MW) /      8.434 (MB)

	Size of irrep 0 of tIjAb amplitudes:       0.034 (MW) /      0.270 (MB)
	Size of irrep 1 of tIjAb amplitudes:       0.010 (MW) /      0.080 (MB)
	Size of irrep 2 of tIjAb amplitudes:       0.018 (MW) /      0.142 (MB)
	Size of irrep 3 of tIjAb amplitudes:       0.023 (MW) /      0.187 (MB)
	Total:                                     0.085 (MW) /      0.678 (MB)

	Nuclear Rep. energy          =     53.13232458916205
	SCF energy                   =   -558.47550524597614
	One-electron energy          =    -94.35520464927016
	Two-electron (AA) energy     =      9.38508347146430
	Two-electron (BB) energy     =      6.99154184508170
	Two-electron (AB) energy     =     22.71423695664092
	Two-electron energy          =     39.09086227318693
	Reference energy             =   -558.47550524597477

*** tstop() called on cqc05 at Thu Aug 20 20:00:40 2020
Module time:
	user time   =       1.81 seconds =       0.03 minutes
	system time =       0.95 seconds =       0.02 minutes
	total time  =          3 seconds =       0.05 minutes
Total time:
	user time   =       5.74 seconds =       0.10 minutes
	system time =       1.11 seconds =       0.02 minutes
	total time  =          6 seconds =       0.10 minutes

*** tstart() called on cqc05
*** at Thu Aug 20 20:00:40 2020

            **************************
            *                        *
            *        CCENERGY        *
            *                        *
            **************************

    Nuclear Rep. energy (wfn)     =   53.132324589162046
    SCF energy          (wfn)     = -558.475505245976137
    Reference energy    (file100) = -558.475505245974773

    Input parameters:
    -----------------
    Wave function   =     CCSD
    Reference wfn   =     UHF
    Brueckner       =     No
    Memory (Mbytes) =     250000.0
    Maxiter         =     50
    R_Convergence   =     1.0e-07
    E_Convergence   =     1.0e-06
    Restart         =     Yes
    DIIS            =     Yes
    AO Basis        =     NONE
    ABCD            =     NEW
    Cache Level     =     2
    Cache Type      =     LRU
    Print Level     =     1
    Num. of threads =     4
    # Amps to Print =     10
    Print MP2 Amps? =     No
    Analyze T2 Amps =     No
    Print Pair Ener =     No
    Local CC        =     No
    SCS-MP2         =     False
    SCSN-MP2        =     False
    SCS-CCSD        =     False

MP2 correlation energy -0.4236906351504015
                Solving CC Amplitude Equations
                ------------------------------
  Iter             Energy              RMS        T1Diag      D1Diag    New D1Diag    D2Diag
  ----     ---------------------    ---------   ----------  ----------  ----------   --------
     0        -0.423690635150404    0.000e+00    0.000000    0.000000    0.000000    0.000000
     1        -0.426189504048757    9.745e-02    0.022375    0.000000    0.000000    0.000000
     2        -0.439385711265044    3.390e-02    0.022497    0.000000    0.000000    0.000000
     3        -0.443924021101425    2.511e-02    0.029969    0.000000    0.000000    0.000000
     4        -0.443653413872035    1.163e-02    0.034822    0.000000    0.000000    0.000000
     5        -0.443900579453819    6.676e-03    0.039072    0.000000    0.000000    0.000000
     6        -0.443985522961417    1.814e-03    0.039983    0.000000    0.000000    0.000000
     7        -0.443981618357105    5.539e-04    0.040189    0.000000    0.000000    0.000000
     8        -0.443986984632522    2.026e-04    0.040186    0.000000    0.000000    0.000000
     9        -0.443987356211958    7.838e-05    0.040206    0.000000    0.000000    0.000000
    10        -0.443985093786874    2.898e-05    0.040201    0.000000    0.000000    0.000000
    11        -0.443986125556252    1.151e-05    0.040202    0.000000    0.000000    0.000000
    12        -0.443985966501758    4.920e-06    0.040203    0.000000    0.000000    0.000000
    13        -0.443986189881241    2.086e-06    0.040203    0.000000    0.000000    0.000000
    14        -0.443986244487944    6.161e-07    0.040203    0.000000    0.000000    0.000000
    15        -0.443986211607824    2.257e-07    0.040203    0.000000    0.000000    0.000000
    16        -0.443986213740525    8.368e-08    0.040203    0.000000    0.000000    0.000000
    16        -0.443986213740525    8.368e-08    0.040203    0.000000    0.000000    0.000000

    Iterations converged.


    CCSD corr. energy   =   -0.443986213740525
    PPL corr. energy    =    0.093586319674689
    OS PPL corr. energy =    0.076436500430544
    SS PPL corr. energy =    0.017149819244143
    Largest TIA Amplitudes:
              2   0        -0.0161609409
              3  47         0.0135489830
              2  11        -0.0127519902
              3  48         0.0119932465
              5  68        -0.0117224573
              5  69        -0.0108052277
              3  50        -0.0079778923
              2   6        -0.0069019901
              2   9         0.0066166246
              2  15        -0.0064664589

    Largest Tia Amplitudes:
              3  46        -0.1299364205
              1   0         0.0179896977
              3  47         0.0139903222
              3  50        -0.0132670768
              1   4        -0.0128302550
              4  70        -0.0123500329
              4  69        -0.0120652340
              1   8         0.0114463686
              3  49        -0.0100799033
              2   4        -0.0099604305

    Largest TIJAB Amplitudes:
      6   2  69   0        -0.0227404670
      4   2  48   0        -0.0223445167
      6   2  71   0         0.0206863590
      6   4  35   8         0.0203515681
      4   2  50   0         0.0198448217
      6   4  36   8         0.0197888876
      6   4  35   3        -0.0180394875
      6   4  35   4         0.0171143921
      4   2  47   0        -0.0159317654
      6   4  36   3        -0.0148039112

    Largest Tijab Amplitudes:
      3   2  46   0        -0.0581946817
      5   2  70   0        -0.0227910856
      3   2  46   6         0.0221020917
      3   2  46   2        -0.0217349440
      5   2  72   0         0.0204837576
      5   3  70  46        -0.0155867677
      5   1  46  35         0.0141456741
      3   2  46  11         0.0137885642
      5   1  46  36         0.0134705709
      5   3  72  46         0.0130836090

    Largest TIjAb Amplitudes:
      2   2   0   0        -0.0964587697
      2   3   0  46        -0.0678588024
      6   5   0   0        -0.0530778900
      2   2   0   2        -0.0361235963
      6   1  35  46        -0.0341812694
      6   1  36  46        -0.0321782271
      4   1   8  46         0.0317155722
      2   2   2   0        -0.0316969739
      1   1   0   0        -0.0311538785
      6   5  35  35        -0.0282990281

    SCF energy       (wfn)                    = -558.475505245976137
    Reference energy (file100)                = -558.475505245974773

    Opposite-spin MP2 correlation energy      =   -0.316439833353275
    Same-spin MP2 correlation energy          =   -0.107250801797094
    MP2 correlation energy                    =   -0.423690635150401
      * MP2 total energy                      = -558.899195881125138

    Opposite-spin CCSD correlation energy     =   -0.344878668208708
    Same-spin CCSD correlation energy         =   -0.099107532045208
    CCSD correlation energy                   =   -0.443986213740525
      * CCSD total energy                     = -558.919491459715346


*** tstop() called on cqc05 at Thu Aug 20 20:00:45 2020
Module time:
	user time   =       2.45 seconds =       0.04 minutes
	system time =       1.50 seconds =       0.03 minutes
	total time  =          5 seconds =       0.08 minutes
Total time:
	user time   =       8.19 seconds =       0.14 minutes
	system time =       2.61 seconds =       0.04 minutes
	total time  =         11 seconds =       0.18 minutes

*** Psi4 exiting successfully. Buy a developer a beer!
