
    -----------------------------------------------------------------------
          Psi4: An Open-Source Ab Initio Electronic Structure Package
                               Psi4 1.2a1.dev939 

                         Git: Rev {HEAD} fa1ec19 


    R. M. Parrish, L. A. Burns, D. G. A. Smith, A. C. Simmonett,
    A. E. DePrince III, E. G. Hohenstein, U. Bozkaya, A. Yu. Sokolov,
    R. Di Remigio, R. M. Richard, J. F. Gonthier, A. M. James,
    H. R. McAlexander, A. Kumar, M. Saitow, X. Wang, B. P. Pritchard,
    P. Verma, H. F. Schaefer III, K. Patkowski, R. A. King, E. F. Valeev,
    F. A. Evangelista, J. M. Turney, T. D. Crawford, and C. D. Sherrill,
    J. Chem. Theory Comput. 13(7) pp 3185--3197 (2017).
    (doi: 10.1021/acs.jctc.7b00174)

    -----------------------------------------------------------------------


    Psi4 started on: Friday, 26 April 2019 03:47PM

    Process ID:  29977
    PSIDATADIR: /home/grueneis/src/psi4/objdir/stage/usr/local/psi4/share/psi4
    Memory:     500.0 MiB
    Threads:    1
    
  ==> Input File <==

--------------------------------------------------------------------------
# Any line starting with the # character is a comment line

memory 32000 mb

molecule molecule {
0 1
Si         0.0000000000        0.0000000000       -0.0000000000
H          1.2043721963        0.0000000000        0.8516197471
H         -1.2043721963        0.0000000000        0.8516197471
H          0.0000000000       -1.2043721963       -0.8516197471
H          0.0000000000        1.2043721963       -0.8516197471
}

set {
  reference rhf
  basis aug-cc-pv(D+d)z
  scf_type OUT_OF_CORE
  freeze_core true
}

energy('ccsd')
--------------------------------------------------------------------------

  Memory set to  29.802 GiB by Python driver.

*** tstart() called on cqc01
*** at Fri Apr 26 15:47:04 2019

   => Loading Basis Set <=

    Name: AUG-CC-PV(D+D)Z
    Role: ORBITAL
    Keyword: BASIS
    atoms 1   entry SI         line   588 file /home/grueneis/src/psi4/objdir/stage/usr/local/psi4/share/psi4/basis/aug-cc-pv_dpd_z.gbs 
    atoms 2-5 entry H          line    56 file /home/grueneis/src/psi4/objdir/stage/usr/local/psi4/share/psi4/basis/aug-cc-pv_dpd_z.gbs 


         ---------------------------------------------------------
                                   SCF
            by Justin Turney, Rob Parrish, Andy Simmonett
                             and Daniel Smith
                              RHF Reference
                        1 Threads,  30517 MiB Core
         ---------------------------------------------------------

  ==> Geometry <==

    Molecular point group: c2v
    Full point group: Td

    Geometry (in Angstrom), charge = 0, multiplicity = 1:

       Center              X                  Y                   Z               Mass       
    ------------   -----------------  -----------------  -----------------  -----------------
          SI         -0.000000000000    -0.000000000000    -0.000000000000    27.976926532460
           H          1.204372196300     0.000000000000     0.851619747100     1.007825032070
           H         -1.204372196300    -0.000000000000     0.851619747100     1.007825032070
           H          0.000000000000    -1.204372196300    -0.851619747100     1.007825032070
           H         -0.000000000000     1.204372196300    -0.851619747100     1.007825032070

  Running in c2v symmetry.

  Rotational constants: A =      2.88290  B =      2.88290  C =      2.88290 [cm^-1]
  Rotational constants: A =  86427.23550  B =  86427.23550  C =  86427.23550 [MHz]
  Nuclear repulsion =   21.408273181482787

  Charge       = 0
  Multiplicity = 1
  Electrons    = 18
  Nalpha       = 9
  Nbeta        = 9

  ==> Algorithm <==

  SCF Algorithm Type is OUT_OF_CORE.
  DIIS enabled.
  MOM disabled.
  Fractional occupation disabled.
  Guess Type is SAD.
  Energy threshold   = 1.00e-08
  Density threshold  = 1.00e-08
  Integral threshold = 0.00e+00

  ==> Primary Basis <==

  Basis Set: AUG-CC-PV(D+D)Z
    Blend: AUG-CC-PV(D+D)Z
    Number of shells: 32
    Number of basis function: 68
    Number of Cartesian functions: 71
    Spherical Harmonics?: true
    Max angular momentum: 2

  ==> Pre-Iterations <==

   -------------------------------------------------------
    Irrep   Nso     Nmo     Nalpha   Nbeta   Ndocc  Nsocc
   -------------------------------------------------------
     A1        29      29       0       0       0       0
     A2         7       7       0       0       0       0
     B1        16      16       0       0       0       0
     B2        16      16       0       0       0       0
   -------------------------------------------------------
    Total      68      68       9       9       9       0
   -------------------------------------------------------

  ==> Integral Setup <==

  ==> DiskJK: Disk-Based J/K Matrices <==

    J tasked:                  Yes
    K tasked:                  Yes
    wK tasked:                  No
    Memory (MB):             22888
    Schwarz Cutoff:          1E-12

  Minimum eigenvalue in the overlap matrix is 3.1457825883E-04.
  Using Symmetric Orthogonalization.

  SCF Guess: Superposition of Atomic Densities via on-the-fly atomic UHF.

  ==> Iterations <==

                        Total Energy        Delta E     RMS |[F,P]|

   @RHF iter   0:  -291.04736486743212   -2.91047e+02   4.11029e-02 
   @RHF iter   1:  -291.23250892158455   -1.85144e-01   3.08405e-03 
   @RHF iter   2:  -291.24852208897261   -1.60132e-02   8.85999e-04 DIIS
   @RHF iter   3:  -291.25024948235972   -1.72739e-03   1.17968e-04 DIIS
   @RHF iter   4:  -291.25027980940439   -3.03270e-05   2.23792e-05 DIIS
   @RHF iter   5:  -291.25028107335106   -1.26395e-06   3.97623e-06 DIIS
   @RHF iter   6:  -291.25028111391225   -4.05612e-08   3.66731e-07 DIIS
   @RHF iter   7:  -291.25028111419482   -2.82569e-10   2.36735e-08 DIIS
   @RHF iter   8:  -291.25028111419630   -1.47793e-12   2.74286e-09 DIIS

  ==> Post-Iterations <==

    Orbital Energies (a.u.)
    -----------------------

    Doubly Occupied:                                                      

       1A1   -68.779451     2A1    -6.127447     1B1    -4.233552  
       1B2    -4.233552     3A1    -4.233552     4A1    -0.732466  
       2B2    -0.486290     5A1    -0.486290     2B1    -0.486290  

    Virtual:                                                              

       6A1     0.037329     3B1     0.060612     3B2     0.060612  
       7A1     0.060612     4B2     0.091186     8A1     0.091186  
       4B1     0.091186     9A1     0.166793     5B1     0.191686  
      10A1     0.191686     5B2     0.191686     1A2     0.202340  
      11A1     0.202340    12A1     0.293369     6B2     0.358831  
       6B1     0.358831    13A1     0.358831     7B1     0.385656  
      14A1     0.385656     7B2     0.385656     8B2     0.445553  
       2A2     0.445553     8B1     0.445553     3A2     0.504408  
      15A1     0.504408     9B1     0.581652     9B2     0.581652  
      16A1     0.581652    17A1     0.614471    10B1     0.652978  
      18A1     0.652978    10B2     0.652978    19A1     0.746173  
       4A2     0.820708    20A1     0.820708    11B2     0.975059  
      11B1     0.975059    21A1     0.975059    22A1     1.091083  
      12B2     1.360628    23A1     1.360628    12B1     1.360628  
      13B2     1.787868     5A2     1.787868    13B1     1.787868  
      14B1     1.996402    24A1     1.996402    14B2     1.996402  
       6A2     2.141364    25A1     2.141364    26A1     2.164840  
      15B2     2.301081    27A1     2.301081    15B1     2.301081  
       7A2     3.422581    28A1     3.422581    29A1     3.468482  
      16B1     3.468482    16B2     3.468482  

    Final Occupation by Irrep:
             A1    A2    B1    B2 
    DOCC [     5,    0,    2,    2 ]

  Energy converged.

  @RHF Final Energy:  -291.25028111419630

   => Energetics <=

    Nuclear Repulsion Energy =             21.4082731814827874
    One-Electron Energy =                -445.7193270577596991
    Two-Electron Energy =                 133.0607727620806031
    PCM Polarization Energy =               0.0000000000000000
    Total Energy =                       -291.2502811141962979

    Alert: EFP and PCM quantities not currently incorporated into SCF psivars.

Properties will be evaluated at   0.000000,   0.000000,   0.000000 Bohr

Properties computed using the SCF density matrix

  Nuclear Dipole Moment: (a.u.)
     X:     0.0000      Y:     0.0000      Z:     0.0000

  Electronic Dipole Moment: (a.u.)
     X:     0.0000      Y:     0.0000      Z:    -0.0000

  Dipole Moment: (a.u.)
     X:     0.0000      Y:     0.0000      Z:    -0.0000     Total:     0.0000

  Dipole Moment: (Debye)
     X:     0.0000      Y:     0.0000      Z:    -0.0000     Total:     0.0000


*** tstop() called on cqc01 at Fri Apr 26 15:47:06 2019
Module time:
	user time   =       1.01 seconds =       0.02 minutes
	system time =       0.91 seconds =       0.02 minutes
	total time  =          2 seconds =       0.03 minutes
Total time:
	user time   =       1.01 seconds =       0.02 minutes
	system time =       0.91 seconds =       0.02 minutes
	total time  =          2 seconds =       0.03 minutes

*** tstart() called on cqc01
*** at Fri Apr 26 15:47:06 2019


	Wfn Parameters:
	--------------------
	Wavefunction         = CCSD
	Number of irreps     = 4
	Number of MOs        = 68
	Number of active MOs = 63
	AO-Basis             = NONE
	Semicanonical        = false
	Reference            = RHF
	Print Level          = 1

	IRREP	# MOs	# FZDC	# DOCC	# SOCC	# VIRT	# FZVR
	-----	-----	------	------	------	------	------
	 A1	   29	    3	    2	    0	    24	    0
	 A2	   7	    0	    0	    0	    7	    0
	 B1	   16	    1	    1	    0	    14	    0
	 B2	   16	    1	    1	    0	    14	    0
	Transforming integrals...
	IWL integrals will be deleted.
	(OO|OO)...
	Presorting SO-basis two-electron integrals.
	Sorting File: SO Ints (nn|nn) nbuckets = 1
	Transforming the one-electron integrals and constructing Fock matrices
	Starting first half-transformation.
	Sorting half-transformed integrals.
	First half integral transformation complete.
	Starting second half-transformation.
	Two-electron integral transformation complete.
	(OO|OV)...
	Starting second half-transformation.
	Two-electron integral transformation complete.
	(OO|VV)...
	Starting second half-transformation.
	Two-electron integral transformation complete.
	(OV|OO)...
	Starting first half-transformation.
	Sorting half-transformed integrals.
	First half integral transformation complete.
	Starting second half-transformation.
	Two-electron integral transformation complete.
	(OV|OV)...
	Starting second half-transformation.
	Two-electron integral transformation complete.
	(OV|VV)...
	Starting second half-transformation.
	Two-electron integral transformation complete.
	(VV|OO)...
	Starting first half-transformation.
	Sorting half-transformed integrals.
	First half integral transformation complete.
	Starting second half-transformation.
	Two-electron integral transformation complete.
	(VV|OV)...
	Starting second half-transformation.
	Two-electron integral transformation complete.
	(VV|VV)...
	Starting second half-transformation.
	Two-electron integral transformation complete.
	Frozen core energy     =   -299.52042781798275

	Size of irrep 0 of <ab|cd> integrals:      1.034 (MW) /      8.274 (MB)
	Size of irrep 1 of <ab|cd> integrals:      0.530 (MW) /      4.240 (MB)
	Size of irrep 2 of <ab|cd> integrals:      0.753 (MW) /      6.027 (MB)
	Size of irrep 3 of <ab|cd> integrals:      0.753 (MW) /      6.027 (MB)
	Total:                                     3.071 (MW) /     24.569 (MB)

	Size of irrep 0 of <ia|bc> integrals:      0.077 (MW) /      0.618 (MB)
	Size of irrep 1 of <ia|bc> integrals:      0.031 (MW) /      0.245 (MB)
	Size of irrep 2 of <ia|bc> integrals:      0.051 (MW) /      0.410 (MB)
	Size of irrep 3 of <ia|bc> integrals:      0.051 (MW) /      0.410 (MB)
	Total:                                     0.210 (MW) /      1.682 (MB)

	Size of irrep 0 of tijab amplitudes:       0.006 (MW) /      0.049 (MB)
	Size of irrep 1 of tijab amplitudes:       0.001 (MW) /      0.012 (MB)
	Size of irrep 2 of tijab amplitudes:       0.003 (MW) /      0.028 (MB)
	Size of irrep 3 of tijab amplitudes:       0.003 (MW) /      0.028 (MB)
	Total:                                     0.015 (MW) /      0.116 (MB)

	Nuclear Rep. energy          =     21.40827318148279
	SCF energy                   =   -291.25028111419630
	One-electron energy          =    -21.89357840287102
	Two-electron energy          =      8.75545192517510
	Reference energy             =   -291.25028111419590

*** tstop() called on cqc01 at Fri Apr 26 15:47:09 2019
Module time:
	user time   =       0.24 seconds =       0.00 minutes
	system time =       0.11 seconds =       0.00 minutes
	total time  =          3 seconds =       0.05 minutes
Total time:
	user time   =       1.26 seconds =       0.02 minutes
	system time =       1.02 seconds =       0.02 minutes
	total time  =          5 seconds =       0.08 minutes

*** tstart() called on cqc01
*** at Fri Apr 26 15:47:09 2019

            **************************
            *                        *
            *        CCENERGY        *
            *                        *
            **************************

    Nuclear Rep. energy (wfn)     =   21.408273181482787
    SCF energy          (wfn)     = -291.250281114196298
    Reference energy    (file100) = -291.250281114195900

    Input parameters:
    -----------------
    Wave function   =     CCSD
    Reference wfn   =     RHF
    Brueckner       =     No
    Memory (Mbytes) =     32000.0
    Maxiter         =     50
    R_Convergence   =     1.0e-07
    E_Convergence   =     1.0e-06
    Restart         =     Yes
    DIIS            =     Yes
    AO Basis        =     NONE
    ABCD            =     NEW
    Cache Level     =     2
    Cache Type      =     LOW
    Print Level     =     1
    Num. of threads =     1
    # Amps to Print =     10
    Print MP2 Amps? =     No
    Analyze T2 Amps =     No
    Print Pair Ener =     No
    Local CC        =     No
    SCS-MP2         =     False
    SCSN-MP2        =     False
    SCS-CCSD        =     False

MP2 correlation energy -0.1214669446762603
                Solving CC Amplitude Equations
                ------------------------------
  Iter             Energy              RMS        T1Diag      D1Diag    New D1Diag    D2Diag
  ----     ---------------------    ---------   ----------  ----------  ----------   --------
     0        -0.121466944676260    0.000e+00    0.000000    0.000000    0.000000    0.110825
     1        -0.172380949237228    1.274e-01    0.011212    0.017413    0.017413    0.162952
     2        -0.154353172287604    2.862e-02    0.010315    0.016212    0.016212    0.147000
     3        -0.153571173174870    3.781e-03    0.010412    0.016416    0.016416    0.145833
     4        -0.153402875764869    1.074e-03    0.010450    0.016488    0.016488    0.145536
     5        -0.153326491752550    3.042e-04    0.010495    0.016568    0.016568    0.145417
     6        -0.153337614552124    7.642e-05    0.010514    0.016601    0.016601    0.145423
     7        -0.153342385687616    2.688e-05    0.010522    0.016615    0.016615    0.145429
     8        -0.153341944696027    8.667e-06    0.010526    0.016621    0.016621    0.145430
     9        -0.153342264837428    1.961e-06    0.010526    0.016622    0.016622    0.145431
    10        -0.153342300636716    4.528e-07    0.010526    0.016622    0.016622    0.145431
    11        -0.153342316442634    1.155e-07    0.010526    0.016622    0.016622    0.145431
    12        -0.153342316363078    2.293e-08    0.010526    0.016622    0.016622    0.145431
    12        -0.153342316363078    2.293e-08    0.010526    0.016622    0.016622    0.145431

    Iterations converged.


    CCSD corr. energy   =   -0.153342316363078
    PPL corr. energy    =    0.042229308761576
    OS PPL corr. energy =    0.039578857573943
    SS PPL corr. energy =    0.002650451187633
    Largest TIA Amplitudes:
              1   4         0.0129514749
              3  47         0.0129514612
              2  33         0.0129514599
              1   1         0.0057329410
              2  31         0.0057329284
              3  45         0.0057329282
              0   6         0.0055471066
              3  52        -0.0049761927
              1  12        -0.0049761927
              2  38        -0.0049761920

    Largest TIjAb Amplitudes:
      3   3  47  47        -0.0352062423
      2   2  33  33        -0.0352062417
      3   3   4   4        -0.0275307654
      1   1  47  47        -0.0275307617
      1   1  33  33        -0.0275307610
      2   2   4   4        -0.0275307596
      2   2   6   6        -0.0265837606
      3   3   6   6        -0.0265837603
      1   1   6   6        -0.0265837594
      1   1   5   5        -0.0210109439

    SCF energy       (wfn)                    = -291.250281114196298
    Reference energy (file100)                = -291.250281114195900

    Opposite-spin MP2 correlation energy      =   -0.108880507325357
    Same-spin MP2 correlation energy          =   -0.012586437350902
    MP2 correlation energy                    =   -0.121466944676260
      * MP2 total energy                      = -291.371748058872186

    Opposite-spin CCSD correlation energy     =   -0.138848717870015
    Same-spin CCSD correlation energy         =   -0.014493598707096
    CCSD correlation energy                   =   -0.153342316363078
      * CCSD total energy                     = -291.403623430558980


*** tstop() called on cqc01 at Fri Apr 26 15:48:08 2019
Module time:
	user time   =       0.88 seconds =       0.01 minutes
	system time =       2.58 seconds =       0.04 minutes
	total time  =         59 seconds =       0.98 minutes
Total time:
	user time   =       2.14 seconds =       0.04 minutes
	system time =       3.60 seconds =       0.06 minutes
	total time  =         64 seconds =       1.07 minutes

*** Psi4 exiting successfully. Buy a developer a beer!
