
    -----------------------------------------------------------------------
          Psi4: An Open-Source Ab Initio Electronic Structure Package
                               Psi4 1.2a1.dev939 

                         Git: Rev {HEAD} fa1ec19 dirty


    R. M. Parrish, L. A. Burns, D. G. A. Smith, A. C. Simmonett,
    A. E. DePrince III, E. G. Hohenstein, U. Bozkaya, A. Yu. Sokolov,
    R. Di Remigio, R. M. Richard, J. F. Gonthier, A. M. James,
    H. R. McAlexander, A. Kumar, M. Saitow, X. Wang, B. P. Pritchard,
    P. Verma, H. F. Schaefer III, K. Patkowski, R. A. King, E. F. Valeev,
    F. A. Evangelista, J. M. Turney, T. D. Crawford, and C. D. Sherrill,
    J. Chem. Theory Comput. 13(7) pp 3185--3197 (2017).
    (doi: 10.1021/acs.jctc.7b00174)

    -----------------------------------------------------------------------


    Psi4 started on: Monday, 10 August 2020 03:51PM

    Process ID: 429779
    PSIDATADIR: /home/fs71337/airmler/src/psi4new/build/stage/usr/local/psi4/share/psi4
    Memory:     500.0 MiB
    Threads:    48
    
  ==> Input File <==

--------------------------------------------------------------------------
# Any line starting with the # character is a comment line
memory 250000 mb
molecule molecule{
-1 1
F          0.0000000000        0.0000000000        0.0000000000

}

set {
  reference rhf
  basis aug-cc-pv(6+d)z
  scf_type OUT_OF_CORE
  freeze_core true
}

energy('ccsd')
--------------------------------------------------------------------------

  Memory set to 232.831 GiB by Python driver.

*** tstart() called on n411-070.vsc4.prov
*** at Mon Aug 10 15:51:50 2020

   => Loading Basis Set <=

    Name: AUG-CC-PV(6+D)Z
    Role: ORBITAL
    Keyword: BASIS
    atoms 1 entry F          line   555 file /home/fs71337/airmler/src/psi4new/build/stage/usr/local/psi4/share/psi4/basis/aug-cc-pv_6pd_z.gbs 


         ---------------------------------------------------------
                                   SCF
            by Justin Turney, Rob Parrish, Andy Simmonett
                             and Daniel Smith
                              RHF Reference
                       48 Threads, 238418 MiB Core
         ---------------------------------------------------------

  ==> Geometry <==

    Molecular point group: d2h
    Geometry (in Angstrom), charge = -1, multiplicity = 1:

       Center              X                  Y                   Z               Mass       
    ------------   -----------------  -----------------  -----------------  -----------------
           F          0.000000000000     0.000000000000     0.000000000000    18.998403224000

  Running in d2h symmetry.

  Rotational constants: A = ************  B = ************  C = ************ [cm^-1]
  Rotational constants: A = ************  B = ************  C = ************ [MHz]
  Nuclear repulsion =    0.000000000000000

  Charge       = -1
  Multiplicity = 1
  Electrons    = 10
  Nalpha       = 5
  Nbeta        = 5

  ==> Algorithm <==

  SCF Algorithm Type is OUT_OF_CORE.
  DIIS enabled.
  MOM disabled.
  Fractional occupation disabled.
  Guess Type is CORE.
  Energy threshold   = 1.00e-08
  Density threshold  = 1.00e-08
  Integral threshold = 0.00e+00

  ==> Primary Basis <==

  Basis Set: AUG-CC-PV(6+D)Z
    Blend: AUG-CC-PV(6+D)Z
    Number of shells: 35
    Number of basis function: 189
    Number of Cartesian functions: 294
    Spherical Harmonics?: true
    Max angular momentum: 6

  ==> Pre-Iterations <==

   -------------------------------------------------------
    Irrep   Nso     Nmo     Nalpha   Nbeta   Ndocc  Nsocc
   -------------------------------------------------------
     Ag        40      40       0       0       0       0
     B1g       20      20       0       0       0       0
     B2g       20      20       0       0       0       0
     B3g       20      20       0       0       0       0
     Au        11      11       0       0       0       0
     B1u       26      26       0       0       0       0
     B2u       26      26       0       0       0       0
     B3u       26      26       0       0       0       0
   -------------------------------------------------------
    Total     189     189       5       5       5       0
   -------------------------------------------------------

  ==> Integral Setup <==

  ==> DiskJK: Disk-Based J/K Matrices <==

    J tasked:                  Yes
    K tasked:                  Yes
    wK tasked:                  No
    Memory (MB):            178813
    Schwarz Cutoff:          1E-12

  Minimum eigenvalue in the overlap matrix is 6.3548632906E-04.
  Using Symmetric Orthogonalization.

  SCF Guess: Core (One-Electron) Hamiltonian.

  ==> Iterations <==

                        Total Energy        Delta E     RMS |[F,P]|

   @RHF iter   1:   -83.07719184687339   -8.30772e+01   3.85253e-01 
   @RHF iter   2:   -81.83565003378641    1.24154e+00   8.82912e-02 DIIS
   @RHF iter   3:   -94.30073716181974   -1.24651e+01   1.74610e-01 DIIS
   @RHF iter   4:   -96.65644814550333   -2.35571e+00   1.22284e-01 DIIS
   @RHF iter   5:   -98.82491409744668   -2.16847e+00   5.19056e-02 DIIS
   @RHF iter   6:   -99.45357514689567   -6.28661e-01   2.50484e-03 DIIS
   @RHF iter   7:   -99.45913712540838   -5.56198e-03   1.07725e-03 DIIS
   @RHF iter   8:   -99.45942730979341   -2.90184e-04   6.16562e-05 DIIS
   @RHF iter   9:   -99.45943014316315   -2.83337e-06   6.70526e-06 DIIS
   @RHF iter  10:   -99.45943018710521   -4.39421e-08   2.06968e-06 DIIS
   @RHF iter  11:   -99.45943018797355   -8.68340e-10   3.92230e-08 DIIS
   @RHF iter  12:   -99.45943018797527   -1.71951e-12   2.45067e-08 DIIS
   @RHF iter  13:   -99.45943018797539   -1.13687e-13   1.10688e-09 DIIS

  ==> Post-Iterations <==

    Orbital Energies (a.u.)
    -----------------------

    Doubly Occupied:                                                      

       1Ag   -25.829613     2Ag    -1.074581     1B2u   -0.180980  
       1B1u   -0.180980     1B3u   -0.180980  

    Virtual:                                                              

       2B1u    0.290903     2B2u    0.290903     2B3u    0.290903  
       3Ag     0.375381     4Ag     0.727096     1B1g    0.727096  
       1B3g    0.727096     5Ag     0.727096     1B2g    0.727096  
       3B3u    0.737202     3B1u    0.737202     3B2u    0.737202  
       6Ag     1.076281     1Au     1.409844     4B2u    1.409844  
       4B1u    1.409844     4B3u    1.409844     5B2u    1.409844  
       5B3u    1.409844     5B1u    1.409844     7Ag     1.755512  
       8Ag     1.755512     2B1g    1.755512     2B3g    1.755512  
       2B2g    1.755512     6B3u    1.771677     6B2u    1.771677  
       6B1u    1.771677     9Ag     2.969032    10Ag     2.969032  
       3B1g    2.969032     3B3g    2.969032     3B2g    2.969032  
       4B1g    2.969032    11Ag     2.969032     4B3g    2.969032  
       4B2g    2.969032    12Ag     3.060161     7B3u    3.510149  
       7B2u    3.510149     7B1u    3.510149     8B3u    3.510149  
       8B2u    3.510149     8B1u    3.510149     2Au     3.510149  
      13Ag     3.786081    14Ag     3.786081     5B1g    3.786081  
       5B2g    3.786081     5B3g    3.786081     9B3u    4.190387  
       9B2u    4.190387     9B1u    4.190387    10B3u    6.210747  
      10B2u    6.210747    10B1u    6.210747    11B2u    6.210747  
      11B3u    6.210747    11B1u    6.210747     3Au     6.210747  
      12B1u    6.210747     4Au     6.210747    12B3u    6.210747  
      12B2u    6.210747    15Ag     7.289988     6B3g    7.289988  
       6B1g    7.289988     6B2g    7.289988    16Ag     7.289988  
       7B3g    7.289988    17Ag     7.289988     7B1g    7.289988  
       7B2g    7.289988    13B2u    7.790303    13B3u    7.790303  
      13B1u    7.790303     5Au     7.790303    14B3u    7.790303  
      14B1u    7.790303    14B2u    7.790303     8B3g    8.212362  
       8B2g    8.212362    18Ag     8.212362     8B1g    8.212362  
      19Ag     8.212362    20Ag     8.524127    15B3u   10.030240  
      15B2u   10.030240    15B1u   10.030240    21Ag    12.549267  
       9B2g   12.549267     9B1g   12.549267    22Ag    12.549267  
       9B3g   12.549267    10B2g   12.549267    10B1g   12.549267  
      10B3g   12.549267    23Ag    12.549267    11B2g   12.549267  
      11B1g   12.549267    24Ag    12.549267    11B3g   12.549267  
      16B3u   14.465515    16B2u   14.465515    17B3u   14.465515  
      16B1u   14.465515    17B2u   14.465515     6Au    14.465515  
      18B3u   14.465515    17B1u   14.465515     7Au    14.465515  
      18B2u   14.465515    18B1u   14.465515    25Ag    16.904439  
      12B2g   16.904439    12B1g   16.904439    13B1g   16.904439  
      12B3g   16.904439    26Ag    16.904439    13B3g   16.904439  
      13B2g   16.904439    27Ag    16.904439    19B3u   17.200462  
      19B2u   17.200462     8Au    17.200462    19B1u   17.200462  
      20B3u   17.200462    20B1u   17.200462    20B2u   17.200462  
      14B3g   18.675752    14B2g   18.675752    28Ag    18.675752  
      14B1g   18.675752    29Ag    18.675752    30Ag    25.616277  
      21B3u   28.344192    21B2u   28.344192    21B1u   28.344192  
      31Ag    29.796052    15B1g   29.796052    15B3g   29.796052  
      32Ag    29.796052    16B1g   29.796052    16B3g   29.796052  
      15B2g   29.796052    16B2g   29.796052    17B1g   29.796052  
      33Ag    29.796052    17B3g   29.796052    34Ag    29.796052  
      17B2g   29.796052    22B1u   35.466536    22B2u   35.466536  
      22B3u   35.466536    23B3u   35.466536    23B2u   35.466536  
      23B1u   35.466536    24B2u   35.466536    24B3u   35.466536  
      24B1u   35.466536     9Au    35.466536    10Au    35.466536  
      25B2u   39.701658    25B3u   39.701658    25B1u   39.701658  
      26B3u   39.701658    11Au    39.701658    26B1u   39.701658  
      26B2u   39.701658    35Ag    40.737649    18B1g   40.737649  
      18B2g   40.737649    18B3g   40.737649    36Ag    40.737649  
      19B1g   40.737649    37Ag    40.737649    19B3g   40.737649  
      19B2g   40.737649    38Ag    44.473107    20B1g   44.473107  
      20B3g   44.473107    20B2g   44.473107    39Ag    44.473107  
      40Ag   127.694950  

    Final Occupation by Irrep:
             Ag   B1g   B2g   B3g    Au   B1u   B2u   B3u 
    DOCC [     2,    0,    0,    0,    0,    1,    1,    1 ]

  Energy converged.

  @RHF Final Energy:   -99.45943018797539

   => Energetics <=

    Nuclear Repulsion Energy =              0.0000000000000000
    One-Electron Energy =                -144.0245921999430152
    Two-Electron Energy =                  44.5651620119676366
    Total Energy =                        -99.4594301879753857



Properties will be evaluated at   0.000000,   0.000000,   0.000000 Bohr

Properties computed using the SCF density matrix

  Nuclear Dipole Moment: (a.u.)
     X:     0.0000      Y:     0.0000      Z:     0.0000

  Electronic Dipole Moment: (a.u.)
     X:     0.0000      Y:     0.0000      Z:     0.0000

  Dipole Moment: (a.u.)
     X:     0.0000      Y:     0.0000      Z:     0.0000     Total:     0.0000

  Dipole Moment: (Debye)
     X:     0.0000      Y:     0.0000      Z:     0.0000     Total:     0.0000


*** tstop() called on n411-070.vsc4.prov at Mon Aug 10 15:52:50 2020
Module time:
	user time   =     265.42 seconds =       4.42 minutes
	system time =       5.11 seconds =       0.09 minutes
	total time  =         60 seconds =       1.00 minutes
Total time:
	user time   =     265.42 seconds =       4.42 minutes
	system time =       5.11 seconds =       0.09 minutes
	total time  =         60 seconds =       1.00 minutes

*** tstart() called on n411-070.vsc4.prov
*** at Mon Aug 10 15:52:50 2020


	Wfn Parameters:
	--------------------
	Wavefunction         = CCSD
	Number of irreps     = 8
	Number of MOs        = 189
	Number of active MOs = 188
	AO-Basis             = NONE
	Semicanonical        = false
	Reference            = RHF
	Print Level          = 1

	IRREP	# MOs	# FZDC	# DOCC	# SOCC	# VIRT	# FZVR
	-----	-----	------	------	------	------	------
	 Ag	   40	    1	    1	    0	    38	    0
	 B1g	   20	    0	    0	    0	    20	    0
	 B2g	   20	    0	    0	    0	    20	    0
	 B3g	   20	    0	    0	    0	    20	    0
	 Au	   11	    0	    0	    0	    11	    0
	 B1u	   26	    0	    1	    0	    25	    0
	 B2u	   26	    0	    1	    0	    25	    0
	 B3u	   26	    0	    1	    0	    25	    0
	Transforming integrals...
	IWL integrals will be deleted.
	(OO|OO)...
	Presorting SO-basis two-electron integrals.
	Sorting File: SO Ints (nn|nn) nbuckets = 1
	Transforming the one-electron integrals and constructing Fock matrices
	Starting first half-transformation.
	Sorting half-transformed integrals.
	First half integral transformation complete.
	Starting second half-transformation.
	Two-electron integral transformation complete.
	(OO|OV)...
	Starting second half-transformation.
	Two-electron integral transformation complete.
	(OO|VV)...
	Starting second half-transformation.
	Two-electron integral transformation complete.
	(OV|OO)...
	Starting first half-transformation.
	Sorting half-transformed integrals.
	First half integral transformation complete.
	Starting second half-transformation.
	Two-electron integral transformation complete.
	(OV|OV)...
	Starting second half-transformation.
	Two-electron integral transformation complete.
	(OV|VV)...
	Starting second half-transformation.
	Two-electron integral transformation complete.
	(VV|OO)...
	Starting first half-transformation.
	Sorting half-transformed integrals.
	First half integral transformation complete.
	Starting second half-transformation.
	Two-electron integral transformation complete.
	(VV|OV)...
	Starting second half-transformation.
	Two-electron integral transformation complete.
	(VV|VV)...
	Starting second half-transformation.
	Two-electron integral transformation complete.
	Frozen core energy     =    -75.47960551118369

	Size of irrep 0 of <ab|cd> integrals:     21.530 (MW) /    172.237 (MB)
	Size of irrep 1 of <ab|cd> integrals:     16.974 (MW) /    135.795 (MB)
	Size of irrep 2 of <ab|cd> integrals:     16.974 (MW) /    135.795 (MB)
	Size of irrep 3 of <ab|cd> integrals:     16.974 (MW) /    135.795 (MB)
	Size of irrep 4 of <ab|cd> integrals:     14.715 (MW) /    117.719 (MB)
	Size of irrep 5 of <ab|cd> integrals:     18.836 (MW) /    150.685 (MB)
	Size of irrep 6 of <ab|cd> integrals:     18.836 (MW) /    150.685 (MB)
	Size of irrep 7 of <ab|cd> integrals:     18.836 (MW) /    150.685 (MB)
	Total:                                   143.674 (MW) /   1149.396 (MB)

	Size of irrep 0 of <ia|bc> integrals:      0.524 (MW) /      4.195 (MB)
	Size of irrep 1 of <ia|bc> integrals:      0.334 (MW) /      2.670 (MB)
	Size of irrep 2 of <ia|bc> integrals:      0.334 (MW) /      2.670 (MB)
	Size of irrep 3 of <ia|bc> integrals:      0.334 (MW) /      2.670 (MB)
	Size of irrep 4 of <ia|bc> integrals:      0.272 (MW) /      2.179 (MB)
	Size of irrep 5 of <ia|bc> integrals:      0.447 (MW) /      3.576 (MB)
	Size of irrep 6 of <ia|bc> integrals:      0.447 (MW) /      3.576 (MB)
	Size of irrep 7 of <ia|bc> integrals:      0.447 (MW) /      3.576 (MB)
	Total:                                     3.139 (MW) /     25.111 (MB)

	Size of irrep 0 of tijab amplitudes:       0.019 (MW) /      0.148 (MB)
	Size of irrep 1 of tijab amplitudes:       0.008 (MW) /      0.066 (MB)
	Size of irrep 2 of tijab amplitudes:       0.008 (MW) /      0.066 (MB)
	Size of irrep 3 of tijab amplitudes:       0.008 (MW) /      0.066 (MB)
	Size of irrep 4 of tijab amplitudes:       0.000 (MW) /      0.000 (MB)
	Size of irrep 5 of tijab amplitudes:       0.009 (MW) /      0.069 (MB)
	Size of irrep 6 of tijab amplitudes:       0.009 (MW) /      0.069 (MB)
	Size of irrep 7 of tijab amplitudes:       0.009 (MW) /      0.069 (MB)
	Total:                                     0.069 (MW) /      0.555 (MB)

	Nuclear Rep. energy          =      0.00000000000000
	SCF energy                   =    -99.45943018797539
	One-electron energy          =    -44.72460775019735
	Two-electron energy          =     20.74478307340565
	Reference energy             =    -99.45943018797539

*** tstop() called on n411-070.vsc4.prov at Mon Aug 10 15:53:01 2020
Module time:
	user time   =      33.85 seconds =       0.56 minutes
	system time =       3.28 seconds =       0.05 minutes
	total time  =         11 seconds =       0.18 minutes
Total time:
	user time   =     299.28 seconds =       4.99 minutes
	system time =       8.39 seconds =       0.14 minutes
	total time  =         71 seconds =       1.18 minutes

*** tstart() called on n411-070.vsc4.prov
*** at Mon Aug 10 15:53:01 2020

            **************************
            *                        *
            *        CCENERGY        *
            *                        *
            **************************

    Nuclear Rep. energy (wfn)     =    0.000000000000000
    SCF energy          (wfn)     =  -99.459430187975386
    Reference energy    (file100) =  -99.459430187975386

    Input parameters:
    -----------------
    Wave function   =     CCSD
    Reference wfn   =     RHF
    Brueckner       =     No
    Memory (Mbytes) =     250000.0
    Maxiter         =     50
    R_Convergence   =     1.0e-07
    E_Convergence   =     1.0e-06
    Restart         =     Yes
    DIIS            =     Yes
    AO Basis        =     NONE
    ABCD            =     NEW
    Cache Level     =     2
    Cache Type      =     LOW
    Print Level     =     1
    Num. of threads =     48
    # Amps to Print =     10
    Print MP2 Amps? =     No
    Analyze T2 Amps =     No
    Print Pair Ener =     No
    Local CC        =     No
    SCS-MP2         =     False
    SCSN-MP2        =     False
    SCS-CCSD        =     False

MP2 correlation energy -0.3305408055710913
                Solving CC Amplitude Equations
                ------------------------------
  Iter             Energy              RMS        T1Diag      D1Diag    New D1Diag    D2Diag
  ----     ---------------------    ---------   ----------  ----------  ----------   --------
     0        -0.330540805571091    0.000e+00    0.000000    0.000000    0.000000    0.118825
     1        -0.311765896851485    2.615e-01    0.038059    0.061797    0.061797    0.113323
     2        -0.323613470731674    1.004e-01    0.017770    0.028574    0.028574    0.123088
     3        -0.320248600761099    3.248e-02    0.020732    0.033558    0.033558    0.118960
     4        -0.318710967945612    4.662e-03    0.020202    0.032716    0.032716    0.117733
     5        -0.318553101594425    1.763e-03    0.019739    0.031971    0.031971    0.117460
     6        -0.318646774281240    4.515e-04    0.019631    0.031797    0.031797    0.117434
     7        -0.318643797057552    1.719e-04    0.019590    0.031730    0.031730    0.117409
     8        -0.318633217261363    7.056e-05    0.019563    0.031685    0.031685    0.117394
     9        -0.318636162151821    3.107e-05    0.019555    0.031672    0.031672    0.117396
    10        -0.318636224928073    1.047e-05    0.019551    0.031665    0.031665    0.117396
    11        -0.318635918455050    1.666e-06    0.019550    0.031664    0.031664    0.117396
    12        -0.318635980019164    4.812e-07    0.019550    0.031664    0.031664    0.117396
    13        -0.318636000798798    7.430e-08    0.019550    0.031664    0.031664    0.117396
    13        -0.318636000798798    7.430e-08    0.019550    0.031664    0.031664    0.117396

    Iterations converged.


    CCSD corr. energy   =   -0.318636000798798
    PPL corr. energy    =    0.061900000585849
    OS PPL corr. energy =    0.050915024606562
    SS PPL corr. energy =    0.010984975979286
    Largest TIA Amplitudes:
              1 109        -0.0270232374
              2 134        -0.0270232374
              3 159        -0.0270232374
              1 110        -0.0149817098
              2 135        -0.0149817098
              3 160        -0.0149817098
              1 116         0.0059364655
              2 141         0.0059364655
              3 166         0.0059364655
              0   0        -0.0055559079

    Largest TIjAb Amplitudes:
      1   1 110 110        -0.0358270082
      2   2 135 135        -0.0358270082
      3   3 160 160        -0.0358270082
      1   1 113 113        -0.0293236260
      2   2 138 138        -0.0293236260
      3   3 163 163        -0.0293236260
      1   1 110 113        -0.0275184303
      1   1 113 110        -0.0275184303
      2   2 135 138        -0.0275184303
      2   2 138 135        -0.0275184303

    SCF energy       (wfn)                    =  -99.459430187975386
    Reference energy (file100)                =  -99.459430187975386

    Opposite-spin MP2 correlation energy      =   -0.248235197180626
    Same-spin MP2 correlation energy          =   -0.082305608390465
    MP2 correlation energy                    =   -0.330540805571091
      * MP2 total energy                      =  -99.789970993546476

    Opposite-spin CCSD correlation energy     =   -0.247856504608696
    Same-spin CCSD correlation energy         =   -0.070779496159484
    CCSD correlation energy                   =   -0.318636000798798
      * CCSD total energy                     =  -99.778066188774190


*** tstop() called on n411-070.vsc4.prov at Mon Aug 10 15:53:06 2020
Module time:
	user time   =     236.34 seconds =       3.94 minutes
	system time =       4.90 seconds =       0.08 minutes
	total time  =          5 seconds =       0.08 minutes
Total time:
	user time   =     535.62 seconds =       8.93 minutes
	system time =      13.29 seconds =       0.22 minutes
	total time  =         76 seconds =       1.27 minutes

*** Psi4 exiting successfully. Buy a developer a beer!
