
    -----------------------------------------------------------------------
          Psi4: An Open-Source Ab Initio Electronic Structure Package
                               Psi4 1.2a1.dev939 

                         Git: Rev {HEAD} fa1ec19 


    R. M. Parrish, L. A. Burns, D. G. A. Smith, A. C. Simmonett,
    A. E. DePrince III, E. G. Hohenstein, U. Bozkaya, A. Yu. Sokolov,
    R. Di Remigio, R. M. Richard, J. F. Gonthier, A. M. James,
    H. R. McAlexander, A. Kumar, M. Saitow, X. Wang, B. P. Pritchard,
    P. Verma, H. F. Schaefer III, K. Patkowski, R. A. King, E. F. Valeev,
    F. A. Evangelista, J. M. Turney, T. D. Crawford, and C. D. Sherrill,
    J. Chem. Theory Comput. 13(7) pp 3185--3197 (2017).
    (doi: 10.1021/acs.jctc.7b00174)

    -----------------------------------------------------------------------


    Psi4 started on: Monday, 29 April 2019 06:18PM

    Process ID:  18249
    PSIDATADIR: /home/grueneis/src/psi4/objdir/stage/usr/local/psi4/share/psi4
    Memory:     500.0 MiB
    Threads:    1
    
  ==> Input File <==

--------------------------------------------------------------------------
# Any line starting with the # character is a comment line

memory 32000 mb

molecule molecule {
-1 1
F          0.0000000000        0.0000000000        0.0000000000
}

set {
  reference rhf
  basis aug-cc-pv(Q+d)z
  scf_type OUT_OF_CORE
  freeze_core true
}

energy('ccsd')
--------------------------------------------------------------------------

  Memory set to  29.802 GiB by Python driver.

*** tstart() called on cqc01
*** at Mon Apr 29 18:18:10 2019

   => Loading Basis Set <=

    Name: AUG-CC-PV(Q+D)Z
    Role: ORBITAL
    Keyword: BASIS
    atoms 1 entry F          line   499 file /home/grueneis/src/psi4/objdir/stage/usr/local/psi4/share/psi4/basis/aug-cc-pv_qpd_z.gbs 


         ---------------------------------------------------------
                                   SCF
            by Justin Turney, Rob Parrish, Andy Simmonett
                             and Daniel Smith
                              RHF Reference
                        1 Threads,  30517 MiB Core
         ---------------------------------------------------------

  ==> Geometry <==

    Molecular point group: d2h
    Geometry (in Angstrom), charge = -1, multiplicity = 1:

       Center              X                  Y                   Z               Mass       
    ------------   -----------------  -----------------  -----------------  -----------------
           F          0.000000000000     0.000000000000     0.000000000000    18.998403224000

  Running in d2h symmetry.

  Rotational constants: A = ************  B = ************  C = ************ [cm^-1]
  Rotational constants: A = ************  B = ************  C = ************ [MHz]
  Nuclear repulsion =    0.000000000000000

  Charge       = -1
  Multiplicity = 1
  Electrons    = 10
  Nalpha       = 5
  Nbeta        = 5

  ==> Algorithm <==

  SCF Algorithm Type is OUT_OF_CORE.
  DIIS enabled.
  MOM disabled.
  Fractional occupation disabled.
  Guess Type is CORE.
  Energy threshold   = 1.00e-08
  Density threshold  = 1.00e-08
  Integral threshold = 0.00e+00

  ==> Primary Basis <==

  Basis Set: AUG-CC-PV(Q+D)Z
    Blend: AUG-CC-PV(Q+D)Z
    Number of shells: 20
    Number of basis function: 80
    Number of Cartesian functions: 105
    Spherical Harmonics?: true
    Max angular momentum: 4

  ==> Pre-Iterations <==

   -------------------------------------------------------
    Irrep   Nso     Nmo     Nalpha   Nbeta   Ndocc  Nsocc
   -------------------------------------------------------
     Ag        20      20       0       0       0       0
     B1g        8       8       0       0       0       0
     B2g        8       8       0       0       0       0
     B3g        8       8       0       0       0       0
     Au         3       3       0       0       0       0
     B1u       11      11       0       0       0       0
     B2u       11      11       0       0       0       0
     B3u       11      11       0       0       0       0
   -------------------------------------------------------
    Total      80      80       5       5       5       0
   -------------------------------------------------------

  ==> Integral Setup <==

  ==> DiskJK: Disk-Based J/K Matrices <==

    J tasked:                  Yes
    K tasked:                  Yes
    wK tasked:                  No
    Memory (MB):             22888
    Schwarz Cutoff:          1E-12

  Minimum eigenvalue in the overlap matrix is 3.4045524217E-03.
  Using Symmetric Orthogonalization.

  SCF Guess: Core (One-Electron) Hamiltonian.

  ==> Iterations <==

                        Total Energy        Delta E     RMS |[F,P]|

   @RHF iter   1:   -83.43194112530834   -8.34319e+01   3.66160e-01 
   @RHF iter   2:   -83.55015514442258   -1.18214e-01   9.29840e-02 DIIS
   @RHF iter   3:   -94.66413978186810   -1.11140e+01   1.50234e-01 DIIS
   @RHF iter   4:   -97.37964857168816   -2.71551e+00   9.01794e-02 DIIS
   @RHF iter   5:   -99.18946131322267   -1.80981e+00   2.73557e-02 DIIS
   @RHF iter   6:   -99.45545593225749   -2.65995e-01   2.54939e-03 DIIS
   @RHF iter   7:   -99.45735918530376   -1.90325e-03   5.66983e-04 DIIS
   @RHF iter   8:   -99.45746195265812   -1.02767e-04   1.69019e-05 DIIS
   @RHF iter   9:   -99.45746207811935   -1.25461e-07   6.80956e-06 DIIS
   @RHF iter  10:   -99.45746209314534   -1.50260e-08   1.53559e-06 DIIS
   @RHF iter  11:   -99.45746209401737   -8.72035e-10   4.46612e-08 DIIS
   @RHF iter  12:   -99.45746209401827   -8.95284e-13   8.13198e-09 DIIS

  ==> Post-Iterations <==

    Orbital Energies (a.u.)
    -----------------------

    Doubly Occupied:                                                      

       1Ag   -25.830665     2Ag    -1.074936     1B3u   -0.180976  
       1B1u   -0.180976     1B2u   -0.180976  

    Virtual:                                                              

       2B2u    0.396320     2B3u    0.396320     2B1u    0.396320  
       3Ag     0.444486     4Ag     0.947818     5Ag     0.947818  
       1B2g    0.947818     1B1g    0.947818     1B3g    0.947818  
       3B3u    1.240491     3B2u    1.240491     3B1u    1.240491  
       6Ag     1.516519     4B2u    2.246518     4B3u    2.246518  
       5B2u    2.246518     1Au     2.246518     5B3u    2.246518  
       4B1u    2.246518     5B1u    2.246518     2B1g    2.441475  
       7Ag     2.441475     2B3g    2.441475     8Ag     2.441475  
       2B2g    2.441475     6B3u    3.858462     6B2u    3.858462  
       6B1u    3.858462     3B1g    5.136757     4B1g    5.136757  
       9Ag     5.136757    10Ag     5.136757     3B3g    5.136757  
       3B2g    5.136757     4B3g    5.136757    11Ag     5.136757  
       4B2g    5.136757    12Ag     5.487313     7B2u    5.933278  
       7B1u    5.933278     7B3u    5.933278     8B3u    5.933278  
       8B1u    5.933278     2Au     5.933278     8B2u    5.933278  
       5B1g    6.190830    13Ag     6.190830    14Ag     6.190830  
       5B3g    6.190830     5B2g    6.190830     9B3u   13.472774  
       9B2u   13.472774     9B1u   13.472774    15Ag    14.111714  
       6B1g   14.111714    16Ag    14.111714     6B3g   14.111714  
       7B1g   14.111714     7B3g   14.111714     6B2g   14.111714  
       7B2g   14.111714    17Ag    14.111714    10B3u   16.290231  
      10B2u   16.290231    10B1u   16.290231     3Au    16.290231  
      11B1u   16.290231    11B3u   16.290231    11B2u   16.290231  
      18Ag    17.179065     8B1g   17.179065     8B3g   17.179065  
      19Ag    17.179065     8B2g   17.179065    20Ag    53.533875  

    Final Occupation by Irrep:
             Ag   B1g   B2g   B3g    Au   B1u   B2u   B3u 
    DOCC [     2,    0,    0,    0,    0,    1,    1,    1 ]

  Energy converged.

  @RHF Final Energy:   -99.45746209401827

   => Energetics <=

    Nuclear Repulsion Energy =              0.0000000000000000
    One-Electron Energy =                -144.0178703093680497
    Two-Electron Energy =                  44.5604082153497885
    Total Energy =                        -99.4574620940182683



Properties will be evaluated at   0.000000,   0.000000,   0.000000 Bohr

Properties computed using the SCF density matrix

  Nuclear Dipole Moment: (a.u.)
     X:     0.0000      Y:     0.0000      Z:     0.0000

  Electronic Dipole Moment: (a.u.)
     X:     0.0000      Y:     0.0000      Z:     0.0000

  Dipole Moment: (a.u.)
     X:     0.0000      Y:     0.0000      Z:     0.0000     Total:     0.0000

  Dipole Moment: (Debye)
     X:     0.0000      Y:     0.0000      Z:     0.0000     Total:     0.0000


*** tstop() called on cqc01 at Mon Apr 29 18:18:11 2019
Module time:
	user time   =       0.99 seconds =       0.02 minutes
	system time =       0.56 seconds =       0.01 minutes
	total time  =          1 seconds =       0.02 minutes
Total time:
	user time   =       0.99 seconds =       0.02 minutes
	system time =       0.56 seconds =       0.01 minutes
	total time  =          1 seconds =       0.02 minutes

*** tstart() called on cqc01
*** at Mon Apr 29 18:18:11 2019


	Wfn Parameters:
	--------------------
	Wavefunction         = CCSD
	Number of irreps     = 8
	Number of MOs        = 80
	Number of active MOs = 79
	AO-Basis             = NONE
	Semicanonical        = false
	Reference            = RHF
	Print Level          = 1

	IRREP	# MOs	# FZDC	# DOCC	# SOCC	# VIRT	# FZVR
	-----	-----	------	------	------	------	------
	 Ag	   20	    1	    1	    0	    18	    0
	 B1g	   8	    0	    0	    0	    8	    0
	 B2g	   8	    0	    0	    0	    8	    0
	 B3g	   8	    0	    0	    0	    8	    0
	 Au	   3	    0	    0	    0	    3	    0
	 B1u	   11	    0	    1	    0	    10	    0
	 B2u	   11	    0	    1	    0	    10	    0
	 B3u	   11	    0	    1	    0	    10	    0
	Transforming integrals...
	IWL integrals will be deleted.
	(OO|OO)...
	Presorting SO-basis two-electron integrals.
	Sorting File: SO Ints (nn|nn) nbuckets = 1
	Transforming the one-electron integrals and constructing Fock matrices
	Starting first half-transformation.
	Sorting half-transformed integrals.
	First half integral transformation complete.
	Starting second half-transformation.
	Two-electron integral transformation complete.
	(OO|OV)...
	Starting second half-transformation.
	Two-electron integral transformation complete.
	(OO|VV)...
	Starting second half-transformation.
	Two-electron integral transformation complete.
	(OV|OO)...
	Starting first half-transformation.
	Sorting half-transformed integrals.
	First half integral transformation complete.
	Starting second half-transformation.
	Two-electron integral transformation complete.
	(OV|OV)...
	Starting second half-transformation.
	Two-electron integral transformation complete.
	(OV|VV)...
	Starting second half-transformation.
	Two-electron integral transformation complete.
	(VV|OO)...
	Starting first half-transformation.
	Sorting half-transformed integrals.
	First half integral transformation complete.
	Starting second half-transformation.
	Two-electron integral transformation complete.
	(VV|OV)...
	Starting second half-transformation.
	Two-electron integral transformation complete.
	(VV|VV)...
	Starting second half-transformation.
	Two-electron integral transformation complete.
	Frozen core energy     =    -75.47939739911936

	Size of irrep 0 of <ab|cd> integrals:      0.681 (MW) /      5.445 (MB)
	Size of irrep 1 of <ab|cd> integrals:      0.457 (MW) /      3.656 (MB)
	Size of irrep 2 of <ab|cd> integrals:      0.457 (MW) /      3.656 (MB)
	Size of irrep 3 of <ab|cd> integrals:      0.457 (MW) /      3.656 (MB)
	Size of irrep 4 of <ab|cd> integrals:      0.346 (MW) /      2.766 (MB)
	Size of irrep 5 of <ab|cd> integrals:      0.530 (MW) /      4.240 (MB)
	Size of irrep 6 of <ab|cd> integrals:      0.530 (MW) /      4.240 (MB)
	Size of irrep 7 of <ab|cd> integrals:      0.530 (MW) /      4.240 (MB)
	Total:                                     3.987 (MW) /     31.898 (MB)

	Size of irrep 0 of <ia|bc> integrals:      0.040 (MW) /      0.317 (MB)
	Size of irrep 1 of <ia|bc> integrals:      0.021 (MW) /      0.168 (MB)
	Size of irrep 2 of <ia|bc> integrals:      0.021 (MW) /      0.168 (MB)
	Size of irrep 3 of <ia|bc> integrals:      0.021 (MW) /      0.168 (MB)
	Size of irrep 4 of <ia|bc> integrals:      0.016 (MW) /      0.127 (MB)
	Size of irrep 5 of <ia|bc> integrals:      0.032 (MW) /      0.256 (MB)
	Size of irrep 6 of <ia|bc> integrals:      0.032 (MW) /      0.256 (MB)
	Size of irrep 7 of <ia|bc> integrals:      0.032 (MW) /      0.256 (MB)
	Total:                                     0.214 (MW) /      1.716 (MB)

	Size of irrep 0 of tijab amplitudes:       0.003 (MW) /      0.026 (MB)
	Size of irrep 1 of tijab amplitudes:       0.001 (MW) /      0.011 (MB)
	Size of irrep 2 of tijab amplitudes:       0.001 (MW) /      0.011 (MB)
	Size of irrep 3 of tijab amplitudes:       0.001 (MW) /      0.011 (MB)
	Size of irrep 4 of tijab amplitudes:       0.000 (MW) /      0.000 (MB)
	Size of irrep 5 of tijab amplitudes:       0.001 (MW) /      0.012 (MB)
	Size of irrep 6 of tijab amplitudes:       0.001 (MW) /      0.012 (MB)
	Size of irrep 7 of tijab amplitudes:       0.001 (MW) /      0.012 (MB)
	Total:                                     0.012 (MW) /      0.094 (MB)

	Nuclear Rep. energy          =      0.00000000000000
	SCF energy                   =    -99.45746209401827
	One-electron energy          =    -44.72040315007428
	Two-electron energy          =     20.74233845517544
	Reference energy             =    -99.45746209401820

*** tstop() called on cqc01 at Mon Apr 29 18:18:13 2019
Module time:
	user time   =       0.23 seconds =       0.00 minutes
	system time =       0.12 seconds =       0.00 minutes
	total time  =          2 seconds =       0.03 minutes
Total time:
	user time   =       1.22 seconds =       0.02 minutes
	system time =       0.68 seconds =       0.01 minutes
	total time  =          3 seconds =       0.05 minutes

*** tstart() called on cqc01
*** at Mon Apr 29 18:18:13 2019

            **************************
            *                        *
            *        CCENERGY        *
            *                        *
            **************************

    Nuclear Rep. energy (wfn)     =    0.000000000000000
    SCF energy          (wfn)     =  -99.457462094018268
    Reference energy    (file100) =  -99.457462094018197

    Input parameters:
    -----------------
    Wave function   =     CCSD
    Reference wfn   =     RHF
    Brueckner       =     No
    Memory (Mbytes) =     32000.0
    Maxiter         =     50
    R_Convergence   =     1.0e-07
    E_Convergence   =     1.0e-06
    Restart         =     Yes
    DIIS            =     Yes
    AO Basis        =     NONE
    ABCD            =     NEW
    Cache Level     =     2
    Cache Type      =     LOW
    Print Level     =     1
    Num. of threads =     1
    # Amps to Print =     10
    Print MP2 Amps? =     No
    Analyze T2 Amps =     No
    Print Pair Ener =     No
    Local CC        =     No
    SCS-MP2         =     False
    SCSN-MP2        =     False
    SCS-CCSD        =     False

MP2 correlation energy -0.3169445286063710
                Solving CC Amplitude Equations
                ------------------------------
  Iter             Energy              RMS        T1Diag      D1Diag    New D1Diag    D2Diag
  ----     ---------------------    ---------   ----------  ----------  ----------   --------
     0        -0.316944528606362    0.000e+00    0.000000    0.000000    0.000000    0.118222
     1        -0.304797696289881    2.577e-01    0.038690    0.062789    0.062789    0.114584
     2        -0.314020351622424    9.657e-02    0.018469    0.029697    0.029697    0.123500
     3        -0.309557007836485    2.626e-02    0.021028    0.034021    0.034021    0.119008
     4        -0.308219807289578    3.485e-03    0.020197    0.032687    0.032687    0.117959
     5        -0.308373907417111    1.272e-03    0.019763    0.031986    0.031986    0.117851
     6        -0.308367991770389    3.200e-04    0.019660    0.031817    0.031817    0.117795
     7        -0.308349055488170    1.254e-04    0.019599    0.031716    0.031716    0.117765
     8        -0.308357281700622    2.548e-05    0.019599    0.031715    0.031715    0.117773
     9        -0.308357354436251    6.419e-06    0.019597    0.031713    0.031713    0.117774
    10        -0.308357275158721    2.181e-06    0.019596    0.031711    0.031711    0.117774
    11        -0.308357386600487    3.686e-07    0.019596    0.031711    0.031711    0.117774
    12        -0.308357399464513    5.833e-08    0.019596    0.031711    0.031711    0.117774
    12        -0.308357399464513    5.833e-08    0.019596    0.031711    0.031711    0.117774

    Iterations converged.


    CCSD corr. energy   =   -0.308357399464513
    PPL corr. energy    =    0.057622253358678
    OS PPL corr. energy =    0.046912149127701
    SS PPL corr. energy =    0.010710104230978
    Largest TIA Amplitudes:
              1  45        -0.0305656412
              2  55        -0.0305656412
              3  65        -0.0305656412
              1  49         0.0071056471
              2  59         0.0071056471
              3  69         0.0071056471
              0   0         0.0066337799
              1  46        -0.0042896453
              2  56        -0.0042896453
              3  66        -0.0042896453

    Largest TIjAb Amplitudes:
      1   1  46  46        -0.0451754137
      2   2  56  56        -0.0451754137
      3   3  66  66        -0.0451754137
      1   1  45  46        -0.0302403884
      1   1  46  45        -0.0302403884
      2   2  55  56        -0.0302403884
      2   2  56  55        -0.0302403884
      3   3  65  66        -0.0302403884
      3   3  66  65        -0.0302403884
      2   3  56  66        -0.0300368976

    SCF energy       (wfn)                    =  -99.457462094018268
    Reference energy (file100)                =  -99.457462094018197

    Opposite-spin MP2 correlation energy      =   -0.235839434438498
    Same-spin MP2 correlation energy          =   -0.081105094167864
    MP2 correlation energy                    =   -0.316944528606371
      * MP2 total energy                      =  -99.774406622624568

    Opposite-spin CCSD correlation energy     =   -0.238582355238742
    Same-spin CCSD correlation energy         =   -0.069775043087814
    CCSD correlation energy                   =   -0.308357399464513
      * CCSD total energy                     =  -99.765819493482709


*** tstop() called on cqc01 at Mon Apr 29 18:18:17 2019
Module time:
	user time   =       0.73 seconds =       0.01 minutes
	system time =       1.61 seconds =       0.03 minutes
	total time  =          4 seconds =       0.07 minutes
Total time:
	user time   =       1.95 seconds =       0.03 minutes
	system time =       2.29 seconds =       0.04 minutes
	total time  =          7 seconds =       0.12 minutes

*** Psi4 exiting successfully. Buy a developer a beer!
