
    -----------------------------------------------------------------------
          Psi4: An Open-Source Ab Initio Electronic Structure Package
                               Psi4 1.2a1.dev939 

                         Git: Rev {HEAD} fa1ec19 


    R. M. Parrish, L. A. Burns, D. G. A. Smith, A. C. Simmonett,
    A. E. DePrince III, E. G. Hohenstein, U. Bozkaya, A. Yu. Sokolov,
    R. Di Remigio, R. M. Richard, J. F. Gonthier, A. M. James,
    H. R. McAlexander, A. Kumar, M. Saitow, X. Wang, B. P. Pritchard,
    P. Verma, H. F. Schaefer III, K. Patkowski, R. A. King, E. F. Valeev,
    F. A. Evangelista, J. M. Turney, T. D. Crawford, and C. D. Sherrill,
    J. Chem. Theory Comput. 13(7) pp 3185--3197 (2017).
    (doi: 10.1021/acs.jctc.7b00174)

    -----------------------------------------------------------------------


    Psi4 started on: Friday, 03 May 2019 11:30AM

    Process ID:   7081
    PSIDATADIR: /home/grueneis/src/psi4/objdir/stage/usr/local/psi4/share/psi4
    Memory:     500.0 MiB
    Threads:    1
    
  ==> Input File <==

--------------------------------------------------------------------------
# Any line starting with the # character is a comment line

memory 32000 mb

molecule molecule {
-1 1
F          0.0000000000        0.0000000000        0.0000000000
}

set {
  reference rhf


  basis aug-cc-pv(5+d)z
  scf_type OUT_OF_CORE
  freeze_core true
}

energy('ccsd')
--------------------------------------------------------------------------

  Memory set to  29.802 GiB by Python driver.

*** tstart() called on cqc03
*** at Fri May  3 11:30:26 2019

   => Loading Basis Set <=

    Name: AUG-CC-PV(5+D)Z
    Role: ORBITAL
    Keyword: BASIS
    atoms 1 entry F          line   454 file /home/grueneis/src/psi4/objdir/stage/usr/local/psi4/share/psi4/basis/aug-cc-pv_5pd_z.gbs 


         ---------------------------------------------------------
                                   SCF
            by Justin Turney, Rob Parrish, Andy Simmonett
                             and Daniel Smith
                              RHF Reference
                        1 Threads,  30517 MiB Core
         ---------------------------------------------------------

  ==> Geometry <==

    Molecular point group: d2h
    Geometry (in Angstrom), charge = -1, multiplicity = 1:

       Center              X                  Y                   Z               Mass       
    ------------   -----------------  -----------------  -----------------  -----------------
           F          0.000000000000     0.000000000000     0.000000000000    18.998403224000

  Running in d2h symmetry.

  Rotational constants: A = ************  B = ************  C = ************ [cm^-1]
  Rotational constants: A = ************  B = ************  C = ************ [MHz]
  Nuclear repulsion =    0.000000000000000

  Charge       = -1
  Multiplicity = 1
  Electrons    = 10
  Nalpha       = 5
  Nbeta        = 5

  ==> Algorithm <==

  SCF Algorithm Type is OUT_OF_CORE.
  DIIS enabled.
  MOM disabled.
  Fractional occupation disabled.
  Guess Type is CORE.
  Energy threshold   = 1.00e-08
  Density threshold  = 1.00e-08
  Integral threshold = 0.00e+00

  ==> Primary Basis <==

  Basis Set: AUG-CC-PV(5+D)Z
    Blend: AUG-CC-PV(5+D)Z
    Number of shells: 27
    Number of basis function: 127
    Number of Cartesian functions: 182
    Spherical Harmonics?: true
    Max angular momentum: 5

  ==> Pre-Iterations <==

   -------------------------------------------------------
    Irrep   Nso     Nmo     Nalpha   Nbeta   Ndocc  Nsocc
   -------------------------------------------------------
     Ag        26      26       0       0       0       0
     B1g       11      11       0       0       0       0
     B2g       11      11       0       0       0       0
     B3g       11      11       0       0       0       0
     Au         8       8       0       0       0       0
     B1u       20      20       0       0       0       0
     B2u       20      20       0       0       0       0
     B3u       20      20       0       0       0       0
   -------------------------------------------------------
    Total     127     127       5       5       5       0
   -------------------------------------------------------

  ==> Integral Setup <==

  ==> DiskJK: Disk-Based J/K Matrices <==

    J tasked:                  Yes
    K tasked:                  Yes
    wK tasked:                  No
    Memory (MB):             22888
    Schwarz Cutoff:          1E-12

  Minimum eigenvalue in the overlap matrix is 1.6434294920E-03.
  Using Symmetric Orthogonalization.

  SCF Guess: Core (One-Electron) Hamiltonian.

  ==> Iterations <==

                        Total Energy        Delta E     RMS |[F,P]|

   @RHF iter   1:   -83.09050926672987   -8.30905e+01   2.43736e-01 
   @RHF iter   2:   -82.62115777807917    4.69351e-01   5.74806e-02 DIIS
   @RHF iter   3:   -94.45814386666075   -1.18370e+01   9.99311e-02 DIIS
   @RHF iter   4:   -97.01015607419825   -2.55201e+00   6.41382e-02 DIIS
   @RHF iter   5:   -99.02577101241161   -2.01561e+00   2.32791e-02 DIIS
   @RHF iter   6:   -99.45621663773593   -4.30446e-01   1.67235e-03 DIIS
   @RHF iter   7:   -99.45909846554724   -2.88183e-03   4.69741e-04 DIIS
   @RHF iter   8:   -99.45925992415016   -1.61459e-04   2.67054e-05 DIIS
   @RHF iter   9:   -99.45926073435643   -8.10206e-07   6.42746e-06 DIIS
   @RHF iter  10:   -99.45926076656905   -3.22126e-08   1.38166e-06 DIIS
   @RHF iter  11:   -99.45926076778801   -1.21896e-09   1.15766e-07 DIIS
   @RHF iter  12:   -99.45926076780154   -1.35287e-11   2.61731e-09 DIIS

  ==> Post-Iterations <==

    Orbital Energies (a.u.)
    -----------------------

    Doubly Occupied:                                                      

       1Ag   -25.829663     2Ag    -1.074592     1B1u   -0.180970  
       1B3u   -0.180970     1B2u   -0.180970  

    Virtual:                                                              

       2B1u    0.333540     2B3u    0.333540     2B2u    0.333540  
       3Ag     0.413027     4Ag     0.815694     1B3g    0.815694  
       1B1g    0.815694     1B2g    0.815694     5Ag     0.815694  
       3B3u    0.917190     3B1u    0.917190     3B2u    0.917190  
       6Ag     1.291902     4B1u    1.683345     4B3u    1.683345  
       5B3u    1.683345     4B2u    1.683345     5B1u    1.683345  
       1Au     1.683345     5B2u    1.683345     2B3g    2.036710  
       7Ag     2.036710     2B1g    2.036710     2B2g    2.036710  
       8Ag     2.036710     6B1u    2.430326     6B3u    2.430326  
       6B2u    2.430326     9Ag     3.736440     3B2g    3.736440  
       3B3g    3.736440    10Ag     3.736440     3B1g    3.736440  
       4B3g    3.736440     4B2g    3.736440    11Ag     3.736440  
       4B1g    3.736440    12Ag     4.082643     7B2u    4.300378  
       7B3u    4.300378     8B2u    4.300378     2Au     4.300378  
       8B3u    4.300378     7B1u    4.300378     8B1u    4.300378  
       5B3g    4.688714     5B2g    4.688714    13Ag     4.688714  
      14Ag     4.688714     5B1g    4.688714     9B1u    6.446804  
       9B3u    6.446804     9B2u    6.446804    10B2u    8.435362  
      10B3u    8.435362    11B3u    8.435362    11B2u    8.435362  
      12B3u    8.435362    10B1u    8.435362     3Au     8.435362  
      11B1u    8.435362     4Au     8.435362    12B1u    8.435362  
      12B2u    8.435362     6B3g    9.466059     7B3g    9.466059  
       6B2g    9.466059     7B2g    9.466059    15Ag     9.466059  
      16Ag     9.466059     6B1g    9.466059    17Ag     9.466059  
       7B1g    9.466059    13B1u   10.341872    13B2u   10.341872  
      13B3u   10.341872    14B2u   10.341872    14B1u   10.341872  
       5Au    10.341872    14B3u   10.341872     8B3g   11.345515  
       8B2g   11.345515    18Ag    11.345515     8B1g   11.345515  
      19Ag    11.345515    20Ag    13.331284    15B1u   19.757260  
      15B3u   19.757260    15B2u   19.757260    16B3u   21.402293  
      17B3u   21.402293    16B2u   21.402293     6Au    21.402293  
      16B1u   21.402293    18B3u   21.402293    17B2u   21.402293  
       7Au    21.402293    17B1u   21.402293    18B2u   21.402293  
      18B1u   21.402293     9B2g   24.992710    21Ag    24.992710  
       9B1g   24.992710     9B3g   24.992710    10B2g   24.992710  
      10B3g   24.992710    22Ag    24.992710    23Ag    24.992710  
      10B1g   24.992710     8Au    26.100092    19B1u   26.100092  
      19B2u   26.100092    20B1u   26.100092    20B2u   26.100092  
      19B3u   26.100092    20B3u   26.100092    11B2g   29.321044  
      11B3g   29.321044    11B1g   29.321044    24Ag    29.321044  
      25Ag    29.321044    26Ag    77.134108  

    Final Occupation by Irrep:
             Ag   B1g   B2g   B3g    Au   B1u   B2u   B3u 
    DOCC [     2,    0,    0,    0,    0,    1,    1,    1 ]

  Energy converged.

  @RHF Final Energy:   -99.45926076780154

   => Energetics <=

    Nuclear Repulsion Energy =              0.0000000000000000
    One-Electron Energy =                -144.0241927519182923
    Two-Electron Energy =                  44.5649319841167539
    Total Energy =                        -99.4592607678015383



Properties will be evaluated at   0.000000,   0.000000,   0.000000 Bohr

Properties computed using the SCF density matrix

  Nuclear Dipole Moment: (a.u.)
     X:     0.0000      Y:     0.0000      Z:     0.0000

  Electronic Dipole Moment: (a.u.)
     X:     0.0000      Y:     0.0000      Z:     0.0000

  Dipole Moment: (a.u.)
     X:     0.0000      Y:     0.0000      Z:     0.0000     Total:     0.0000

  Dipole Moment: (Debye)
     X:     0.0000      Y:     0.0000      Z:     0.0000     Total:     0.0000


*** tstop() called on cqc03 at Fri May  3 11:30:31 2019
Module time:
	user time   =       4.58 seconds =       0.08 minutes
	system time =       0.15 seconds =       0.00 minutes
	total time  =          5 seconds =       0.08 minutes
Total time:
	user time   =       4.58 seconds =       0.08 minutes
	system time =       0.15 seconds =       0.00 minutes
	total time  =          5 seconds =       0.08 minutes

*** tstart() called on cqc03
*** at Fri May  3 11:30:31 2019


	Wfn Parameters:
	--------------------
	Wavefunction         = CCSD
	Number of irreps     = 8
	Number of MOs        = 127
	Number of active MOs = 126
	AO-Basis             = NONE
	Semicanonical        = false
	Reference            = RHF
	Print Level          = 1

	IRREP	# MOs	# FZDC	# DOCC	# SOCC	# VIRT	# FZVR
	-----	-----	------	------	------	------	------
	 Ag	   26	    1	    1	    0	    24	    0
	 B1g	   11	    0	    0	    0	    11	    0
	 B2g	   11	    0	    0	    0	    11	    0
	 B3g	   11	    0	    0	    0	    11	    0
	 Au	   8	    0	    0	    0	    8	    0
	 B1u	   20	    0	    1	    0	    19	    0
	 B2u	   20	    0	    1	    0	    19	    0
	 B3u	   20	    0	    1	    0	    19	    0
	Transforming integrals...
	IWL integrals will be deleted.
	(OO|OO)...
	Presorting SO-basis two-electron integrals.
	Sorting File: SO Ints (nn|nn) nbuckets = 1
	Transforming the one-electron integrals and constructing Fock matrices
	Starting first half-transformation.
	Sorting half-transformed integrals.
	First half integral transformation complete.
	Starting second half-transformation.
	Two-electron integral transformation complete.
	(OO|OV)...
	Starting second half-transformation.
	Two-electron integral transformation complete.
	(OO|VV)...
	Starting second half-transformation.
	Two-electron integral transformation complete.
	(OV|OO)...
	Starting first half-transformation.
	Sorting half-transformed integrals.
	First half integral transformation complete.
	Starting second half-transformation.
	Two-electron integral transformation complete.
	(OV|OV)...
	Starting second half-transformation.
	Two-electron integral transformation complete.
	(OV|VV)...
	Starting second half-transformation.
	Two-electron integral transformation complete.
	(VV|OO)...
	Starting first half-transformation.
	Sorting half-transformed integrals.
	First half integral transformation complete.
	Starting second half-transformation.
	Two-electron integral transformation complete.
	(VV|OV)...
	Starting second half-transformation.
	Two-electron integral transformation complete.
	(VV|VV)...
	Starting second half-transformation.
	Two-electron integral transformation complete.
	Frozen core energy     =    -75.47956585410866

	Size of irrep 0 of <ab|cd> integrals:      4.351 (MW) /     34.811 (MB)
	Size of irrep 1 of <ab|cd> integrals:      3.226 (MW) /     25.805 (MB)
	Size of irrep 2 of <ab|cd> integrals:      3.226 (MW) /     25.805 (MB)
	Size of irrep 3 of <ab|cd> integrals:      3.226 (MW) /     25.805 (MB)
	Size of irrep 4 of <ab|cd> integrals:      2.683 (MW) /     21.464 (MB)
	Size of irrep 5 of <ab|cd> integrals:      3.702 (MW) /     29.614 (MB)
	Size of irrep 6 of <ab|cd> integrals:      3.702 (MW) /     29.614 (MB)
	Size of irrep 7 of <ab|cd> integrals:      3.702 (MW) /     29.614 (MB)
	Total:                                    27.817 (MW) /    222.533 (MB)

	Size of irrep 0 of <ia|bc> integrals:      0.169 (MW) /      1.352 (MB)
	Size of irrep 1 of <ia|bc> integrals:      0.102 (MW) /      0.819 (MB)
	Size of irrep 2 of <ia|bc> integrals:      0.102 (MW) /      0.819 (MB)
	Size of irrep 3 of <ia|bc> integrals:      0.102 (MW) /      0.819 (MB)
	Size of irrep 4 of <ia|bc> integrals:      0.067 (MW) /      0.537 (MB)
	Size of irrep 5 of <ia|bc> integrals:      0.125 (MW) /      1.000 (MB)
	Size of irrep 6 of <ia|bc> integrals:      0.125 (MW) /      1.000 (MB)
	Size of irrep 7 of <ia|bc> integrals:      0.125 (MW) /      1.000 (MB)
	Total:                                     0.918 (MW) /      7.347 (MB)

	Size of irrep 0 of tijab amplitudes:       0.008 (MW) /      0.067 (MB)
	Size of irrep 1 of tijab amplitudes:       0.004 (MW) /      0.029 (MB)
	Size of irrep 2 of tijab amplitudes:       0.004 (MW) /      0.029 (MB)
	Size of irrep 3 of tijab amplitudes:       0.004 (MW) /      0.029 (MB)
	Size of irrep 4 of tijab amplitudes:       0.000 (MW) /      0.000 (MB)
	Size of irrep 5 of tijab amplitudes:       0.004 (MW) /      0.031 (MB)
	Size of irrep 6 of tijab amplitudes:       0.004 (MW) /      0.031 (MB)
	Size of irrep 7 of tijab amplitudes:       0.004 (MW) /      0.031 (MB)
	Total:                                     0.031 (MW) /      0.245 (MB)

	Nuclear Rep. energy          =      0.00000000000000
	SCF energy                   =    -99.45926076780154
	One-electron energy          =    -44.72438798324165
	Two-electron energy          =     20.74469306954865
	Reference energy             =    -99.45926076780165

*** tstop() called on cqc03 at Fri May  3 11:30:33 2019
Module time:
	user time   =       1.12 seconds =       0.02 minutes
	system time =       0.68 seconds =       0.01 minutes
	total time  =          2 seconds =       0.03 minutes
Total time:
	user time   =       5.70 seconds =       0.10 minutes
	system time =       0.83 seconds =       0.01 minutes
	total time  =          7 seconds =       0.12 minutes

*** tstart() called on cqc03
*** at Fri May  3 11:30:33 2019

            **************************
            *                        *
            *        CCENERGY        *
            *                        *
            **************************

    Nuclear Rep. energy (wfn)     =    0.000000000000000
    SCF energy          (wfn)     =  -99.459260767801538
    Reference energy    (file100) =  -99.459260767801652

    Input parameters:
    -----------------
    Wave function   =     CCSD
    Reference wfn   =     RHF
    Brueckner       =     No
    Memory (Mbytes) =     32000.0
    Maxiter         =     50
    R_Convergence   =     1.0e-07
    E_Convergence   =     1.0e-06
    Restart         =     Yes
    DIIS            =     Yes
    AO Basis        =     NONE
    ABCD            =     NEW
    Cache Level     =     2
    Cache Type      =     LOW
    Print Level     =     1
    Num. of threads =     1
    # Amps to Print =     10
    Print MP2 Amps? =     No
    Analyze T2 Amps =     No
    Print Pair Ener =     No
    Local CC        =     No
    SCS-MP2         =     False
    SCSN-MP2        =     False
    SCS-CCSD        =     False

MP2 correlation energy -0.3262959008605065
                Solving CC Amplitude Equations
                ------------------------------
  Iter             Energy              RMS        T1Diag      D1Diag    New D1Diag    D2Diag
  ----     ---------------------    ---------   ----------  ----------  ----------   --------
     0        -0.326295900860502    0.000e+00    0.000000    0.000000    0.000000    0.118662
     1        -0.310089660305119    2.602e-01    0.038262    0.062118    0.062118    0.113803
     2        -0.320861849338216    9.907e-02    0.017980    0.028912    0.028912    0.123251
     3        -0.317093023452929    3.022e-02    0.020829    0.033711    0.033711    0.118998
     4        -0.315596891326302    3.973e-03    0.020196    0.032701    0.032701    0.117820
     5        -0.315582684575032    1.518e-03    0.019739    0.031963    0.031963    0.117624
     6        -0.315643979570142    3.917e-04    0.019640    0.031804    0.031804    0.117592
     7        -0.315628833869844    1.675e-04    0.019580    0.031706    0.031706    0.117557
     8        -0.315624805919740    5.822e-05    0.019556    0.031666    0.031666    0.117551
     9        -0.315627961988056    1.893e-05    0.019554    0.031662    0.031662    0.117554
    10        -0.315627674240735    5.897e-06    0.019552    0.031658    0.031658    0.117554
    11        -0.315627790153901    7.727e-07    0.019551    0.031658    0.031658    0.117555
    12        -0.315627829403147    1.423e-07    0.019551    0.031658    0.031658    0.117555
    13        -0.315627830534364    3.318e-08    0.019551    0.031658    0.031658    0.117555
    13        -0.315627830534364    3.318e-08    0.019551    0.031658    0.031658    0.117555

    Iterations converged.


    CCSD corr. energy   =   -0.315627830534364
    PPL corr. energy    =    0.060497538472293
    OS PPL corr. energy =    0.049583221230454
    SS PPL corr. energy =    0.010914317241839
    Largest TIA Amplitudes:
              1  65        -0.0289443721
              2  84        -0.0289443721
              3 103        -0.0289443721
              1  66        -0.0105040098
              2  85        -0.0105040098
              3 104        -0.0105040098
              0   0        -0.0060692702
              1  69         0.0057594105
              2  88         0.0057594105
              3 107         0.0057594105

    Largest TIjAb Amplitudes:
      1   1  66  66        -0.0409975090
      2   2  85  85        -0.0409975090
      3   3 104 104        -0.0409975090
      2   3  85 104        -0.0277683337
      3   2 104  85        -0.0277683337
      1   3  66 104        -0.0277683337
      3   1 104  66        -0.0277683337
      1   2  66  85        -0.0277683337
      2   1  85  66        -0.0277683337
      1   1  69  69        -0.0260913370

    SCF energy       (wfn)                    =  -99.459260767801538
    Reference energy (file100)                =  -99.459260767801652

    Opposite-spin MP2 correlation energy      =   -0.244277810516415
    Same-spin MP2 correlation energy          =   -0.082018090344087
    MP2 correlation energy                    =   -0.326295900860506
      * MP2 total energy                      =  -99.785556668662153

    Opposite-spin CCSD correlation energy     =   -0.245082271898053
    Same-spin CCSD correlation energy         =   -0.070545556800370
    CCSD correlation energy                   =   -0.315627830534364
      * CCSD total energy                     =  -99.774888598336020


*** tstop() called on cqc03 at Fri May  3 11:30:37 2019
Module time:
	user time   =       0.85 seconds =       0.01 minutes
	system time =       0.83 seconds =       0.01 minutes
	total time  =          4 seconds =       0.07 minutes
Total time:
	user time   =       6.55 seconds =       0.11 minutes
	system time =       1.66 seconds =       0.03 minutes
	total time  =         11 seconds =       0.18 minutes

*** Psi4 exiting successfully. Buy a developer a beer!
