
    -----------------------------------------------------------------------
          Psi4: An Open-Source Ab Initio Electronic Structure Package
                               Psi4 1.4a3.dev88 

                         Git: Rev {master} 262e345 


    D. G. A. Smith, L. A. Burns, A. C. Simmonett, R. M. Parrish,
    M. C. Schieber, R. Galvelis, P. Kraus, H. Kruse, R. Di Remigio,
    A. Alenaizan, A. M. James, S. Lehtola, J. P. Misiewicz, M. Scheurer,
    R. A. Shaw, J. B. Schriber, Y. Xie, Z. L. Glick, D. A. Sirianni,
    J. S. O'Brien, J. M. Waldrop, A. Kumar, E. G. Hohenstein,
    B. P. Pritchard, B. R. Brooks, H. F. Schaefer III, A. Yu. Sokolov,
    K. Patkowski, A. E. DePrince III, U. Bozkaya, R. A. King,
    F. A. Evangelista, J. M. Turney, T. D. Crawford, C. D. Sherrill,
    J. Chem. Phys. 152(18) 184108 (2020). https://doi.org/10.1063/5.0006002

                            Additional Code Authors
    E. T. Seidl, C. L. Janssen, E. F. Valeev, M. L. Leininger,
    J. F. Gonthier, R. M. Richard, H. R. McAlexander, M. Saitow, X. Wang,
    P. Verma, and M. H. Lechner

             Previous Authors, Complete List of Code Contributors,
                       and Citations for Specific Modules
    https://github.com/psi4/psi4/blob/master/codemeta.json
    https://github.com/psi4/psi4/graphs/contributors
    http://psicode.org/psi4manual/master/introduction.html#citing-psifour

    -----------------------------------------------------------------------


    Psi4 started on: Tuesday, 26 January 2021 06:38PM

    Process ID: 411934
    Host:       n412-039.vsc4.prov
    PSIDATADIR: /home/fs71337/gallo4/psi4/eri-6/psi4/build/stage/share/psi4
    Memory:     500.0 MiB
    Threads:    48
    
  ==> Input File <==

--------------------------------------------------------------------------
# Any line starting with the # character is a comment line
memory 250000 mb
molecule molecule{
0 1
H          0.0000000000        0.0000000000        0.3687192096
H          0.0000000000        0.0000000000       -0.3687192096
}

set {
  reference rhf
  basis aug-cc-pV(d+d)Z
  scf_type OUT_OF_CORE
  freeze_core true
}

energy('ccsd(t)')
--------------------------------------------------------------------------

  Memory set to 232.831 GiB by Python driver.

Scratch directory: /binfl/lv71337/airmler/temp/

*** tstart() called on n412-039.vsc4.prov
*** at Tue Jan 26 18:38:43 2021

   => Loading Basis Set <=

    Name: AUG-CC-PV(D+D)Z
    Role: ORBITAL
    Keyword: BASIS
    atoms 1-2 entry H          line    68 file /home/fs71337/gallo4/psi4/eri-6/psi4/build/stage/share/psi4/basis/aug-cc-pv_dpd_z.gbs 


         ---------------------------------------------------------
                                   SCF
               by Justin Turney, Rob Parrish, Andy Simmonett
                          and Daniel G. A. Smith
                              RHF Reference
                       48 Threads, 238418 MiB Core
         ---------------------------------------------------------

  ==> Geometry <==

    Molecular point group: d2h
    Full point group: D_inf_h

    Geometry (in Angstrom), charge = 0, multiplicity = 1:

       Center              X                  Y                   Z               Mass       
    ------------   -----------------  -----------------  -----------------  -----------------
         H            0.000000000000     0.000000000000     0.368719209600     1.007825032230
         H            0.000000000000     0.000000000000    -0.368719209600     1.007825032230

  Running in d2h symmetry.

  Rotational constants: A = ************  B =     61.51625  C =     61.51625 [cm^-1]
  Rotational constants: A = ************  B = 1844210.68652  C = 1844210.68652 [MHz]
  Nuclear repulsion =    0.717588339435950

  Charge       = 0
  Multiplicity = 1
  Electrons    = 2
  Nalpha       = 1
  Nbeta        = 1

  ==> Algorithm <==

  SCF Algorithm Type is OUT_OF_CORE.
  DIIS enabled.
  MOM disabled.
  Fractional occupation disabled.
  Guess Type is SAD.
  Energy threshold   = 1.00e-08
  Density threshold  = 1.00e-08
  Integral threshold = 1.00e-12

  ==> Primary Basis <==

  Basis Set: AUG-CC-PV(D+D)Z
    Blend: AUG-CC-PV(D+D)Z
    Number of shells: 10
    Number of basis function: 18
    Number of Cartesian functions: 18
    Spherical Harmonics?: true
    Max angular momentum: 1

  ==> Integral Setup <==

  ==> DiskJK: Disk-Based J/K Matrices <==

    J tasked:                  Yes
    K tasked:                  Yes
    wK tasked:                  No
    Memory [MiB]:           178813
    Schwarz Cutoff:          1E-12

  Minimum eigenvalue in the overlap matrix is 1.3600095366E-03.
  Reciprocal condition number of the overlap matrix is 4.1131443790E-04.
    Using symmetric orthogonalization.

  ==> Pre-Iterations <==

  SCF Guess: Superposition of Atomic Densities via on-the-fly atomic UHF (no occupation information).

   -------------------------
    Irrep   Nso     Nmo    
   -------------------------
     Ag         5       5 
     B1g        0       0 
     B2g        2       2 
     B3g        2       2 
     Au         0       0 
     B1u        5       5 
     B2u        2       2 
     B3u        2       2 
   -------------------------
    Total      18      18
   -------------------------

  ==> Iterations <==

                        Total Energy        Delta E     RMS |[F,P]|

   @RHF iter SAD:    -0.83672419682424   -8.36724e-01   0.00000e+00 
   @RHF iter   1:    -1.12525494110006   -2.88531e-01   6.03537e-03 DIIS
   @RHF iter   2:    -1.12857557635913   -3.32064e-03   1.24671e-03 DIIS
   @RHF iter   3:    -1.12874231203958   -1.66736e-04   9.06971e-05 DIIS
   @RHF iter   4:    -1.12874312476625   -8.12727e-07   4.62049e-06 DIIS
   @RHF iter   5:    -1.12874312607576   -1.30951e-09   4.65827e-07 DIIS
   @RHF iter   6:    -1.12874312609484   -1.90725e-11   3.93204e-08 DIIS
   @RHF iter   7:    -1.12874312609499   -1.49436e-13   3.92320e-10 DIIS
  Energy and wave function converged.


  ==> Post-Iterations <==

    Orbital Energies [Eh]
    ---------------------

    Doubly Occupied:                                                      

       1Ag    -0.593569  

    Virtual:                                                              

       1B1u    0.061526     2Ag     0.066919     2B1u    0.231699  
       1B2u    0.285259     1B3u    0.285259     3Ag     0.416614  
       1B2g    0.458847     1B3g    0.458847     3B1u    0.558753  
       4Ag     0.717036     4B1u    1.247119     2B2u    1.604653  
       2B3u    1.604653     5Ag     2.085578     2B2g    2.245536  
       2B3g    2.245536     5B1u    3.723325  

    Final Occupation by Irrep:
             Ag   B1g   B2g   B3g    Au   B1u   B2u   B3u 
    DOCC [     1,    0,    0,    0,    0,    0,    0,    0 ]

  @RHF Final Energy:    -1.12874312609499

   => Energetics <=

    Nuclear Repulsion Energy =              0.7175883394359501
    One-Electron Energy =                  -2.5055253864976197
    Two-Electron Energy =                   0.6591939209666835
    Total Energy =                         -1.1287431260949861

Computation Completed


Properties will be evaluated at   0.000000,   0.000000,   0.000000 [a0]

Properties computed using the SCF density matrix

  Nuclear Dipole Moment: [e a0]
     X:     0.0000      Y:     0.0000      Z:     0.0000

  Electronic Dipole Moment: [e a0]
     X:     0.0000      Y:     0.0000      Z:     0.0000

  Dipole Moment: [e a0]
     X:     0.0000      Y:     0.0000      Z:     0.0000     Total:     0.0000

  Dipole Moment: [D]
     X:     0.0000      Y:     0.0000      Z:     0.0000     Total:     0.0000


*** tstop() called on n412-039.vsc4.prov at Tue Jan 26 18:38:43 2021
Module time:
	user time   =       5.11 seconds =       0.09 minutes
	system time =       0.12 seconds =       0.00 minutes
	total time  =          0 seconds =       0.00 minutes
Total time:
	user time   =       5.11 seconds =       0.09 minutes
	system time =       0.12 seconds =       0.00 minutes
	total time  =          0 seconds =       0.00 minutes

*** tstart() called on n412-039.vsc4.prov
*** at Tue Jan 26 18:38:43 2021


	Wfn Parameters:
	--------------------
	Wavefunction         = CCSD_T
	Number of irreps     = 8
	Number of MOs        = 18
	Number of active MOs = 18
	AO-Basis             = NONE
	Semicanonical        = false
	Reference            = RHF
	Print Level          = 1

	IRREP	# MOs	# FZDC	# DOCC	# SOCC	# VIRT	# FZVR
	-----	-----	------	------	------	------	------
	 Ag	   5	    0	    1	    0	    4	    0
	 B1g	   0	    0	    0	    0	    0	    0
	 B2g	   2	    0	    0	    0	    2	    0
	 B3g	   2	    0	    0	    0	    2	    0
	 Au	   0	    0	    0	    0	    0	    0
	 B1u	   5	    0	    0	    0	    5	    0
	 B2u	   2	    0	    0	    0	    2	    0
	 B3u	   2	    0	    0	    0	    2	    0
	Transforming integrals...
	IWL integrals will be deleted.
	(OO|OO)...
	Presorting SO-basis two-electron integrals.
	Sorting File: SO Ints (nn|nn) nbuckets = 1
	Constructing frozen core operators
	Starting first half-transformation.
	Sorting half-transformed integrals.
	First half integral transformation complete.
	Starting second half-transformation.
	Two-electron integral transformation complete.
	(OO|OV)...
	Starting second half-transformation.
	Two-electron integral transformation complete.
	(OO|VV)...
	Starting second half-transformation.
	Two-electron integral transformation complete.
	(OV|OO)...
	Starting first half-transformation.
	Sorting half-transformed integrals.
	First half integral transformation complete.
	Starting second half-transformation.
	Two-electron integral transformation complete.
	(OV|OV)...
	Starting second half-transformation.
	Two-electron integral transformation complete.
	(OV|VV)...
	Starting second half-transformation.
	Two-electron integral transformation complete.
	(VV|OO)...
	Starting first half-transformation.
	Sorting half-transformed integrals.
	First half integral transformation complete.
	Starting second half-transformation.
	Two-electron integral transformation complete.
	(VV|OV)...
	Starting second half-transformation.
	Two-electron integral transformation complete.
	(VV|VV)...
	Starting second half-transformation.
	Two-electron integral transformation complete.
	Frozen core energy     =      0.00000000000000

	Size of irrep 0 of <ab|cd> integrals:      0.003 (MW) /      0.026 (MB)
	Size of irrep 1 of <ab|cd> integrals:      0.000 (MW) /      0.002 (MB)
	Size of irrep 2 of <ab|cd> integrals:      0.001 (MW) /      0.010 (MB)
	Size of irrep 3 of <ab|cd> integrals:      0.001 (MW) /      0.010 (MB)
	Size of irrep 4 of <ab|cd> integrals:      0.000 (MW) /      0.002 (MB)
	Size of irrep 5 of <ab|cd> integrals:      0.003 (MW) /      0.025 (MB)
	Size of irrep 6 of <ab|cd> integrals:      0.001 (MW) /      0.010 (MB)
	Size of irrep 7 of <ab|cd> integrals:      0.001 (MW) /      0.010 (MB)
	Total:                                     0.012 (MW) /      0.097 (MB)

	Size of irrep 0 of <ia|bc> integrals:      0.000 (MW) /      0.002 (MB)
	Size of irrep 1 of <ia|bc> integrals:      0.000 (MW) /      0.000 (MB)
	Size of irrep 2 of <ia|bc> integrals:      0.000 (MW) /      0.001 (MB)
	Size of irrep 3 of <ia|bc> integrals:      0.000 (MW) /      0.001 (MB)
	Size of irrep 4 of <ia|bc> integrals:      0.000 (MW) /      0.000 (MB)
	Size of irrep 5 of <ia|bc> integrals:      0.000 (MW) /      0.002 (MB)
	Size of irrep 6 of <ia|bc> integrals:      0.000 (MW) /      0.001 (MB)
	Size of irrep 7 of <ia|bc> integrals:      0.000 (MW) /      0.001 (MB)
	Total:                                     0.001 (MW) /      0.006 (MB)

	Size of irrep 0 of tijab amplitudes:       0.000 (MW) /      0.000 (MB)
	Size of irrep 1 of tijab amplitudes:       0.000 (MW) /      0.000 (MB)
	Size of irrep 2 of tijab amplitudes:       0.000 (MW) /      0.000 (MB)
	Size of irrep 3 of tijab amplitudes:       0.000 (MW) /      0.000 (MB)
	Size of irrep 4 of tijab amplitudes:       0.000 (MW) /      0.000 (MB)
	Size of irrep 5 of tijab amplitudes:       0.000 (MW) /      0.000 (MB)
	Size of irrep 6 of tijab amplitudes:       0.000 (MW) /      0.000 (MB)
	Size of irrep 7 of tijab amplitudes:       0.000 (MW) /      0.000 (MB)
	Total:                                     0.000 (MW) /      0.000 (MB)

	Nuclear Rep. energy          =      0.71758833943595
	SCF energy                   =     -1.12874312609499
	One-electron energy          =     -2.50552538474954
	Two-electron energy          =      0.65919391921860
	Reference energy             =     -1.12874312609499

*** tstop() called on n412-039.vsc4.prov at Tue Jan 26 18:38:43 2021
Module time:
	user time   =       0.02 seconds =       0.00 minutes
	system time =       0.02 seconds =       0.00 minutes
	total time  =          0 seconds =       0.00 minutes
Total time:
	user time   =       5.13 seconds =       0.09 minutes
	system time =       0.14 seconds =       0.00 minutes
	total time  =          0 seconds =       0.00 minutes
            **************************
            *                        *
            *        CCENERGY        *
            *                        *
            **************************

    Nuclear Rep. energy (wfn)     =    0.717588339435950
    SCF energy          (wfn)     =   -1.128743126094986
    Reference energy    (file100) =   -1.128743126094987

    Input parameters:
    -----------------
    Wave function   =     CCSD_T
    Reference wfn   =     RHF
    Brueckner       =     No
    Memory (Mbytes) =     250000.0
    Maxiter         =     50
    R_Convergence   =     1.0e-07
    E_Convergence   =     1.0e-06
    Restart         =     Yes
    DIIS            =     Yes
    AO Basis        =     NONE
    ABCD            =     NEW
    Cache Level     =     2
    Cache Type      =     LOW
    Print Level     =     1
    Num. of threads =     48
    # Amps to Print =     10
    Print MP2 Amps? =     No
    Analyze T2 Amps =     No
    Print Pair Ener =     No
    Local CC        =     No
    SCS-MP2         =     False
    SCSN-MP2        =     False
    SCS-CCSD        =     False

MP2 correlation energy -0.0272580039977608
                Solving CC Amplitude Equations
                ------------------------------
  Iter             Energy              RMS        T1Diag      D1Diag    New D1Diag    D2Diag
  ----     ---------------------    ---------   ----------  ----------  ----------   --------
     0        -0.027258003997761    0.000e+00    0.000000    0.000000    0.000000    0.098289
     1        -0.033306707474669    2.595e-02    0.002514    0.003555    0.003555    0.122555
     2        -0.035711020503471    8.740e-03    0.004255    0.006017    0.006017    0.133517
     3        -0.035757791402328    1.187e-03    0.004587    0.006487    0.006487    0.134174
     4        -0.035759174457089    1.418e-04    0.004632    0.006551    0.006551    0.134194
     5        -0.035758369590479    1.849e-05    0.004638    0.006559    0.006559    0.134188
     6        -0.035758401873606    4.208e-06    0.004640    0.006562    0.006562    0.134188
     7        -0.035758467445750    6.624e-07    0.004640    0.006562    0.006562    0.134188
     8        -0.035758463555243    1.300e-07    0.004640    0.006562    0.006562    0.134188
     9        -0.035758463421630    2.534e-08    0.004640    0.006562    0.006562    0.134188

    Iterations converged.


    Largest TIA Amplitudes:
              0   2         0.0048015715
              0   3         0.0036057857
              0   0         0.0025465667
              0   1        -0.0007242158

    Largest TIjAb Amplitudes:
      0   0   9   9        -0.0428198625
      0   0   9  10        -0.0338434772
      0   0  10   9        -0.0338434772
      0   0  11  11        -0.0305425904
      0   0   9  11        -0.0296940153
      0   0  11   9        -0.0296940153
      0   0   2   2        -0.0294905662
      0   0  10  10        -0.0280008379
      0   0  10  11        -0.0266831980
      0   0  11  10        -0.0266831980

    SCF energy       (wfn)                    =   -1.128743126094986
    Reference energy (file100)                =   -1.128743126094987

    Opposite-spin MP2 correlation energy      =   -0.027258003997761
    Same-spin MP2 correlation energy          =   -0.000000000000000
    Singles MP2 correlation energy            =   -0.000000000000000
    MP2 correlation energy                    =   -0.027258003997761
      * MP2 total energy                      =   -1.156001130092748

    Opposite-spin CCSD correlation energy     =   -0.035758463421630
    Same-spin CCSD correlation energy         =   -0.000000000000000
    Singles CCSD correlation energy           =    0.000000000000000
    CCSD correlation energy                   =   -0.035758463421630
      * CCSD total energy                     =   -1.164501589516618

            **************************
            *                        *
            *        CCTRIPLES       *
            *                        *
            **************************


    Wave function   =    CCSD_T
    Reference wfn   =      RHF

    Nuclear Rep. energy (wfn)                =    0.717588339435950
    SCF energy          (wfn)                =   -1.128743126094986
    Reference energy    (file100)            =   -1.128743126094987
    CCSD energy         (file100)            =   -0.035758463421630
    Total CCSD energy   (file100)            =   -1.164501589516618

    Number of ijk index combinations:                1
    Memory available in words        :     31250000000
    ~Words needed per explicit thread:             500
    Number of threads for explicit ijk threading:   48

    (T) energy                                =    0.000000000000000
      * CCSD(T) total energy                  =   -1.164501589516618


    Psi4 stopped on: Tuesday, 26 January 2021 06:38PM
    Psi4 wall time for execution: 0:00:01.72

*** Psi4 exiting successfully. Buy a developer a beer!
