
    -----------------------------------------------------------------------
          Psi4: An Open-Source Ab Initio Electronic Structure Package
                               Psi4 1.2a1.dev938 

                         Git: Rev {HEAD} fc51d9a dirty


    R. M. Parrish, L. A. Burns, D. G. A. Smith, A. C. Simmonett,
    A. E. DePrince III, E. G. Hohenstein, U. Bozkaya, A. Yu. Sokolov,
    R. Di Remigio, R. M. Richard, J. F. Gonthier, A. M. James,
    H. R. McAlexander, A. Kumar, M. Saitow, X. Wang, B. P. Pritchard,
    P. Verma, H. F. Schaefer III, K. Patkowski, R. A. King, E. F. Valeev,
    F. A. Evangelista, J. M. Turney, T. D. Crawford, and C. D. Sherrill,
    J. Chem. Theory Comput. 13(7) pp 3185--3197 (2017).
    (doi: 10.1021/acs.jctc.7b00174)

    -----------------------------------------------------------------------


    Psi4 started on: Friday, 21 August 2020 06:49AM

    Process ID: 428107
    PSIDATADIR: /home/irmler/Programs/psi4/beforeGrueneis3/stage/usr/local/psi4/share/psi4
    Memory:     500.0 MiB
    Threads:    4
    
  ==> Input File <==

--------------------------------------------------------------------------
# Any line starting with the # character is a comment line
memory 250000 mb
molecule molecule{
-1 4
C          0.0000000000        0.0000000000        0.0000000000
}

set {
  reference uhf
  basis aug-cc-pv(5+d)z
  scf_type OUT_OF_CORE
  freeze_core true
}

energy('ccsd')
--------------------------------------------------------------------------

  Memory set to 232.831 GiB by Python driver.

*** tstart() called on cqc05
*** at Fri Aug 21 06:49:29 2020

   => Loading Basis Set <=

    Name: AUG-CC-PV(5+D)Z
    Role: ORBITAL
    Keyword: BASIS
    atoms 1 entry C          line   223 file /home/irmler/Programs/psi4/beforeGrueneis3/stage/usr/local/psi4/share/psi4/basis/aug-cc-pv_5pd_z.gbs 


         ---------------------------------------------------------
                                   SCF
            by Justin Turney, Rob Parrish, Andy Simmonett
                             and Daniel Smith
                              UHF Reference
                        4 Threads, 238418 MiB Core
         ---------------------------------------------------------

  ==> Geometry <==

    Molecular point group: d2h
    Geometry (in Angstrom), charge = -1, multiplicity = 4:

       Center              X                  Y                   Z               Mass       
    ------------   -----------------  -----------------  -----------------  -----------------
           C          0.000000000000     0.000000000000     0.000000000000    12.000000000000

  Running in d2h symmetry.

  Rotational constants: A = ************  B = ************  C = ************ [cm^-1]
  Rotational constants: A = ************  B = ************  C = ************ [MHz]
  Nuclear repulsion =    0.000000000000000

  Charge       = -1
  Multiplicity = 4
  Electrons    = 7
  Nalpha       = 5
  Nbeta        = 2

  ==> Algorithm <==

  SCF Algorithm Type is OUT_OF_CORE.
  DIIS enabled.
  MOM disabled.
  Fractional occupation disabled.
  Guess Type is GWH.
  Energy threshold   = 1.00e-08
  Density threshold  = 1.00e-08
  Integral threshold = 0.00e+00

  ==> Primary Basis <==

  Basis Set: AUG-CC-PV(5+D)Z
    Blend: AUG-CC-PV(5+D)Z
    Number of shells: 27
    Number of basis function: 127
    Number of Cartesian functions: 182
    Spherical Harmonics?: true
    Max angular momentum: 5

  ==> Pre-Iterations <==

   -------------------------------------------------------
    Irrep   Nso     Nmo     Nalpha   Nbeta   Ndocc  Nsocc
   -------------------------------------------------------
     Ag        26      26       0       0       0       0
     B1g       11      11       0       0       0       0
     B2g       11      11       0       0       0       0
     B3g       11      11       0       0       0       0
     Au         8       8       0       0       0       0
     B1u       20      20       0       0       0       0
     B2u       20      20       0       0       0       0
     B3u       20      20       0       0       0       0
   -------------------------------------------------------
    Total     127     127       5       2       2       3
   -------------------------------------------------------

  ==> Integral Setup <==

  ==> DiskJK: Disk-Based J/K Matrices <==

    J tasked:                  Yes
    K tasked:                  Yes
    wK tasked:                  No
    Memory (MB):            178813
    Schwarz Cutoff:          1E-12

  Minimum eigenvalue in the overlap matrix is 1.5746248543E-03.
  Using Symmetric Orthogonalization.

  SCF Guess: Generalized Wolfsberg-Helmholtz.

  ==> Iterations <==

                        Total Energy        Delta E     RMS |[F,P]|

    Occupation by irrep:
             Ag   B1g   B2g   B3g    Au   B1u   B2u   B3u 
    DOCC [     1,    0,    0,    0,    0,    0,    0,    1 ]
    SOCC [     1,    0,    0,    0,    0,    1,    1,    0 ]

   @UHF iter   1:   -34.43889644628369   -3.44389e+01   1.16420e-01 
    Occupation by irrep:
             Ag   B1g   B2g   B3g    Au   B1u   B2u   B3u 
    DOCC [     2,    0,    0,    0,    0,    0,    0,    0 ]
    SOCC [     0,    0,    0,    0,    0,    1,    1,    1 ]

   @UHF iter   2:   -34.99582620982645   -5.56930e-01   2.24010e-02 DIIS
   @UHF iter   3:   -36.96298481871309   -1.96716e+00   2.95262e-02 DIIS
   @UHF iter   4:   -37.46576658742769   -5.02782e-01   1.45244e-02 DIIS
   @UHF iter   5:   -37.69535890038168   -2.29592e-01   2.48341e-03 DIIS
   @UHF iter   6:   -37.70943554541992   -1.40766e-02   4.34966e-04 DIIS
   @UHF iter   7:   -37.71010010249444   -6.64557e-04   1.96117e-04 DIIS
   @UHF iter   8:   -37.71024928295328   -1.49180e-04   6.83829e-05 DIIS
   @UHF iter   9:   -37.71026270665863   -1.34237e-05   1.38986e-05 DIIS
   @UHF iter  10:   -37.71026294979674   -2.43138e-07   3.52674e-06 DIIS
   @UHF iter  11:   -37.71026296686272   -1.70660e-08   4.75415e-07 DIIS
   @UHF iter  12:   -37.71026296734851   -4.85784e-10   1.48186e-07 DIIS
   @UHF iter  13:   -37.71026296755888   -2.10377e-10   7.54363e-08 DIIS
   @UHF iter  14:   -37.71026296757577   -1.68896e-11   9.87632e-09 DIIS

  ==> Post-Iterations <==

   @Spin Contamination Metric:   6.925669058E-03
   @S^2 Expected:                3.750000000E+00
   @S^2 Observed:                3.756925669E+00
   @S   Expected:                1.500000000E+00
   @S   Observed:                1.500000000E+00

    Orbital Energies (a.u.)
    -----------------------

    Alpha Occupied:                                                       

       1Ag   -10.975010     2Ag    -0.525500     1B3u   -0.078091  
       1B1u   -0.078091     1B2u   -0.078091  

    Alpha Virtual:                                                        

       2B1u    0.204596     2B2u    0.204596     2B3u    0.204596  
       3Ag     0.244893     4Ag     0.396897     1B2g    0.396897  
       1B1g    0.396897     5Ag     0.396897     1B3g    0.396897  
       3B1u    0.515571     3B2u    0.515571     3B3u    0.515571  
       6Ag     0.669722     4B3u    0.782996     4B2u    0.782996  
       4B1u    0.782996     1Au     0.782996     5B3u    0.782996  
       5B2u    0.782996     5B1u    0.782996     2B3g    0.919186  
       7Ag     0.919186     2B1g    0.919186     2B2g    0.919186  
       8Ag     0.919186     6B3u    1.248903     6B1u    1.248903  
       6B2u    1.248903     9Ag     1.847301     3B2g    1.847301  
       3B1g    1.847301    10Ag     1.847301     3B3g    1.847301  
       4B2g    1.847301     4B1g    1.847301    11Ag     1.847301  
       4B3g    1.847301     7B1u    1.932835     7B2u    1.932835  
       2Au     1.932835     7B3u    1.932835     8B1u    1.932835  
       8B2u    1.932835     8B3u    1.932835    12Ag     1.969828  
      13Ag     2.048978     5B1g    2.048978     5B2g    2.048978  
       5B3g    2.048978    14Ag     2.048978     9B3u    3.048247  
       9B2u    3.048247     9B1u    3.048247    10B3u    3.811093  
      10B1u    3.811093    10B2u    3.811093     3Au     3.811093  
      11B3u    3.811093    11B1u    3.811093    11B2u    3.811093  
      12B3u    3.811093     4Au     3.811093    12B1u    3.811093  
      12B2u    3.811093     6B3g    4.415861    15Ag     4.415861  
       6B2g    4.415861     6B1g    4.415861     7B3g    4.415861  
      16Ag     4.415861     7B2g    4.415861     7B1g    4.415861  
      17Ag     4.415861    13B1u    4.424068    13B2u    4.424068  
       5Au     4.424068    13B3u    4.424068    14B1u    4.424068  
      14B2u    4.424068    14B3u    4.424068    18Ag     4.854813  
       8B1g    4.854813     8B2g    4.854813    19Ag     4.854813  
       8B3g    4.854813    20Ag     6.370528    15B3u    8.863903  
      15B2u    8.863903    15B1u    8.863903    16B1u    9.298145  
      16B2u    9.298145    16B3u    9.298145     6Au     9.298145  
      17B1u    9.298145    17B2u    9.298145    17B3u    9.298145  
       7Au     9.298145    18B1u    9.298145    18B2u    9.298145  
      18B3u    9.298145    19B1u   10.430442    19B2u   10.430442  
      19B3u   10.430442     8Au    10.430442    20B1u   10.430442  
      20B2u   10.430442    20B3u   10.430442     9B3g   10.729541  
      21Ag    10.729541     9B1g   10.729541     9B2g   10.729541  
      10B3g   10.729541    22Ag    10.729541    10B2g   10.729541  
      10B1g   10.729541    23Ag    10.729541    24Ag    12.318489  
      11B3g   12.318489    11B1g   12.318489    11B2g   12.318489  
      25Ag    12.318489    26Ag    34.495530  

    Beta Occupied:                                                        

       1Ag   -10.926772     2Ag    -0.212836  

    Beta Virtual:                                                         

       1B3u    0.197929     1B1u    0.197929     1B2u    0.197929  
       3Ag     0.263658     2B3u    0.388886     2B1u    0.388886  
       2B2u    0.388886     4Ag     0.412751     1B2g    0.412751  
       1B1g    0.412751     1B3g    0.412751     5Ag     0.412751  
       3B3u    0.641992     3B2u    0.641992     3B1u    0.641992  
       6Ag     0.726552     4B3u    0.797569     4B1u    0.797569  
       4B2u    0.797569     1Au     0.797569     5B3u    0.797569  
       5B2u    0.797569     5B1u    0.797569     7Ag     0.987713  
       2B1g    0.987713     2B2g    0.987713     2B3g    0.987713  
       8Ag     0.987713     6B3u    1.346346     6B2u    1.346346  
       6B1u    1.346346     9Ag     1.866922     3B2g    1.866922  
       3B1g    1.866922    10Ag     1.866922     3B3g    1.866922  
       4B1g    1.866922     4B2g    1.866922    11Ag     1.866922  
       4B3g    1.866922     7B3u    1.975566     7B2u    1.975566  
       7B1u    1.975566     8B3u    1.975566     2Au     1.975566  
       8B1u    1.975566     8B2u    1.975566    12Ag     2.044058  
      13Ag     2.149520     5B1g    2.149520     5B2g    2.149520  
       5B3g    2.149520    14Ag     2.149520     9B2u    3.128013  
       9B1u    3.128013     9B3u    3.128013    10B3u    3.832492  
      10B1u    3.832492    10B2u    3.832492     3Au     3.832492  
      11B3u    3.832492    11B1u    3.832492    11B2u    3.832492  
       4Au     3.832492    12B3u    3.832492    12B1u    3.832492  
      12B2u    3.832492    15Ag     4.452324     6B1g    4.452324  
       6B2g    4.452324     6B3g    4.452324    16Ag     4.452324  
       7B1g    4.452324     7B2g    4.452324     7B3g    4.452324  
      17Ag     4.452324    13B3u    4.483760    13B1u    4.483760  
      13B2u    4.483760     5Au     4.483760    14B3u    4.483760  
      14B1u    4.483760    14B2u    4.483760    18Ag     4.938236  
       8B3g    4.938236     8B1g    4.938236     8B2g    4.938236  
      19Ag     4.938236    20Ag     6.428722    15B2u    8.914318  
      15B1u    8.914318    15B3u    8.914318    16B1u    9.329499  
      16B2u    9.329499     6Au     9.329499    16B3u    9.329499  
      17B1u    9.329499    17B2u    9.329499     7Au     9.329499  
      17B3u    9.329499    18B1u    9.329499    18B2u    9.329499  
      18B3u    9.329499    19B1u   10.482276    19B2u   10.482276  
      19B3u   10.482276     8Au    10.482276    20B1u   10.482276  
      20B2u   10.482276    20B3u   10.482276    21Ag    10.771897  
       9B3g   10.771897     9B2g   10.771897     9B1g   10.771897  
      10B3g   10.771897    22Ag    10.771897    10B2g   10.771897  
      10B1g   10.771897    23Ag    10.771897    24Ag    12.368489  
      11B3g   12.368489    11B1g   12.368489    11B2g   12.368489  
      25Ag    12.368489    26Ag    34.516085  

    Final Occupation by Irrep:
             Ag   B1g   B2g   B3g    Au   B1u   B2u   B3u 
    DOCC [     2,    0,    0,    0,    0,    0,    0,    0 ]
    SOCC [     0,    0,    0,    0,    0,    1,    1,    1 ]

  Energy converged.

  @UHF Final Energy:   -37.71026296757577

   => Energetics <=

    Nuclear Repulsion Energy =              0.0000000000000000
    One-Electron Energy =                 -52.5461334722931284
    Two-Electron Energy =                  14.8358705047173558
    Total Energy =                        -37.7102629675757726


  UHF NO Occupations:
  HONO-2 :    1B3u 1.0000000
  HONO-1 :    1B1u 1.0000000
  HONO-0 :    1B2u 1.0000000
  LUNO+0 :    3 Ag 0.0034654
  LUNO+1 :    4 Ag 0.0000034
  LUNO+2 :    5 Ag 0.0000000
  LUNO+3 :    2B3u 0.0000000



Properties will be evaluated at   0.000000,   0.000000,   0.000000 Bohr

Properties computed using the SCF density matrix

  Nuclear Dipole Moment: (a.u.)
     X:     0.0000      Y:     0.0000      Z:     0.0000

  Electronic Dipole Moment: (a.u.)
     X:     0.0000      Y:     0.0000      Z:     0.0000

  Dipole Moment: (a.u.)
     X:     0.0000      Y:     0.0000      Z:     0.0000     Total:     0.0000

  Dipole Moment: (Debye)
     X:     0.0000      Y:     0.0000      Z:     0.0000     Total:     0.0000


*** tstop() called on cqc05 at Fri Aug 21 06:49:35 2020
Module time:
	user time   =       6.52 seconds =       0.11 minutes
	system time =       0.22 seconds =       0.00 minutes
	total time  =          6 seconds =       0.10 minutes
Total time:
	user time   =       6.52 seconds =       0.11 minutes
	system time =       0.22 seconds =       0.00 minutes
	total time  =          6 seconds =       0.10 minutes

*** tstart() called on cqc05
*** at Fri Aug 21 06:49:35 2020


	Wfn Parameters:
	--------------------
	Wavefunction         = CCSD
	Number of irreps     = 8
	Number of MOs        = 127
	Number of active MOs = 126
	AO-Basis             = NONE
	Semicanonical        = false
	Reference            = UHF
	Print Level          = 1

	IRREP	# MOs	# FZDC	# DOCC	# SOCC	# VIRT	# FZVR
	-----	-----	------	------	------	------	------
	 Ag	   26	    1	    1	    0	    24	    0
	 B1g	   11	    0	    0	    0	    11	    0
	 B2g	   11	    0	    0	    0	    11	    0
	 B3g	   11	    0	    0	    0	    11	    0
	 Au	   8	    0	    0	    0	    8	    0
	 B1u	   20	    0	    0	    1	    19	    0
	 B2u	   20	    0	    0	    1	    19	    0
	 B3u	   20	    0	    0	    1	    19	    0
	Transforming integrals...
	IWL integrals will be deleted.
	(OO|OO)...
	Presorting SO-basis two-electron integrals.
	Sorting File: SO Ints (nn|nn) nbuckets = 1
	Transforming the one-electron integrals and constructing Fock matrices
	Starting AA/AB first half-transformation.
	Sorting AA/AB half-transformed integrals.
	Starting BB first half-transformation.
	Sorting BB half-transformed integrals.
	First half integral transformation complete.
	Starting AA second half-transformation.
	Starting AB second half-transformation.
	Starting BB second half-transformation.
	Two-electron integral transformation complete.
	(OO|OV)...
	Starting AA second half-transformation.
	Starting AB second half-transformation.
	Starting BB second half-transformation.
	Two-electron integral transformation complete.
	(OO|VV)...
	Starting AA second half-transformation.
	Starting AB second half-transformation.
	Starting BB second half-transformation.
	Two-electron integral transformation complete.
	(OV|OO)...
	Starting AA/AB first half-transformation.
	Sorting AA/AB half-transformed integrals.
	Starting BB first half-transformation.
	Sorting BB half-transformed integrals.
	First half integral transformation complete.
	Starting AA second half-transformation.
	Starting AB second half-transformation.
	Starting BB second half-transformation.
	Two-electron integral transformation complete.
	(OV|OV)...
	Starting AA second half-transformation.
	Starting AB second half-transformation.
	Starting BB second half-transformation.
	Two-electron integral transformation complete.
	(OV|VV)...
	Starting AA second half-transformation.
	Starting AB second half-transformation.
	Starting BB second half-transformation.
	Two-electron integral transformation complete.
	(VV|OO)...
	Starting AA/AB first half-transformation.
	Sorting AA/AB half-transformed integrals.
	Starting BB first half-transformation.
	Sorting BB half-transformed integrals.
	First half integral transformation complete.
	Starting AA second half-transformation.
	Starting AB second half-transformation.
	Starting BB second half-transformation.
	Two-electron integral transformation complete.
	(VV|OV)...
	Starting AA second half-transformation.
	Starting AB second half-transformation.
	Starting BB second half-transformation.
	Two-electron integral transformation complete.
	(VV|VV)...
	Starting AA second half-transformation.
	Starting AB second half-transformation.
	Starting BB second half-transformation.
	Two-electron integral transformation complete.
	Frozen core energy     =    -32.35984135164136

	Size of irrep 0 of <AB|CD> integrals:      0.964 (MW) /      7.715 (MB)
	Size of irrep 1 of <AB|CD> integrals:      0.806 (MW) /      6.451 (MB)
	Size of irrep 2 of <AB|CD> integrals:      0.806 (MW) /      6.451 (MB)
	Size of irrep 3 of <AB|CD> integrals:      0.806 (MW) /      6.451 (MB)
	Size of irrep 4 of <AB|CD> integrals:      0.671 (MW) /      5.366 (MB)
	Size of irrep 5 of <AB|CD> integrals:      0.925 (MW) /      7.404 (MB)
	Size of irrep 6 of <AB|CD> integrals:      0.925 (MW) /      7.404 (MB)
	Size of irrep 7 of <AB|CD> integrals:      0.925 (MW) /      7.404 (MB)
	Total:                                     6.831 (MW) /     54.645 (MB)

	Size of irrep 0 of <ab|cd> integrals:      1.080 (MW) /      8.636 (MB)
	Size of irrep 1 of <ab|cd> integrals:      0.893 (MW) /      7.144 (MB)
	Size of irrep 2 of <ab|cd> integrals:      0.893 (MW) /      7.144 (MB)
	Size of irrep 3 of <ab|cd> integrals:      0.893 (MW) /      7.144 (MB)
	Size of irrep 4 of <ab|cd> integrals:      0.726 (MW) /      5.807 (MB)
	Size of irrep 5 of <ab|cd> integrals:      1.016 (MW) /      8.129 (MB)
	Size of irrep 6 of <ab|cd> integrals:      1.016 (MW) /      8.129 (MB)
	Size of irrep 7 of <ab|cd> integrals:      1.016 (MW) /      8.129 (MB)
	Total:                                     7.533 (MW) /     60.262 (MB)

	Size of irrep 0 of <Ab|Cd> integrals:      4.592 (MW) /     36.740 (MB)
	Size of irrep 1 of <Ab|Cd> integrals:      3.393 (MW) /     27.144 (MB)
	Size of irrep 2 of <Ab|Cd> integrals:      3.393 (MW) /     27.144 (MB)
	Size of irrep 3 of <Ab|Cd> integrals:      3.393 (MW) /     27.144 (MB)
	Size of irrep 4 of <Ab|Cd> integrals:      2.792 (MW) /     22.338 (MB)
	Size of irrep 5 of <Ab|Cd> integrals:      3.881 (MW) /     31.047 (MB)
	Size of irrep 6 of <Ab|Cd> integrals:      3.881 (MW) /     31.047 (MB)
	Size of irrep 7 of <Ab|Cd> integrals:      3.881 (MW) /     31.047 (MB)
	Total:                                    29.206 (MW) /    233.650 (MB)

	Size of irrep 0 of <IA|BC> integrals:      0.169 (MW) /      1.352 (MB)
	Size of irrep 1 of <IA|BC> integrals:      0.102 (MW) /      0.819 (MB)
	Size of irrep 2 of <IA|BC> integrals:      0.102 (MW) /      0.819 (MB)
	Size of irrep 3 of <IA|BC> integrals:      0.102 (MW) /      0.819 (MB)
	Size of irrep 4 of <IA|BC> integrals:      0.067 (MW) /      0.537 (MB)
	Size of irrep 5 of <IA|BC> integrals:      0.125 (MW) /      1.000 (MB)
	Size of irrep 6 of <IA|BC> integrals:      0.125 (MW) /      1.000 (MB)
	Size of irrep 7 of <IA|BC> integrals:      0.125 (MW) /      1.000 (MB)
	Total:                                     0.918 (MW) /      7.347 (MB)

	Size of irrep 0 of <ia|bc> integrals:      0.053 (MW) /      0.423 (MB)
	Size of irrep 1 of <ia|bc> integrals:      0.021 (MW) /      0.166 (MB)
	Size of irrep 2 of <ia|bc> integrals:      0.021 (MW) /      0.166 (MB)
	Size of irrep 3 of <ia|bc> integrals:      0.021 (MW) /      0.166 (MB)
	Size of irrep 4 of <ia|bc> integrals:      0.014 (MW) /      0.109 (MB)
	Size of irrep 5 of <ia|bc> integrals:      0.040 (MW) /      0.323 (MB)
	Size of irrep 6 of <ia|bc> integrals:      0.040 (MW) /      0.323 (MB)
	Size of irrep 7 of <ia|bc> integrals:      0.040 (MW) /      0.323 (MB)
	Total:                                     0.250 (MW) /      1.999 (MB)

	Size of irrep 0 of <Ia|Bc> integrals:      0.180 (MW) /      1.440 (MB)
	Size of irrep 1 of <Ia|Bc> integrals:      0.109 (MW) /      0.869 (MB)
	Size of irrep 2 of <Ia|Bc> integrals:      0.109 (MW) /      0.869 (MB)
	Size of irrep 3 of <Ia|Bc> integrals:      0.109 (MW) /      0.869 (MB)
	Size of irrep 4 of <Ia|Bc> integrals:      0.069 (MW) /      0.548 (MB)
	Size of irrep 5 of <Ia|Bc> integrals:      0.130 (MW) /      1.040 (MB)
	Size of irrep 6 of <Ia|Bc> integrals:      0.130 (MW) /      1.040 (MB)
	Size of irrep 7 of <Ia|Bc> integrals:      0.130 (MW) /      1.040 (MB)
	Total:                                     0.965 (MW) /      7.717 (MB)

	Size of irrep 0 of <iA|bC> integrals:      0.051 (MW) /      0.411 (MB)
	Size of irrep 1 of <iA|bC> integrals:      0.020 (MW) /      0.162 (MB)
	Size of irrep 2 of <iA|bC> integrals:      0.020 (MW) /      0.162 (MB)
	Size of irrep 3 of <iA|bC> integrals:      0.020 (MW) /      0.162 (MB)
	Size of irrep 4 of <iA|bC> integrals:      0.013 (MW) /      0.107 (MB)
	Size of irrep 5 of <iA|bC> integrals:      0.037 (MW) /      0.299 (MB)
	Size of irrep 6 of <iA|bC> integrals:      0.037 (MW) /      0.299 (MB)
	Size of irrep 7 of <iA|bC> integrals:      0.037 (MW) /      0.299 (MB)
	Total:                                     0.238 (MW) /      1.903 (MB)

	Size of irrep 0 of tIjAb amplitudes:       0.002 (MW) /      0.017 (MB)
	Size of irrep 1 of tIjAb amplitudes:       0.000 (MW) /      0.000 (MB)
	Size of irrep 2 of tIjAb amplitudes:       0.000 (MW) /      0.000 (MB)
	Size of irrep 3 of tIjAb amplitudes:       0.000 (MW) /      0.000 (MB)
	Size of irrep 4 of tIjAb amplitudes:       0.000 (MW) /      0.000 (MB)
	Size of irrep 5 of tIjAb amplitudes:       0.002 (MW) /      0.016 (MB)
	Size of irrep 6 of tIjAb amplitudes:       0.002 (MW) /      0.016 (MB)
	Size of irrep 7 of tIjAb amplitudes:       0.002 (MW) /      0.016 (MB)
	Total:                                     0.008 (MW) /      0.064 (MB)

	Nuclear Rep. energy          =      0.00000000000000
	SCF energy                   =    -37.71026296757577
	One-electron energy          =     -9.72823306958095
	Two-electron (AA) energy     =      2.40708861838832
	Two-electron (BB) energy     =      0.00000000000000
	Two-electron (AB) energy     =      1.97072283525776
	Two-electron energy          =      4.37781145364608
	Reference energy             =    -37.71026296757623

*** tstop() called on cqc05 at Fri Aug 21 06:49:39 2020
Module time:
	user time   =       2.32 seconds =       0.04 minutes
	system time =       1.35 seconds =       0.02 minutes
	total time  =          4 seconds =       0.07 minutes
Total time:
	user time   =       8.84 seconds =       0.15 minutes
	system time =       1.57 seconds =       0.03 minutes
	total time  =         10 seconds =       0.17 minutes

*** tstart() called on cqc05
*** at Fri Aug 21 06:49:39 2020

            **************************
            *                        *
            *        CCENERGY        *
            *                        *
            **************************

    Nuclear Rep. energy (wfn)     =    0.000000000000000
    SCF energy          (wfn)     =  -37.710262967575773
    Reference energy    (file100) =  -37.710262967576234

    Input parameters:
    -----------------
    Wave function   =     CCSD
    Reference wfn   =     UHF
    Brueckner       =     No
    Memory (Mbytes) =     250000.0
    Maxiter         =     50
    R_Convergence   =     1.0e-07
    E_Convergence   =     1.0e-06
    Restart         =     Yes
    DIIS            =     Yes
    AO Basis        =     NONE
    ABCD            =     NEW
    Cache Level     =     2
    Cache Type      =     LRU
    Print Level     =     1
    Num. of threads =     4
    # Amps to Print =     10
    Print MP2 Amps? =     No
    Analyze T2 Amps =     No
    Print Pair Ener =     No
    Local CC        =     No
    SCS-MP2         =     False
    SCSN-MP2        =     False
    SCS-CCSD        =     False

MP2 correlation energy -0.1054431342945677
                Solving CC Amplitude Equations
                ------------------------------
  Iter             Energy              RMS        T1Diag      D1Diag    New D1Diag    D2Diag
  ----     ---------------------    ---------   ----------  ----------  ----------   --------
     0        -0.105443134294577    0.000e+00    0.000000    0.000000    0.000000    0.000000
     1        -0.114139104308622    4.422e-02    0.011981    0.000000    0.000000    0.000000
     2        -0.117790715130284    1.939e-02    0.018816    0.000000    0.000000    0.000000
     3        -0.118524431712766    1.094e-02    0.024845    0.000000    0.000000    0.000000
     4        -0.118423859405200    4.733e-03    0.028770    0.000000    0.000000    0.000000
     5        -0.118445013711047    1.451e-03    0.029858    0.000000    0.000000    0.000000
     6        -0.118427811401555    3.664e-04    0.029890    0.000000    0.000000    0.000000
     7        -0.118431486907021    1.211e-04    0.029929    0.000000    0.000000    0.000000
     8        -0.118431554762657    3.657e-05    0.029927    0.000000    0.000000    0.000000
     9        -0.118431272549161    1.489e-05    0.029924    0.000000    0.000000    0.000000
    10        -0.118431498614546    6.779e-06    0.029922    0.000000    0.000000    0.000000
    11        -0.118431556485593    2.459e-06    0.029921    0.000000    0.000000    0.000000
    12        -0.118431577144588    6.655e-07    0.029921    0.000000    0.000000    0.000000
    13        -0.118431569005743    1.564e-07    0.029921    0.000000    0.000000    0.000000
    14        -0.118431568579404    6.409e-08    0.029921    0.000000    0.000000    0.000000
    14        -0.118431568579404    6.409e-08    0.029921    0.000000    0.000000    0.000000

    Iterations converged.


    CCSD corr. energy   =   -0.118431568579404
    PPL corr. energy    =    0.034676165395080
    OS PPL corr. energy =    0.026629966705116
    SS PPL corr. energy =    0.008046198689962
    Largest TIA Amplitudes:
              1  65        -0.0352097983
              2  84        -0.0352097983
              3 103        -0.0352079441
              0   0        -0.0085789771
              1  66        -0.0081760837
              2  85        -0.0081760837
              3 104        -0.0081750578
              3 107         0.0064840396
              1  69         0.0064837560
              2  88         0.0064837560

    Largest Tia Amplitudes:
              0   3         0.0135094321
              0   9        -0.0080006049
              0   0        -0.0076660689
              0  17         0.0011487309
              0  23         0.0000167184
              0  10         0.0000000416
              0   4        -0.0000000349
              0  16        -0.0000000134

    Largest TIJAB Amplitudes:
      2   1  85  66        -0.0426861354
      3   2 104  85        -0.0426860751
      3   1 104  66        -0.0426860751
      2   1  84  66        -0.0320465244
      2   1  85  65        -0.0320465244
      3   2 104  84        -0.0320464709
      3   1 104  65        -0.0320464709
      3   2 103  85        -0.0320463159
      3   1 103  66        -0.0320463159
      2   1  84  65        -0.0283527542

    Largest TIjAb Amplitudes:
      3   0   5 106        -0.0392452621
      3   0   5 107        -0.0352805783
      2   0   4  86        -0.0339875063
      3   0  25  86         0.0339873987
      3   0  36  66         0.0339873987
      1   0  47  86         0.0339873970
      2   0  47  66         0.0339873970
      1   0  36 106         0.0339873940
      2   0  25 106         0.0339873940
      1   0   4  66         0.0339872877

    SCF energy       (wfn)                    =  -37.710262967575773
    Reference energy (file100)                =  -37.710262967576234

    Opposite-spin MP2 correlation energy      =   -0.071986504817145
    Same-spin MP2 correlation energy          =   -0.033456629477174
    MP2 correlation energy                    =   -0.105443134294568
      * MP2 total energy                      =  -37.815706101870802

    Opposite-spin CCSD correlation energy     =   -0.081742104846249
    Same-spin CCSD correlation energy         =   -0.036689453034213
    CCSD correlation energy                   =   -0.118431568579404
      * CCSD total energy                     =  -37.828694536155638


*** tstop() called on cqc05 at Fri Aug 21 06:49:43 2020
Module time:
	user time   =       1.66 seconds =       0.03 minutes
	system time =       1.23 seconds =       0.02 minutes
	total time  =          4 seconds =       0.07 minutes
Total time:
	user time   =      10.50 seconds =       0.17 minutes
	system time =       2.80 seconds =       0.05 minutes
	total time  =         14 seconds =       0.23 minutes

*** Psi4 exiting successfully. Buy a developer a beer!
