
    -----------------------------------------------------------------------
          Psi4: An Open-Source Ab Initio Electronic Structure Package
                               Psi4 1.4a3.dev88 

                         Git: Rev {master} 262e345 


    D. G. A. Smith, L. A. Burns, A. C. Simmonett, R. M. Parrish,
    M. C. Schieber, R. Galvelis, P. Kraus, H. Kruse, R. Di Remigio,
    A. Alenaizan, A. M. James, S. Lehtola, J. P. Misiewicz, M. Scheurer,
    R. A. Shaw, J. B. Schriber, Y. Xie, Z. L. Glick, D. A. Sirianni,
    J. S. O'Brien, J. M. Waldrop, A. Kumar, E. G. Hohenstein,
    B. P. Pritchard, B. R. Brooks, H. F. Schaefer III, A. Yu. Sokolov,
    K. Patkowski, A. E. DePrince III, U. Bozkaya, R. A. King,
    F. A. Evangelista, J. M. Turney, T. D. Crawford, C. D. Sherrill,
    J. Chem. Phys. 152(18) 184108 (2020). https://doi.org/10.1063/5.0006002

                            Additional Code Authors
    E. T. Seidl, C. L. Janssen, E. F. Valeev, M. L. Leininger,
    J. F. Gonthier, R. M. Richard, H. R. McAlexander, M. Saitow, X. Wang,
    P. Verma, and M. H. Lechner

             Previous Authors, Complete List of Code Contributors,
                       and Citations for Specific Modules
    https://github.com/psi4/psi4/blob/master/codemeta.json
    https://github.com/psi4/psi4/graphs/contributors
    http://psicode.org/psi4manual/master/introduction.html#citing-psifour

    -----------------------------------------------------------------------


    Psi4 started on: Wednesday, 20 January 2021 09:45PM

    Process ID: 6550
    Host:       l43
    PSIDATADIR: /home/fs71337/gallo4/psi4/psi4/build/stage/share/psi4
    Memory:     500.0 MiB
    Threads:    48
    
  ==> Input File <==

--------------------------------------------------------------------------
# Any line starting with the # character is a comment line
memory 250000 mb
molecule molecule{
1 2
S          0.0000000000        0.0000000000       -0.0360188224
H          0.0000000000        1.2107116222        0.5728334257
H          0.0000000000       -1.2107116222        0.5728334257
}

set {
  reference uhf
  basis aug-cc-pV(Q+d)Z
  scf_type OUT_OF_CORE
  freeze_core true
}

energy('ccsd(t)')
--------------------------------------------------------------------------

  Memory set to 232.831 GiB by Python driver.

Scratch directory: /tmp/

*** tstart() called on l43
*** at Wed Jan 20 21:45:18 2021

   => Loading Basis Set <=

    Name: AUG-CC-PV(Q+D)Z
    Role: ORBITAL
    Keyword: BASIS
    atoms 1   entry S          line  1164 file /home/fs71337/gallo4/psi4/psi4/build/stage/share/psi4/basis/aug-cc-pv_qpd_z.gbs 
    atoms 2-3 entry H          line    68 file /home/fs71337/gallo4/psi4/psi4/build/stage/share/psi4/basis/aug-cc-pv_qpd_z.gbs 


         ---------------------------------------------------------
                                   SCF
               by Justin Turney, Rob Parrish, Andy Simmonett
                          and Daniel G. A. Smith
                              UHF Reference
                       48 Threads, 238418 MiB Core
         ---------------------------------------------------------

  ==> Geometry <==

    Molecular point group: c2v
    Full point group: C2v

    Geometry (in Angstrom), charge = 1, multiplicity = 2:

       Center              X                  Y                   Z               Mass       
    ------------   -----------------  -----------------  -----------------  -----------------
         S            0.000000000000     0.000000000000    -0.036108130478    31.972071174400
         H           -0.000000000000     1.210711622200     0.572744117622     1.007825032230
         H            0.000000000000    -1.210711622200     0.572744117622     1.007825032230

  Running in c2v symmetry.

  Rotational constants: A =     23.98329  B =      5.70558  C =      4.60909 [cm^-1]
  Rotational constants: A = 719001.02774  B = 171049.03946  C = 138176.98543 [MHz]
  Nuclear repulsion =   12.714016855715149

  Charge       = 1
  Multiplicity = 2
  Electrons    = 17
  Nalpha       = 9
  Nbeta        = 8

  ==> Algorithm <==

  SCF Algorithm Type is OUT_OF_CORE.
  DIIS enabled.
  MOM disabled.
  Fractional occupation disabled.
  Guess Type is SAD.
  Energy threshold   = 1.00e-08
  Density threshold  = 1.00e-08
  Integral threshold = 1.00e-12

  ==> Primary Basis <==

  Basis Set: AUG-CC-PV(Q+D)Z
    Blend: AUG-CC-PV(Q+D)Z
    Number of shells: 51
    Number of basis function: 181
    Number of Cartesian functions: 225
    Spherical Harmonics?: true
    Max angular momentum: 4

  ==> Integral Setup <==

  ==> DiskJK: Disk-Based J/K Matrices <==

    J tasked:                  Yes
    K tasked:                  Yes
    wK tasked:                  No
    Memory [MiB]:           178813
    Schwarz Cutoff:          1E-12

  Minimum eigenvalue in the overlap matrix is 5.4905701077E-05.
  Reciprocal condition number of the overlap matrix is 8.3826691507E-06.
    Using symmetric orthogonalization.

  ==> Pre-Iterations <==

  SCF Guess: Superposition of Atomic Densities via on-the-fly atomic UHF (no occupation information).


 WARNING: Atomic UHF is not converging! Try casting from a smaller basis or call Rob at CCMST.

 WARNING: Atomic UHF is not converging! Try casting from a smaller basis or call Rob at CCMST.
   -------------------------
    Irrep   Nso     Nmo    
   -------------------------
     A1        65      65 
     A2        28      28 
     B1        37      37 
     B2        51      51 
   -------------------------
    Total     181     181
   -------------------------

  ==> Iterations <==

                        Total Energy        Delta E     RMS |[F,P]|

   @UHF iter SAD:  -393.40595162212918   -3.93406e+02   0.00000e+00 
   @UHF iter   1:  -398.24124449565181   -4.83529e+00   2.79295e-03 DIIS
   @UHF iter   2:  -398.28741950115983   -4.61750e-02   8.62055e-04 DIIS
   @UHF iter   3:  -398.29148083740785   -4.06134e-03   3.01992e-04 DIIS
   @UHF iter   4:  -398.29270232866673   -1.22149e-03   9.98343e-05 DIIS
   @UHF iter   5:  -398.29286728032946   -1.64952e-04   3.34823e-05 DIIS
   @UHF iter   6:  -398.29289058003462   -2.32997e-05   1.44930e-05 DIIS
   @UHF iter   7:  -398.29289535462414   -4.77459e-06   3.27299e-06 DIIS
   @UHF iter   8:  -398.29289551311774   -1.58494e-07   7.26849e-07 DIIS
   @UHF iter   9:  -398.29289551977450   -6.65676e-09   1.33182e-07 DIIS
   @UHF iter  10:  -398.29289552000290   -2.28397e-10   2.05832e-08 DIIS
   @UHF iter  11:  -398.29289552000785   -4.94538e-12   3.41277e-09 DIIS
  Energy and wave function converged.


  ==> Post-Iterations <==

   @Spin Contamination Metric:   1.581087866E-02
   @S^2 Expected:                7.500000000E-01
   @S^2 Observed:                7.658108787E-01
   @S   Expected:                5.000000000E-01
   @S   Observed:                5.000000000E-01

    Orbital Energies [Eh]
    ---------------------

    Alpha Occupied:                                                       

       1A1   -92.348993     2A1    -9.349798     3A1    -7.044681  
       1B1    -7.027922     1B2    -7.027367     4A1    -1.347355  
       2B2    -0.975790     5A1    -0.859596     2B1    -0.729727  

    Alpha Virtual:                                                        

       6A1    -0.175697     3B2    -0.113221     7A1    -0.109500  
       4B2    -0.088421     8A1    -0.076301     3B1    -0.068313  
       9A1    -0.030352     1A2    -0.025693     5B2    -0.016557  
       4B1    -0.013183    10A1    -0.012244     6B2     0.057879  
      11A1     0.076074    12A1     0.082881     7B2     0.084406  
       5B1     0.093080     8B2     0.115235     2A2     0.115598  
      13A1     0.122721    14A1     0.182472     9B2     0.205700  
       6B1     0.207003     3A2     0.217073    15A1     0.224541  
       7B1     0.235753    16A1     0.244822     8B1     0.325382  
      17A1     0.345844    10B2     0.362468    18A1     0.365032  
      11B2     0.381121     9B1     0.415376     4A2     0.426123  
      12B2     0.433199    13B2     0.468889    19A1     0.495407  
       5A2     0.509847    20A1     0.524868    10B1     0.533593  
       6A2     0.550488    21A1     0.560139    14B2     0.561142  
      22A1     0.642442    15B2     0.668950    16B2     0.692280  
      11B1     0.712836    23A1     0.718367    24A1     0.891611  
      12B1     0.921464     7A2     0.972957    17B2     0.976290  
      18B2     1.012226    25A1     1.014187    13B1     1.028373  
       8A2     1.053521    26A1     1.067828    19B2     1.129093  
      27A1     1.157578    14B1     1.183624    15B1     1.207794  
      28A1     1.209164    29A1     1.234236    16B1     1.251063  
      20B2     1.281767     9A2     1.302927    30A1     1.341101  
      17B1     1.354642    21B2     1.365313    10A2     1.396431  
      31A1     1.399208    11A2     1.466991    22B2     1.474345  
      23B2     1.494959    18B1     1.527873    24B2     1.549851  
      32A1     1.580038    33A1     1.625919    12A2     1.626406  
      25B2     1.643108    34A1     1.664172    35A1     1.715969  
      19B1     1.718295    13A2     1.734788    26B2     1.790930  
      36A1     1.793149    20B1     1.934619    14A2     2.001066  
      27B2     2.032233    21B1     2.067933    37A1     2.107212  
      38A1     2.176049    28B2     2.241998    29B2     2.283192  
      22B1     2.474894    39A1     2.481626    40A1     2.569031  
      15A2     2.572577    30B2     2.645959    41A1     2.782916  
      23B1     2.799448    31B2     2.812182    24B1     2.821349  
      16A2     2.824214    42A1     2.877032    32B2     2.927482  
      17A2     2.944154    43A1     3.116701    33B2     3.218817  
      44A1     3.226702    25B1     3.245753    45A1     3.322988  
      18A2     3.342880    26B1     3.343929    34B2     3.361626  
      46A1     3.409897    35B2     3.484247    27B1     3.535836  
      47A1     3.539636    28B1     3.578090    19A2     3.581445  
      48A1     3.607765    36B2     3.684994    20A2     3.749489  
      37B2     3.948235    49A1     3.968826    38B2     4.207795  
      29B1     4.274090    21A2     4.380529    50A1     4.478884  
      39B2     4.499166    51A1     4.646234    30B1     5.591219  
      52A1     6.038209    22A2     6.267602    40B2     6.289614  
      31B1     6.294692    53A1     6.316715    32B1     6.510395  
      54A1     6.591408    41B2     6.652918    23A2     6.802146  
      42B2     6.804166    55A1     6.930205    24A2     6.983791  
      43B2     6.986621    33B1     7.193437    56A1     7.452629  
      44B2     7.620533    57A1     7.797456    45B2     7.882559  
      34B1     8.218751    25A2     8.234771    46B2     8.263595  
      35B1     8.301482    47B2     8.402652    58A1     8.406730  
      26A2     8.510041    59A1     8.537385    27A2     8.888056  
      36B1     8.916008    60A1     8.936890    61A1     9.121712  
      37B1     9.123361    48B2     9.233414    28A2     9.277973  
      62A1     9.316996    49B2     9.383513    63A1     9.465184  
      50B2     9.775284    64A1    10.558969    51B2    11.163783  
      65A1    21.212435  

    Beta Occupied:                                                        

       1A1   -92.339683     2A1    -9.338004     1B2    -7.023367  
       1B1    -7.021444     3A1    -7.008262     4A1    -1.262398  
       2B2    -0.943395     2B1    -0.700632  

    Beta Virtual:                                                         

       5A1    -0.354867     6A1    -0.161179     7A1    -0.105089  
       3B2    -0.093664     4B2    -0.068812     3B1    -0.066772  
       8A1    -0.064590     1A2    -0.025454     9A1    -0.023795  
       5B2    -0.012926    10A1     0.002445     4B1     0.003093  
       6B2     0.071366    11A1     0.082222    12A1     0.088844  
       7B2     0.090774     5B1     0.093395     2A2     0.116565  
       8B2     0.120130    13A1     0.135221    14A1     0.193246  
       9B2     0.206970     6B1     0.214324     3A2     0.218496  
      15A1     0.256353    16A1     0.270901     7B1     0.273316  
       8B1     0.330457    17A1     0.351349    10B2     0.368482  
      18A1     0.374737    11B2     0.397031     9B1     0.415900  
       4A2     0.431746    12B2     0.439662    13B2     0.476172  
      19A1     0.501533     5A2     0.511761    20A1     0.530690  
      10B1     0.538122     6A2     0.551032    14B2     0.562424  
      21A1     0.564723    22A1     0.649194    15B2     0.674438  
      16B2     0.696848    11B1     0.715257    23A1     0.750622  
      24A1     0.899011    12B1     0.933554     7A2     0.976080  
      17B2     0.995143    18B2     1.025387    25A1     1.043601  
      13B1     1.049720     8A2     1.065070    26A1     1.084554  
      19B2     1.138257    27A1     1.168260    14B1     1.190408  
      28A1     1.224895    15B1     1.230064    29A1     1.254644  
      16B1     1.261138    20B2     1.287417     9A2     1.306943  
      30A1     1.345739    17B1     1.362849    21B2     1.374174  
      10A2     1.401223    31A1     1.403272    11A2     1.475168  
      22B2     1.483783    23B2     1.501898    18B1     1.529850  
      24B2     1.556956    32A1     1.585381    12A2     1.628251  
      33A1     1.639552    25B2     1.646373    34A1     1.678497  
      35A1     1.720681    19B1     1.721821    13A2     1.736129  
      26B2     1.796441    36A1     1.811148    20B1     1.936864  
      14A2     2.009009    27B2     2.040958    21B1     2.070586  
      37A1     2.119171    38A1     2.186555    28B2     2.251723  
      29B2     2.290613    22B1     2.485838    39A1     2.497029  
      15A2     2.578378    40A1     2.578843    30B2     2.652801  
      41A1     2.790076    23B1     2.806157    31B2     2.820087  
      16A2     2.829327    24B1     2.833385    42A1     2.888968  
      32B2     2.937747    17A2     2.949663    43A1     3.124081  
      33B2     3.228868    44A1     3.237442    25B1     3.247918  
      45A1     3.349973    18A2     3.352913    34B2     3.370984  
      26B1     3.373502    46A1     3.425911    35B2     3.492532  
      27B1     3.558244    47A1     3.561375    19A2     3.587912  
      28B1     3.592394    48A1     3.612463    36B2     3.708753  
      20A2     3.766504    37B2     3.957523    49A1     3.975243  
      38B2     4.220422    29B1     4.278509    21A2     4.387398  
      50A1     4.495144    39B2     4.507161    51A1     4.662957  
      30B1     5.597987    52A1     6.063138    22A2     6.271526  
      40B2     6.293497    31B1     6.298564    53A1     6.320913  
      32B1     6.514822    54A1     6.598855    41B2     6.657786  
      23A2     6.807132    42B2     6.808768    55A1     6.934810  
      24A2     6.989394    43B2     6.995148    33B1     7.198564  
      56A1     7.461215    44B2     7.627232    57A1     7.805729  
      45B2     7.889593    34B1     8.225682    25A2     8.241892  
      46B2     8.270479    35B1     8.307183    47B2     8.409304  
      58A1     8.414653    26A2     8.515651    59A1     8.544029  
      27A2     8.892193    36B1     8.923821    60A1     8.945084  
      61A1     9.129878    37B1     9.131090    48B2     9.238916  
      28A2     9.280954    62A1     9.323224    49B2     9.390938  
      63A1     9.472240    50B2     9.783387    64A1    10.565508  
      51B2    11.171634    65A1    21.221518  

    Final Occupation by Irrep:
             A1    A2    B1    B2 
    DOCC [     4,    0,    2,    2 ]
    SOCC [     1,    0,    0,    0 ]

  @UHF Final Energy:  -398.29289552000785

   => Energetics <=

    Nuclear Repulsion Energy =             12.7140168557151494
    One-Electron Energy =                -569.6654114162411133
    Two-Electron Energy =                 158.6584990405181372
    Total Energy =                       -398.2928955200078462

  UHF NO Occupations:
  HONO-2 :    4 A1 1.9972879
  HONO-1 :    2 B1 1.9956410
  HONO-0 :    5 A1 1.0000000
  LUNO+0 :    3 B1 0.0043590
  LUNO+1 :    6 A1 0.0027121
  LUNO+2 :    3 B2 0.0008434
  LUNO+3 :    7 A1 0.0000037


Computation Completed


Properties will be evaluated at   0.000000,   0.000000,   0.000000 [a0]

Properties computed using the SCF density matrix

  Nuclear Dipole Moment: [e a0]
     X:     0.0000      Y:     0.0000      Z:     1.0729

  Electronic Dipole Moment: [e a0]
     X:     0.0000      Y:     0.0000      Z:    -0.6405

  Dipole Moment: [e a0]
     X:     0.0000      Y:     0.0000      Z:     0.4324     Total:     0.4324

  Dipole Moment: [D]
     X:     0.0000      Y:     0.0000      Z:     1.0991     Total:     1.0991


*** tstop() called on l43 at Wed Jan 20 21:45:51 2021
Module time:
	user time   =      34.96 seconds =       0.58 minutes
	system time =       7.02 seconds =       0.12 minutes
	total time  =         33 seconds =       0.55 minutes
Total time:
	user time   =      34.96 seconds =       0.58 minutes
	system time =       7.02 seconds =       0.12 minutes
	total time  =         33 seconds =       0.55 minutes

*** tstart() called on l43
*** at Wed Jan 20 21:45:51 2021


	Wfn Parameters:
	--------------------
	Wavefunction         = CCSD_T
	Number of irreps     = 4
	Number of MOs        = 181
	Number of active MOs = 176
	AO-Basis             = NONE
	Semicanonical        = false
	Reference            = UHF
	Print Level          = 1

	IRREP	# MOs	# FZDC	# DOCC	# SOCC	# VIRT	# FZVR
	-----	-----	------	------	------	------	------
	 A1	   65	    3	    1	    1	    60	    0
	 A2	   28	    0	    0	    0	    28	    0
	 B1	   37	    1	    1	    0	    35	    0
	 B2	   51	    1	    1	    0	    49	    0
	Transforming integrals...
	IWL integrals will be deleted.
	(OO|OO)...
	Presorting SO-basis two-electron integrals.
	Sorting File: SO Ints (nn|nn) nbuckets = 1
	Constructing frozen core operators
	Starting AA/AB first half-transformation.
	Sorting AA/AB half-transformed integrals.
	Starting BB first half-transformation.
	Sorting BB half-transformed integrals.
	First half integral transformation complete.
	Starting AA second half-transformation.
	Starting AB second half-transformation.
	Starting BB second half-transformation.
	Two-electron integral transformation complete.
	(OO|OV)...
	Starting AA second half-transformation.
	Starting AB second half-transformation.
	Starting BB second half-transformation.
	Two-electron integral transformation complete.
	(OO|VV)...
	Starting AA second half-transformation.
	Starting AB second half-transformation.
	Starting BB second half-transformation.
	Two-electron integral transformation complete.
	(OV|OO)...
	Starting AA/AB first half-transformation.
	Sorting AA/AB half-transformed integrals.
	Starting BB first half-transformation.
	Sorting BB half-transformed integrals.
	First half integral transformation complete.
	Starting AA second half-transformation.
	Starting AB second half-transformation.
	Starting BB second half-transformation.
	Two-electron integral transformation complete.
	(OV|OV)...
	Starting AA second half-transformation.
	Starting AB second half-transformation.
	Starting BB second half-transformation.
	Two-electron integral transformation complete.
	(OV|VV)...
	Starting AA second half-transformation.
	Starting AB second half-transformation.
	Starting BB second half-transformation.
	Two-electron integral transformation complete.
	(VV|OO)...
	Starting AA/AB first half-transformation.
	Sorting AA/AB half-transformed integrals.
	Starting BB first half-transformation.
	Sorting BB half-transformed integrals.
	First half integral transformation complete.
	Starting AA second half-transformation.
	Starting AB second half-transformation.
	Starting BB second half-transformation.
	Two-electron integral transformation complete.
	(VV|OV)...
	Starting AA second half-transformation.
	Starting AB second half-transformation.
	Starting BB second half-transformation.
	Two-electron integral transformation complete.
	(VV|VV)...
	Starting AA second half-transformation.
	Starting AB second half-transformation.
	Starting BB second half-transformation.
	Two-electron integral transformation complete.
	Frozen core energy     =   -395.36244081702762

	Size of irrep 0 of <AB|CD> integrals:     15.359 (MW) /    122.868 (MB)
	Size of irrep 1 of <AB|CD> integrals:     11.526 (MW) /     92.208 (MB)
	Size of irrep 2 of <AB|CD> integrals:     12.055 (MW) /     96.438 (MB)
	Size of irrep 3 of <AB|CD> integrals:     15.366 (MW) /    122.931 (MB)
	Total:                                    54.306 (MW) /    434.446 (MB)

	Size of irrep 0 of <ab|cd> integrals:     15.832 (MW) /    126.660 (MB)
	Size of irrep 1 of <ab|cd> integrals:     11.717 (MW) /     93.735 (MB)
	Size of irrep 2 of <ab|cd> integrals:     12.299 (MW) /     98.392 (MB)
	Size of irrep 3 of <ab|cd> integrals:     15.753 (MW) /    126.024 (MB)
	Total:                                    55.601 (MW) /    444.811 (MB)

	Size of irrep 0 of <Ab|Cd> integrals:     65.125 (MW) /    520.999 (MB)
	Size of irrep 1 of <Ab|Cd> integrals:     46.485 (MW) /    371.881 (MB)
	Size of irrep 2 of <Ab|Cd> integrals:     48.706 (MW) /    389.652 (MB)
	Size of irrep 3 of <Ab|Cd> integrals:     62.236 (MW) /    497.891 (MB)
	Total:                                   222.553 (MW) /   1780.422 (MB)

	Size of irrep 0 of <IA|BC> integrals:      1.634 (MW) /     13.072 (MB)
	Size of irrep 1 of <IA|BC> integrals:      0.951 (MW) /      7.605 (MB)
	Size of irrep 2 of <IA|BC> integrals:      1.097 (MW) /      8.777 (MB)
	Size of irrep 3 of <IA|BC> integrals:      1.458 (MW) /     11.666 (MB)
	Total:                                     5.140 (MW) /     41.120 (MB)

	Size of irrep 0 of <ia|bc> integrals:      1.179 (MW) /      9.432 (MB)
	Size of irrep 1 of <ia|bc> integrals:      0.767 (MW) /      6.134 (MB)
	Size of irrep 2 of <ia|bc> integrals:      0.870 (MW) /      6.958 (MB)
	Size of irrep 3 of <ia|bc> integrals:      1.095 (MW) /      8.764 (MB)
	Total:                                     3.911 (MW) /     31.287 (MB)

	Size of irrep 0 of <Ia|Bc> integrals:      1.662 (MW) /     13.299 (MB)
	Size of irrep 1 of <Ia|Bc> integrals:      0.955 (MW) /      7.636 (MB)
	Size of irrep 2 of <Ia|Bc> integrals:      1.110 (MW) /      8.877 (MB)
	Size of irrep 3 of <Ia|Bc> integrals:      1.475 (MW) /     11.802 (MB)
	Total:                                     5.202 (MW) /     41.615 (MB)

	Size of irrep 0 of <iA|bC> integrals:      1.162 (MW) /      9.297 (MB)
	Size of irrep 1 of <iA|bC> integrals:      0.764 (MW) /      6.109 (MB)
	Size of irrep 2 of <iA|bC> integrals:      0.858 (MW) /      6.867 (MB)
	Size of irrep 3 of <iA|bC> integrals:      1.081 (MW) /      8.646 (MB)
	Total:                                     3.865 (MW) /     30.919 (MB)

	Size of irrep 0 of tIjAb amplitudes:       0.032 (MW) /      0.258 (MB)
	Size of irrep 1 of tIjAb amplitudes:       0.014 (MW) /      0.109 (MB)
	Size of irrep 2 of tIjAb amplitudes:       0.021 (MW) /      0.167 (MB)
	Size of irrep 3 of tIjAb amplitudes:       0.024 (MW) /      0.189 (MB)
	Total:                                     0.091 (MW) /      0.724 (MB)

	Nuclear Rep. energy          =     12.71401685571515
	SCF energy                   =   -398.29289552000785
	One-electron energy          =    -24.47005072418880
	Two-electron (AA) energy     =      2.24203185081983
	Two-electron (BB) energy     =      1.10783244327772
	Two-electron (AB) energy     =      5.47571487139781
	Two-electron energy          =      8.82557916549535
	Reference energy             =   -398.29289552000591

*** tstop() called on l43 at Wed Jan 20 21:46:36 2021
Module time:
	user time   =      29.23 seconds =       0.49 minutes
	system time =      14.72 seconds =       0.25 minutes
	total time  =         45 seconds =       0.75 minutes
Total time:
	user time   =      64.19 seconds =       1.07 minutes
	system time =      21.74 seconds =       0.36 minutes
	total time  =         78 seconds =       1.30 minutes
            **************************
            *                        *
            *        CCENERGY        *
            *                        *
            **************************

    Nuclear Rep. energy (wfn)     =   12.714016855715149
    SCF energy          (wfn)     = -398.292895520007846
    Reference energy    (file100) = -398.292895520005914

    Input parameters:
    -----------------
    Wave function   =     CCSD_T
    Reference wfn   =     UHF
    Brueckner       =     No
    Memory (Mbytes) =     250000.0
    Maxiter         =     50
    R_Convergence   =     1.0e-07
    E_Convergence   =     1.0e-06
    Restart         =     Yes
    DIIS            =     Yes
    AO Basis        =     NONE
    ABCD            =     NEW
    Cache Level     =     2
    Cache Type      =     LRU
    Print Level     =     1
    Num. of threads =     48
    # Amps to Print =     10
    Print MP2 Amps? =     No
    Analyze T2 Amps =     No
    Print Pair Ener =     No
    Local CC        =     No
    SCS-MP2         =     False
    SCSN-MP2        =     False
    SCS-CCSD        =     False

MP2 correlation energy -0.1655215897896589
                Solving CC Amplitude Equations
                ------------------------------
  Iter             Energy              RMS        T1Diag      D1Diag    New D1Diag    D2Diag
  ----     ---------------------    ---------   ----------  ----------  ----------   --------
     0        -0.165521589789659    0.000e+00    0.000000    0.000000    0.000000    0.000000
     1        -0.182855376174221    4.995e-02    0.009824    0.000000    0.000000    0.000000
     2        -0.189934329620240    1.923e-02    0.015728    0.000000    0.000000    0.000000
     3        -0.190247823714287    5.530e-03    0.017963    0.000000    0.000000    0.000000
     4        -0.190281051925718    1.983e-03    0.018776    0.000000    0.000000    0.000000
     5        -0.190266492066602    7.035e-04    0.019000    0.000000    0.000000    0.000000
     6        -0.190266371339092    2.158e-04    0.019051    0.000000    0.000000    0.000000
     7        -0.190268983604954    7.613e-05    0.019056    0.000000    0.000000    0.000000
     8        -0.190268938414059    2.781e-05    0.019057    0.000000    0.000000    0.000000
     9        -0.190268620569930    1.106e-05    0.019058    0.000000    0.000000    0.000000
    10        -0.190268647009879    4.664e-06    0.019058    0.000000    0.000000    0.000000
    11        -0.190268660892140    1.854e-06    0.019058    0.000000    0.000000    0.000000
    12        -0.190268689588182    6.445e-07    0.019058    0.000000    0.000000    0.000000
    13        -0.190268686281575    2.469e-07    0.019058    0.000000    0.000000    0.000000
    14        -0.190268684063918    1.035e-07    0.019058    0.000000    0.000000    0.000000
    15        -0.190268683413959    3.703e-08    0.019058    0.000000    0.000000    0.000000

    Iterations converged.


    Largest TIA Amplitudes:
              2  89        -0.0162863333
              1   0        -0.0158907219
              2  92         0.0157872810
              3 123        -0.0154605377
              1   1         0.0105866254
              1   8        -0.0059462985
              3 126        -0.0055271495
              1  12        -0.0051140425
              1   3         0.0050752920
              3 130        -0.0050178365

    Largest Tia Amplitudes:
              0  11         0.0131567233
              1  93        -0.0112887106
              0   5        -0.0100125294
              0   0        -0.0096856437
              1  90         0.0089009808
              1  92         0.0069560277
              1  89        -0.0053626866
              2 140         0.0047147733
              0  20        -0.0045256272
              0  18         0.0042295261

    Largest TIJAB Amplitudes:
      3   2  62   0         0.0183858440
      3   2  60   0         0.0174343305
      2   1  92   9        -0.0169704141
      2   1  89   9         0.0149999095
      2   1 123  62         0.0141774334
      2   1  92   4         0.0136594428
      2   1 123  60         0.0134997403
      3   1 123   0         0.0132818763
      2   1  89   4        -0.0126667112
      3   2  62   1        -0.0124167903

    Largest Tijab Amplitudes:
      2   1  63   1         0.0159692300
      1   0  93   0        -0.0159467595
      2   1  61   1         0.0151607031
      2   1  63   0         0.0139888101
      2   1  63   2        -0.0138391067
      2   1  61   0         0.0133542334
      2   1  61   2        -0.0125224388
      1   0  90   0         0.0115014560
      2   0 125   0         0.0092776194
      2   1 125  93         0.0089496164

    Largest TIjAb Amplitudes:
      3   2   0   1        -0.0367739566
      3   2   0   0        -0.0300374509
      3   0 123   0        -0.0288661042
      2   1   0   1        -0.0264730032
      2   1  92  93        -0.0249276676
      2   0  92   0        -0.0246716339
      2   1  62  63        -0.0245437854
      1   0   9   0        -0.0241050955
      2   0  89   0         0.0228642008
      1   2 123   1        -0.0222160820

    SCF energy       (wfn)                    = -398.292895520007846
    Reference energy (file100)                = -398.292895520005914

    Opposite-spin MP2 correlation energy      =   -0.134592271939785
    Same-spin MP2 correlation energy          =   -0.030929317849874
    Singles MP2 correlation energy            =   -0.000000000000000
    MP2 correlation energy                    =   -0.165521589789659
      * MP2 total energy                      = -398.458417109795562

    Opposite-spin CCSD correlation energy     =   -0.158355016186674
    Same-spin CCSD correlation energy         =   -0.031913667227298
    Singles CCSD correlation energy           =    0.000000000000013
    CCSD correlation energy                   =   -0.190268683413959
      * CCSD total energy                     = -398.483164203419847

            **************************
            *                        *
            *        CCTRIPLES       *
            *                        *
            **************************


    Wave function   =    CCSD_T
    Reference wfn   =      UHF

    Nuclear Rep. energy (wfn)                =   12.714016855715149
    SCF energy          (wfn)                = -398.292895520007846
    Reference energy    (file100)            = -398.292895520005914
    CCSD energy         (file100)            =   -0.190268683413959
    Total CCSD energy   (file100)            = -398.483164203419847

    Number of ijk index combinations:
    Spin Case AAA:                                   4
    Spin Case BBB:                                   1
    Spin Case AAB:                                  18
    Spin Case ABB:                                  12
    AAA (T) energy                             =   -0.000196435608270
    BBB (T) energy                             =   -0.000038186458766
    AAB (T) energy                             =   -0.004298051111070
    ABB (T) energy                             =   -0.002734004560351
    (T) energy                                   =   -0.007266677738456
      * CCSD(T) total energy                     = -398.490430881158318


    Psi4 stopped on: Wednesday, 20 January 2021 09:47PM
    Psi4 wall time for execution: 0:02:03.70

*** Psi4 exiting successfully. Buy a developer a beer!
