
    -----------------------------------------------------------------------
          Psi4: An Open-Source Ab Initio Electronic Structure Package
                               Psi4 1.4a3.dev88 

                         Git: Rev {master} 262e345 


    D. G. A. Smith, L. A. Burns, A. C. Simmonett, R. M. Parrish,
    M. C. Schieber, R. Galvelis, P. Kraus, H. Kruse, R. Di Remigio,
    A. Alenaizan, A. M. James, S. Lehtola, J. P. Misiewicz, M. Scheurer,
    R. A. Shaw, J. B. Schriber, Y. Xie, Z. L. Glick, D. A. Sirianni,
    J. S. O'Brien, J. M. Waldrop, A. Kumar, E. G. Hohenstein,
    B. P. Pritchard, B. R. Brooks, H. F. Schaefer III, A. Yu. Sokolov,
    K. Patkowski, A. E. DePrince III, U. Bozkaya, R. A. King,
    F. A. Evangelista, J. M. Turney, T. D. Crawford, C. D. Sherrill,
    J. Chem. Phys. 152(18) 184108 (2020). https://doi.org/10.1063/5.0006002

                            Additional Code Authors
    E. T. Seidl, C. L. Janssen, E. F. Valeev, M. L. Leininger,
    J. F. Gonthier, R. M. Richard, H. R. McAlexander, M. Saitow, X. Wang,
    P. Verma, and M. H. Lechner

             Previous Authors, Complete List of Code Contributors,
                       and Citations for Specific Modules
    https://github.com/psi4/psi4/blob/master/codemeta.json
    https://github.com/psi4/psi4/graphs/contributors
    http://psicode.org/psi4manual/master/introduction.html#citing-psifour

    -----------------------------------------------------------------------


    Psi4 started on: Tuesday, 26 January 2021 06:33PM

    Process ID: 411556
    Host:       n412-040.vsc4.prov
    PSIDATADIR: /home/fs71337/gallo4/psi4/eri-6/psi4/build/stage/share/psi4
    Memory:     500.0 MiB
    Threads:    48
    
  ==> Input File <==

--------------------------------------------------------------------------
# Any line starting with the # character is a comment line
memory 250000 mb
molecule molecule{
1 2
S          0.0000000000        0.0000000000       -0.0360188224
H          0.0000000000        1.2107116222        0.5728334257
H          0.0000000000       -1.2107116222        0.5728334257
}

set {
  reference uhf
  basis aug-cc-pV(t+d)Z
  scf_type OUT_OF_CORE
  freeze_core true
}

energy('ccsd(t)')
--------------------------------------------------------------------------

  Memory set to 232.831 GiB by Python driver.

Scratch directory: /binfl/lv71337/airmler/temp/

*** tstart() called on n412-040.vsc4.prov
*** at Tue Jan 26 18:33:22 2021

   => Loading Basis Set <=

    Name: AUG-CC-PV(T+D)Z
    Role: ORBITAL
    Keyword: BASIS
    atoms 1   entry S          line   944 file /home/fs71337/gallo4/psi4/eri-6/psi4/build/stage/share/psi4/basis/aug-cc-pv_tpd_z.gbs 
    atoms 2-3 entry H          line    68 file /home/fs71337/gallo4/psi4/eri-6/psi4/build/stage/share/psi4/basis/aug-cc-pv_tpd_z.gbs 


         ---------------------------------------------------------
                                   SCF
               by Justin Turney, Rob Parrish, Andy Simmonett
                          and Daniel G. A. Smith
                              UHF Reference
                       48 Threads, 238418 MiB Core
         ---------------------------------------------------------

  ==> Geometry <==

    Molecular point group: c2v
    Full point group: C2v

    Geometry (in Angstrom), charge = 1, multiplicity = 2:

       Center              X                  Y                   Z               Mass       
    ------------   -----------------  -----------------  -----------------  -----------------
         S            0.000000000000     0.000000000000    -0.036108130478    31.972071174400
         H           -0.000000000000     1.210711622200     0.572744117622     1.007825032230
         H            0.000000000000    -1.210711622200     0.572744117622     1.007825032230

  Running in c2v symmetry.

  Rotational constants: A =     23.98329  B =      5.70558  C =      4.60909 [cm^-1]
  Rotational constants: A = 719001.02774  B = 171049.03946  C = 138176.98543 [MHz]
  Nuclear repulsion =   12.714016855715149

  Charge       = 1
  Multiplicity = 2
  Electrons    = 17
  Nalpha       = 9
  Nbeta        = 8

  ==> Algorithm <==

  SCF Algorithm Type is OUT_OF_CORE.
  DIIS enabled.
  MOM disabled.
  Fractional occupation disabled.
  Guess Type is SAD.
  Energy threshold   = 1.00e-08
  Density threshold  = 1.00e-08
  Integral threshold = 1.00e-12

  ==> Primary Basis <==

  Basis Set: AUG-CC-PV(T+D)Z
    Blend: AUG-CC-PV(T+D)Z
    Number of shells: 35
    Number of basis function: 101
    Number of Cartesian functions: 115
    Spherical Harmonics?: true
    Max angular momentum: 3

  ==> Integral Setup <==

  ==> DiskJK: Disk-Based J/K Matrices <==

    J tasked:                  Yes
    K tasked:                  Yes
    wK tasked:                  No
    Memory [MiB]:           178813
    Schwarz Cutoff:          1E-12

  Minimum eigenvalue in the overlap matrix is 2.5022961119E-04.
  Reciprocal condition number of the overlap matrix is 4.5669463280E-05.
    Using symmetric orthogonalization.

  ==> Pre-Iterations <==

  SCF Guess: Superposition of Atomic Densities via on-the-fly atomic UHF (no occupation information).


 WARNING: Atomic UHF is not converging! Try casting from a smaller basis or call Rob at CCMST.

 WARNING: Atomic UHF is not converging! Try casting from a smaller basis or call Rob at CCMST.
   -------------------------
    Irrep   Nso     Nmo    
   -------------------------
     A1        39      39 
     A2        13      13 
     B1        20      20 
     B2        29      29 
   -------------------------
    Total     101     101
   -------------------------

  ==> Iterations <==

                        Total Energy        Delta E     RMS |[F,P]|

   @UHF iter SAD:  -386.93707983502912   -3.86937e+02   0.00000e+00 
   @UHF iter   1:  -398.30206534080014   -1.13650e+01   5.86998e-03 DIIS
   @UHF iter   2:  -398.34671123553892   -4.46459e-02   1.44287e-03 DIIS
   @UHF iter   3:  -398.34940737159150   -2.69614e-03   3.85935e-04 DIIS
   @UHF iter   4:  -398.34988670259054   -4.79331e-04   1.31101e-04 DIIS
   @UHF iter   5:  -398.34996593899945   -7.92364e-05   3.93708e-05 DIIS
   @UHF iter   6:  -398.34997492724398   -8.98824e-06   1.42732e-05 DIIS
   @UHF iter   7:  -398.34997654581753   -1.61857e-06   6.27119e-06 DIIS
   @UHF iter   8:  -398.34997696189936   -4.16082e-07   3.19576e-06 DIIS
   @UHF iter   9:  -398.34997708105612   -1.19157e-07   1.01386e-06 DIIS
   @UHF iter  10:  -398.34997708854053   -7.48440e-09   2.18415e-07 DIIS
   @UHF iter  11:  -398.34997708876602   -2.25498e-10   5.10895e-08 DIIS
   @UHF iter  12:  -398.34997708877808   -1.20508e-11   1.11548e-08 DIIS
   @UHF iter  13:  -398.34997708877808    0.00000e+00   2.40289e-09 DIIS
  Energy and wave function converged.


  ==> Post-Iterations <==

   @Spin Contamination Metric:   1.716278105E-02
   @S^2 Expected:                7.500000000E-01
   @S^2 Observed:                7.671627811E-01
   @S   Expected:                5.000000000E-01
   @S   Observed:                5.000000000E-01

    Orbital Energies [Eh]
    ---------------------

    Alpha Occupied:                                                       

       1A1   -92.358213     2A1    -9.356762     1B1    -7.053499  
       1B2    -7.033866     3A1    -7.032469     4A1    -1.357801  
       2B2    -0.966215     2B1    -0.803066     5A1    -0.785197  

    Alpha Virtual:                                                        

       6A1    -0.179980     7A1    -0.111709     3B2    -0.098289  
       4B2    -0.075845     3B1    -0.070637     8A1    -0.063595  
       1A2    -0.025489     9A1    -0.016492     5B2    -0.007217  
      10A1     0.007800     4B1     0.008996     6B2     0.110980  
      11A1     0.117373     7B2     0.134713     5B1     0.137620  
      12A1     0.137907     2A2     0.166945     8B2     0.206664  
      13A1     0.214047    14A1     0.267032     6B1     0.289892  
       9B2     0.313672    15A1     0.362303     3A2     0.371134  
       7B1     0.385668    16A1     0.440590    10B2     0.515813  
      17A1     0.540483    11B2     0.548161     8B1     0.550572  
      18A1     0.575088     9B1     0.607579    12B2     0.611295  
       4A2     0.626536     5A2     0.706438    19A1     0.713090  
      13B2     0.746551    20A1     0.757573    21A1     0.788603  
      10B1     0.797669    14B2     0.859983     6A2     0.881785  
      15B2     0.959140    22A1     0.985074    11B1     1.013817  
      16B2     1.044654    23A1     1.261904    12B1     1.280073  
      24A1     1.333925     7A2     1.358660    17B2     1.406307  
      25A1     1.464848    18B2     1.537948    13B1     1.598814  
       8A2     1.646749    26A1     1.650535    19B2     1.868422  
      27A1     1.911660    14B1     1.980733    28A1     2.013069  
      15B1     2.015918    20B2     2.094338    29A1     2.153178  
       9A2     2.155255    21B2     2.288363    16B1     2.313396  
      30A1     2.553211    22B2     2.709466    31A1     3.023503  
      23B2     3.302158    10A2     3.587507    24B2     3.631349  
      32A1     3.631984    17B1     3.639528    33A1     3.761231  
      11A2     3.954642    18B1     4.004263    12A2     4.143118  
      19B1     4.143546    34A1     4.154382    25B2     4.189096  
      35A1     4.313849    26B2     4.362349    27B2     4.404653  
      36A1     4.625643    28B2     5.075094    37A1     6.295672  
      20B1     6.981675    38A1     7.018888    13A2     7.072700  
      29B2     7.775764    39A1     8.401168  

    Beta Occupied:                                                        

       1A1   -92.347560     2A1    -9.344772     1B2    -7.026942  
       3A1    -7.026672     1B1    -7.008305     4A1    -1.262872  
       2B2    -0.959819     5A1    -0.763100  

    Beta Virtual:                                                         

       2B1    -0.295973     6A1    -0.158157     7A1    -0.102356  
       3B2    -0.096056     4B2    -0.075082     8A1    -0.062042  
       3B1    -0.055509     9A1    -0.013034     5B2    -0.005597  
       1A2     0.001682    10A1     0.029798     4B1     0.036450  
       6B2     0.111520    11A1     0.126352     7B2     0.134764  
      12A1     0.142201     5B1     0.149097     2A2     0.180881  
       8B2     0.209754    13A1     0.220077    14A1     0.272118  
       9B2     0.318968     6B1     0.338271    15A1     0.386070  
       3A2     0.412213     7B1     0.436991    16A1     0.458721  
      10B2     0.519138    11B2     0.555746    17A1     0.557828  
       8B1     0.561218    18A1     0.588813    12B2     0.611394  
       9B1     0.623188     4A2     0.639600     5A2     0.710051  
      19A1     0.715456    13B2     0.748693    20A1     0.765213  
      21A1     0.797345    10B1     0.805323    14B2     0.865963  
       6A2     0.887357    15B2     0.960957    22A1     0.985703  
      11B1     1.020747    16B2     1.050297    23A1     1.279933  
      12B1     1.299718    24A1     1.345194     7A2     1.374270  
      17B2     1.405887    25A1     1.471205    18B2     1.545313  
      13B1     1.627759    26A1     1.668446     8A2     1.672708  
      19B2     1.877859    27A1     1.921138    14B1     2.033763  
      15B1     2.046221    28A1     2.049310    20B2     2.117975  
      29A1     2.158414     9A2     2.180699    21B2     2.291311  
      16B1     2.360134    30A1     2.560461    22B2     2.715918  
      31A1     3.022602    23B2     3.305297    10A2     3.587473  
      32A1     3.631689    24B2     3.631920    17B1     3.640259  
      33A1     3.759737    11A2     3.959744    18B1     4.008479  
      12A2     4.141861    19B1     4.143436    34A1     4.151093  
      25B2     4.186910    35A1     4.314190    26B2     4.359605  
      27B2     4.404202    36A1     4.627124    28B2     5.074609  
      37A1     6.313587    20B1     6.993649    38A1     7.025832  
      13A2     7.085234    29B2     7.779337    39A1     8.409813  

    Final Occupation by Irrep:
             A1    A2    B1    B2 
    DOCC [     5,    0,    1,    2 ]
    SOCC [     0,    0,    1,    0 ]

  @UHF Final Energy:  -398.34997708877808

   => Energetics <=

    Nuclear Repulsion Energy =             12.7140168557151494
    One-Electron Energy =                -569.6408566529991049
    Two-Electron Energy =                 158.5768627085058711
    Total Energy =                       -398.3499770887780755

  UHF NO Occupations:
  HONO-2 :    4 A1 1.9991756
  HONO-1 :    5 A1 1.9928620
  HONO-0 :    2 B1 1.0000000
  LUNO+0 :    6 A1 0.0071380
  LUNO+1 :    7 A1 0.0008244
  LUNO+2 :    3 B2 0.0006412
  LUNO+3 :    3 B1 0.0000033


Computation Completed


Properties will be evaluated at   0.000000,   0.000000,   0.000000 [a0]

Properties computed using the SCF density matrix

  Nuclear Dipole Moment: [e a0]
     X:     0.0000      Y:     0.0000      Z:     1.0729

  Electronic Dipole Moment: [e a0]
     X:     0.0000      Y:     0.0000      Z:    -0.4609

  Dipole Moment: [e a0]
     X:     0.0000      Y:     0.0000      Z:     0.6120     Total:     0.6120

  Dipole Moment: [D]
     X:     0.0000      Y:     0.0000      Z:     1.5557     Total:     1.5557


*** tstop() called on n412-040.vsc4.prov at Tue Jan 26 18:33:30 2021
Module time:
	user time   =      36.51 seconds =       0.61 minutes
	system time =       2.42 seconds =       0.04 minutes
	total time  =          8 seconds =       0.13 minutes
Total time:
	user time   =      36.51 seconds =       0.61 minutes
	system time =       2.42 seconds =       0.04 minutes
	total time  =          8 seconds =       0.13 minutes

*** tstart() called on n412-040.vsc4.prov
*** at Tue Jan 26 18:33:30 2021


	Wfn Parameters:
	--------------------
	Wavefunction         = CCSD_T
	Number of irreps     = 4
	Number of MOs        = 101
	Number of active MOs = 96
	AO-Basis             = NONE
	Semicanonical        = false
	Reference            = UHF
	Print Level          = 1

	IRREP	# MOs	# FZDC	# DOCC	# SOCC	# VIRT	# FZVR
	-----	-----	------	------	------	------	------
	 A1	   39	    3	    2	    0	    34	    0
	 A2	   13	    0	    0	    0	    13	    0
	 B1	   20	    1	    0	    1	    18	    0
	 B2	   29	    1	    1	    0	    27	    0
	Transforming integrals...
	IWL integrals will be deleted.
	(OO|OO)...
	Presorting SO-basis two-electron integrals.
	Sorting File: SO Ints (nn|nn) nbuckets = 1
	Constructing frozen core operators
	Starting AA/AB first half-transformation.
	Sorting AA/AB half-transformed integrals.
	Starting BB first half-transformation.
	Sorting BB half-transformed integrals.
	First half integral transformation complete.
	Starting AA second half-transformation.
	Starting AB second half-transformation.
	Starting BB second half-transformation.
	Two-electron integral transformation complete.
	(OO|OV)...
	Starting AA second half-transformation.
	Starting AB second half-transformation.
	Starting BB second half-transformation.
	Two-electron integral transformation complete.
	(OO|VV)...
	Starting AA second half-transformation.
	Starting AB second half-transformation.
	Starting BB second half-transformation.
	Two-electron integral transformation complete.
	(OV|OO)...
	Starting AA/AB first half-transformation.
	Sorting AA/AB half-transformed integrals.
	Starting BB first half-transformation.
	Sorting BB half-transformed integrals.
	First half integral transformation complete.
	Starting AA second half-transformation.
	Starting AB second half-transformation.
	Starting BB second half-transformation.
	Two-electron integral transformation complete.
	(OV|OV)...
	Starting AA second half-transformation.
	Starting AB second half-transformation.
	Starting BB second half-transformation.
	Two-electron integral transformation complete.
	(OV|VV)...
	Starting AA second half-transformation.
	Starting AB second half-transformation.
	Starting BB second half-transformation.
	Two-electron integral transformation complete.
	(VV|OO)...
	Starting AA/AB first half-transformation.
	Sorting AA/AB half-transformed integrals.
	Starting BB first half-transformation.
	Sorting BB half-transformed integrals.
	First half integral transformation complete.
	Starting AA second half-transformation.
	Starting AB second half-transformation.
	Starting BB second half-transformation.
	Two-electron integral transformation complete.
	(VV|OV)...
	Starting AA second half-transformation.
	Starting AB second half-transformation.
	Starting BB second half-transformation.
	Two-electron integral transformation complete.
	(VV|VV)...
	Starting AA second half-transformation.
	Starting AB second half-transformation.
	Starting BB second half-transformation.
	Two-electron integral transformation complete.
	Frozen core energy     =   -395.36075668174254

	Size of irrep 0 of <AB|CD> integrals:      1.306 (MW) /     10.452 (MB)
	Size of irrep 1 of <AB|CD> integrals:      0.861 (MW) /      6.889 (MB)
	Size of irrep 2 of <AB|CD> integrals:      0.927 (MW) /      7.419 (MB)
	Size of irrep 3 of <AB|CD> integrals:      1.327 (MW) /     10.617 (MB)
	Total:                                     4.422 (MW) /     35.377 (MB)

	Size of irrep 0 of <ab|cd> integrals:      1.348 (MW) /     10.783 (MB)
	Size of irrep 1 of <ab|cd> integrals:      0.912 (MW) /      7.296 (MB)
	Size of irrep 2 of <ab|cd> integrals:      0.994 (MW) /      7.952 (MB)
	Size of irrep 3 of <ab|cd> integrals:      1.357 (MW) /     10.858 (MB)
	Total:                                     4.611 (MW) /     36.889 (MB)

	Size of irrep 0 of <Ab|Cd> integrals:      5.741 (MW) /     45.927 (MB)
	Size of irrep 1 of <Ab|Cd> integrals:      3.546 (MW) /     28.366 (MB)
	Size of irrep 2 of <Ab|Cd> integrals:      3.842 (MW) /     30.733 (MB)
	Size of irrep 3 of <Ab|Cd> integrals:      5.368 (MW) /     42.948 (MB)
	Total:                                    18.497 (MW) /    147.973 (MB)

	Size of irrep 0 of <IA|BC> integrals:      0.269 (MW) /      2.150 (MB)
	Size of irrep 1 of <IA|BC> integrals:      0.132 (MW) /      1.054 (MB)
	Size of irrep 2 of <IA|BC> integrals:      0.160 (MW) /      1.279 (MB)
	Size of irrep 3 of <IA|BC> integrals:      0.233 (MW) /      1.862 (MB)
	Total:                                     0.793 (MW) /      6.344 (MB)

	Size of irrep 0 of <ia|bc> integrals:      0.229 (MW) /      1.835 (MB)
	Size of irrep 1 of <ia|bc> integrals:      0.086 (MW) /      0.688 (MB)
	Size of irrep 2 of <ia|bc> integrals:      0.102 (MW) /      0.814 (MB)
	Size of irrep 3 of <ia|bc> integrals:      0.205 (MW) /      1.640 (MB)
	Total:                                     0.622 (MW) /      4.977 (MB)

	Size of irrep 0 of <Ia|Bc> integrals:      0.273 (MW) /      2.185 (MB)
	Size of irrep 1 of <Ia|Bc> integrals:      0.136 (MW) /      1.085 (MB)
	Size of irrep 2 of <Ia|Bc> integrals:      0.167 (MW) /      1.333 (MB)
	Size of irrep 3 of <Ia|Bc> integrals:      0.234 (MW) /      1.872 (MB)
	Total:                                     0.809 (MW) /      6.475 (MB)

	Size of irrep 0 of <iA|bC> integrals:      0.228 (MW) /      1.821 (MB)
	Size of irrep 1 of <iA|bC> integrals:      0.083 (MW) /      0.663 (MB)
	Size of irrep 2 of <iA|bC> integrals:      0.096 (MW) /      0.768 (MB)
	Size of irrep 3 of <iA|bC> integrals:      0.204 (MW) /      1.631 (MB)
	Total:                                     0.610 (MW) /      4.883 (MB)

	Size of irrep 0 of tIjAb amplitudes:       0.012 (MW) /      0.096 (MB)
	Size of irrep 1 of tIjAb amplitudes:       0.002 (MW) /      0.015 (MB)
	Size of irrep 2 of tIjAb amplitudes:       0.004 (MW) /      0.031 (MB)
	Size of irrep 3 of tIjAb amplitudes:       0.009 (MW) /      0.074 (MB)
	Total:                                     0.027 (MW) /      0.216 (MB)

	Nuclear Rep. energy          =     12.71401685571515
	SCF energy                   =   -398.34997708877808
	One-electron energy          =    -24.50840458196484
	Two-electron (AA) energy     =      2.27053762649775
	Two-electron (BB) energy     =      1.06242120843825
	Two-electron (AB) energy     =      5.47220848427686
	Two-electron energy          =      8.80516731921286
	Reference energy             =   -398.34997708877938

*** tstop() called on n412-040.vsc4.prov at Tue Jan 26 18:33:41 2021
Module time:
	user time   =       3.02 seconds =       0.05 minutes
	system time =       1.56 seconds =       0.03 minutes
	total time  =         11 seconds =       0.18 minutes
Total time:
	user time   =      39.53 seconds =       0.66 minutes
	system time =       3.98 seconds =       0.07 minutes
	total time  =         19 seconds =       0.32 minutes
            **************************
            *                        *
            *        CCENERGY        *
            *                        *
            **************************

    Nuclear Rep. energy (wfn)     =   12.714016855715149
    SCF energy          (wfn)     = -398.349977088778076
    Reference energy    (file100) = -398.349977088779383

    Input parameters:
    -----------------
    Wave function   =     CCSD_T
    Reference wfn   =     UHF
    Brueckner       =     No
    Memory (Mbytes) =     250000.0
    Maxiter         =     50
    R_Convergence   =     1.0e-07
    E_Convergence   =     1.0e-06
    Restart         =     Yes
    DIIS            =     Yes
    AO Basis        =     NONE
    ABCD            =     NEW
    Cache Level     =     2
    Cache Type      =     LRU
    Print Level     =     1
    Num. of threads =     48
    # Amps to Print =     10
    Print MP2 Amps? =     No
    Analyze T2 Amps =     No
    Print Pair Ener =     No
    Local CC        =     No
    SCS-MP2         =     False
    SCSN-MP2        =     False
    SCS-CCSD        =     False

MP2 correlation energy -0.1516364067255001
                Solving CC Amplitude Equations
                ------------------------------
  Iter             Energy              RMS        T1Diag      D1Diag    New D1Diag    D2Diag
  ----     ---------------------    ---------   ----------  ----------  ----------   --------
     0        -0.151636406725500    0.000e+00    0.000000    0.000000    0.000000    0.000000
     1        -0.171398354268704    5.125e-02    0.009581    0.000000    0.000000    0.000000
     2        -0.178740449775891    1.931e-02    0.015216    0.000000    0.000000    0.000000
     3        -0.179126624052765    5.115e-03    0.017102    0.000000    0.000000    0.000000
     4        -0.179147305787214    1.574e-03    0.017542    0.000000    0.000000    0.000000
     5        -0.179139752522806    5.827e-04    0.017639    0.000000    0.000000    0.000000
     6        -0.179143826652988    1.965e-04    0.017646    0.000000    0.000000    0.000000
     7        -0.179145998296135    7.160e-05    0.017639    0.000000    0.000000    0.000000
     8        -0.179146138799087    2.598e-05    0.017637    0.000000    0.000000    0.000000
     9        -0.179145969899837    8.491e-06    0.017636    0.000000    0.000000    0.000000
    10        -0.179145985912198    3.451e-06    0.017636    0.000000    0.000000    0.000000
    11        -0.179145986486006    1.474e-06    0.017636    0.000000    0.000000    0.000000
    12        -0.179145999836315    6.315e-07    0.017636    0.000000    0.000000    0.000000
    13        -0.179145994897774    2.198e-07    0.017636    0.000000    0.000000    0.000000
    14        -0.179145994338650    7.090e-08    0.017636    0.000000    0.000000    0.000000

    Iterations converged.


    Largest TIA Amplitudes:
              1   0        -0.0102814322
              1  11         0.0093365561
              2  48        -0.0090148376
              1   1         0.0080099294
              3  72         0.0063381146
              1   9        -0.0061104909
              1   5        -0.0054928784
              2  51         0.0052378729
              0   1         0.0047925996
              1   4        -0.0046873217

    Largest Tia Amplitudes:
              0   0        -0.0165874191
              1   4        -0.0139197417
              0   4         0.0103413911
              1  10         0.0091897288
              0   9        -0.0089484705
              0   1        -0.0081785289
              2  67         0.0074945054
              0   5        -0.0065957214
              1   9         0.0061401856
              1   7        -0.0059002646

    Largest TIJAB Amplitudes:
      3   2  34   0         0.0210728208
      2   1  48   4         0.0207495653
      2   1  51   4        -0.0181113730
      3   2  36   0         0.0160397391
      2   1  48   9         0.0159329082
      2   1  51   9        -0.0155306990
      3   2  34   1        -0.0138243281
      3   1  66   0        -0.0130650445
      2   1  66  34        -0.0126116661
      3   2  36   1        -0.0111206913

    Largest Tijab Amplitudes:
      2   1  67   1        -0.0121734733
      1   0  52  47         0.0121717891
      1   0  49  47        -0.0112429484
      2   1  67   0        -0.0111979541
      2   0  47  36        -0.0087197539
      2   0  47  34        -0.0083230492
      2   1  67  10         0.0081857193
      2   1  66   1         0.0077658169
      2   1  67   4        -0.0076830240
      2   1  52  36         0.0071249011

    Largest TIjAb Amplitudes:
      3   2   0   0        -0.0382407800
      2   0   0  47        -0.0362850059
      1   1  66  67        -0.0263648161
      3   2   0   1        -0.0254259870
      1   0  51  47         0.0245874075
      1   0  48  47        -0.0242185696
      2   0   4  47        -0.0240617056
      1   1   0   0        -0.0233201761
      2   0   9  47        -0.0227858890
      3   1   0  67         0.0223937537

    SCF energy       (wfn)                    = -398.349977088778076
    Reference energy (file100)                = -398.349977088779383

    Opposite-spin MP2 correlation energy      =   -0.123100247468604
    Same-spin MP2 correlation energy          =   -0.028536159256896
    Singles MP2 correlation energy            =   -0.000000000000000
    MP2 correlation energy                    =   -0.151636406725500
      * MP2 total energy                      = -398.501613495504898

    Opposite-spin CCSD correlation energy     =   -0.149371623245929
    Same-spin CCSD correlation energy         =   -0.029774371092720
    Singles CCSD correlation energy           =   -0.000000000000000
    CCSD correlation energy                   =   -0.179145994338650
      * CCSD total energy                     = -398.529123083118009

            **************************
            *                        *
            *        CCTRIPLES       *
            *                        *
            **************************


    Wave function   =    CCSD_T
    Reference wfn   =      UHF

    Nuclear Rep. energy (wfn)                =   12.714016855715149
    SCF energy          (wfn)                = -398.349977088778076
    Reference energy    (file100)            = -398.349977088779383
    CCSD energy         (file100)            =   -0.179145994338650
    Total CCSD energy   (file100)            = -398.529123083118009

    Number of ijk index combinations:
    Spin Case AAA:                                   4
    Spin Case BBB:                                   1
    Spin Case AAB:                                  18
    Spin Case ABB:                                  12
    AAA (T) energy                             =   -0.000194830502963
    BBB (T) energy                             =   -0.000024869731819
    AAB (T) energy                             =   -0.003731288263024
    ABB (T) energy                             =   -0.002109681922883
    (T) energy                                   =   -0.006060670420689
      * CCSD(T) total energy                     = -398.535183753538718


    Psi4 stopped on: Tuesday, 26 January 2021 06:33PM
    Psi4 wall time for execution: 0:00:31.34

*** Psi4 exiting successfully. Buy a developer a beer!
