
    -----------------------------------------------------------------------
          Psi4: An Open-Source Ab Initio Electronic Structure Package
                               Psi4 1.2a1.dev939 

                         Git: Rev {HEAD} fa1ec19 dirty


    R. M. Parrish, L. A. Burns, D. G. A. Smith, A. C. Simmonett,
    A. E. DePrince III, E. G. Hohenstein, U. Bozkaya, A. Yu. Sokolov,
    R. Di Remigio, R. M. Richard, J. F. Gonthier, A. M. James,
    H. R. McAlexander, A. Kumar, M. Saitow, X. Wang, B. P. Pritchard,
    P. Verma, H. F. Schaefer III, K. Patkowski, R. A. King, E. F. Valeev,
    F. A. Evangelista, J. M. Turney, T. D. Crawford, and C. D. Sherrill,
    J. Chem. Theory Comput. 13(7) pp 3185--3197 (2017).
    (doi: 10.1021/acs.jctc.7b00174)

    -----------------------------------------------------------------------


    Psi4 started on: Thursday, 06 August 2020 10:50AM

    Process ID: 382216
    PSIDATADIR: /home/fs71337/airmler/src/psi4new/build/stage/usr/local/psi4/share/psi4
    Memory:     500.0 MiB
    Threads:    48
    
  ==> Input File <==

--------------------------------------------------------------------------
# Any line starting with the # character is a comment line

memory 150000 mb

molecule molecule {
0 1
C          0.0000000000        0.0000000000        0.0000000000
O          0.0000000000        0.0000000000        1.1702257798
O          0.0000000000        0.0000000000       -1.1702257798
}

set {
  reference rhf


  basis aug-cc-pv(6+d)z
  scf_type OUT_OF_CORE
  freeze_core true
}

energy('ccsd')
--------------------------------------------------------------------------

  Memory set to 139.698 GiB by Python driver.

*** tstart() called on n412-049.vsc4.prov
*** at Thu Aug  6 10:50:12 2020

   => Loading Basis Set <=

    Name: AUG-CC-PV(6+D)Z
    Role: ORBITAL
    Keyword: BASIS
    atoms 1   entry C          line   267 file /home/fs71337/airmler/src/psi4new/build/stage/usr/local/psi4/share/psi4/basis/aug-cc-pv_6pd_z.gbs 
    atoms 2-3 entry O          line   459 file /home/fs71337/airmler/src/psi4new/build/stage/usr/local/psi4/share/psi4/basis/aug-cc-pv_6pd_z.gbs 


         ---------------------------------------------------------
                                   SCF
            by Justin Turney, Rob Parrish, Andy Simmonett
                             and Daniel Smith
                              RHF Reference
                       48 Threads, 143051 MiB Core
         ---------------------------------------------------------

  ==> Geometry <==

    Molecular point group: d2h
    Full point group: D_inf_h

    Geometry (in Angstrom), charge = 0, multiplicity = 1:

       Center              X                  Y                   Z               Mass       
    ------------   -----------------  -----------------  -----------------  -----------------
           C          0.000000000000     0.000000000000     0.000000000000    12.000000000000
           O          0.000000000000     0.000000000000     1.170225779800    15.994914619560
           O          0.000000000000     0.000000000000    -1.170225779800    15.994914619560

  Running in d2h symmetry.

  Rotational constants: A = ************  B =      0.38481  C =      0.38481 [cm^-1]
  Rotational constants: A = ************  B =  11536.28434  C =  11536.28434 [MHz]
  Nuclear repulsion =   57.881721517958987

  Charge       = 0
  Multiplicity = 1
  Electrons    = 22
  Nalpha       = 11
  Nbeta        = 11

  ==> Algorithm <==

  SCF Algorithm Type is OUT_OF_CORE.
  DIIS enabled.
  MOM disabled.
  Fractional occupation disabled.
  Guess Type is SAD.
  Energy threshold   = 1.00e-08
  Density threshold  = 1.00e-08
  Integral threshold = 0.00e+00

  ==> Primary Basis <==

  Basis Set: AUG-CC-PV(6+D)Z
    Blend: AUG-CC-PV(6+D)Z
    Number of shells: 105
    Number of basis function: 567
    Number of Cartesian functions: 882
    Spherical Harmonics?: true
    Max angular momentum: 6

  ==> Pre-Iterations <==

   -------------------------------------------------------
    Irrep   Nso     Nmo     Nalpha   Nbeta   Ndocc  Nsocc
   -------------------------------------------------------
     Ag       106     106       0       0       0       0
     B1g       51      51       0       0       0       0
     B2g       66      66       0       0       0       0
     B3g       66      66       0       0       0       0
     Au        42      42       0       0       0       0
     B1u       92      92       0       0       0       0
     B2u       72      72       0       0       0       0
     B3u       72      72       0       0       0       0
   -------------------------------------------------------
    Total     567     567      11      11      11       0
   -------------------------------------------------------

  ==> Integral Setup <==

  ==> DiskJK: Disk-Based J/K Matrices <==

    J tasked:                  Yes
    K tasked:                  Yes
    wK tasked:                  No
    Memory (MB):            107288
    Schwarz Cutoff:          1E-12

  Minimum eigenvalue in the overlap matrix is 7.1943617091E-07.
  Using Symmetric Orthogonalization.

  SCF Guess: Superposition of Atomic Densities via on-the-fly atomic UHF.

  ==> Iterations <==

                        Total Energy        Delta E     RMS |[F,P]|

   @RHF iter   0:  -188.52845303155669   -1.88528e+02   4.54927e-02 
   @RHF iter   1:  -187.64022834248570    8.88225e-01   7.42487e-03 
   @RHF iter   2:  -187.69387540733192   -5.36471e-02   4.73107e-03 DIIS
   @RHF iter   3:  -187.72099616107732   -2.71208e-02   6.90129e-04 DIIS
   @RHF iter   4:  -187.72230614785616   -1.30999e-03   2.70190e-04 DIIS
   @RHF iter   5:  -187.72254079839709   -2.34651e-04   5.89175e-05 DIIS
   @RHF iter   6:  -187.72255210490852   -1.13065e-05   7.22475e-06 DIIS
   @RHF iter   7:  -187.72255227167884   -1.66770e-07   1.66370e-06 DIIS
   @RHF iter   8:  -187.72255228081505   -9.13622e-09   4.51402e-07 DIIS
   @RHF iter   9:  -187.72255228164917   -8.34120e-10   1.13020e-07 DIIS
   @RHF iter  10:  -187.72255228171935   -7.01732e-11   1.47147e-08 DIIS
   @RHF iter  11:  -187.72255228172091   -1.56319e-12   1.46456e-09 DIIS

  ==> Post-Iterations <==

    Orbital Energies (a.u.)
    -----------------------

    Doubly Occupied:                                                      

       1B1u  -20.652002     1Ag   -20.651959     2Ag   -11.464733  
       3Ag    -1.525406     2B1u   -1.472340     4Ag    -0.801977  
       3B1u   -0.742012     1B3u   -0.711745     1B2u   -0.711745  
       1B2g   -0.544453     1B3g   -0.544453  

    Virtual:                                                              

       5Ag     0.030764     2B3u    0.042486     2B2u    0.042486  
       4B1u    0.048634     6Ag     0.086185     2B2g    0.088140  
       2B3g    0.088140     5B1u    0.111781     3B3u    0.131748  
       3B2u    0.131748     7Ag     0.134435     4B3u    0.169149  
       4B2u    0.169149     8Ag     0.174328     1B1g    0.174328  
       6B1u    0.177259     5B3u    0.219417     5B2u    0.219417  
       9Ag     0.239178     3B2g    0.251776     3B3g    0.251776  
       7B1u    0.280639    10Ag     0.319918     8B1u    0.332801  
       1Au     0.332801     6B3u    0.388687     6B2u    0.388687  
      11Ag     0.423478     9B1u    0.424611    12Ag     0.434886  
       2B1g    0.434886     4B2g    0.437984     4B3g    0.437984  
       7B2u    0.449483     7B3u    0.449483     8B3u    0.469654  
       8B2u    0.469654    13Ag     0.512293    10B1u    0.523550  
       5B2g    0.564133     5B3g    0.564133    14Ag     0.564868  
       3B1g    0.564868    15Ag     0.570958    11B1u    0.584579  
       2Au     0.642903    12B1u    0.642903     9B3u    0.675912  
       9B2u    0.675912     6B3g    0.786798     6B2g    0.786798  
      16Ag     0.835645    10B3u    0.860362    10B2u    0.860362  
      13B1u    0.888120     7B2g    0.895788     7B3g    0.895788  
      14B1u    0.917043     3Au     0.917043    15B1u    0.934357  
      17Ag     0.976820     4B1g    0.976820    11B2u    0.988046  
      11B3u    0.988046    18Ag     0.992176     8B2g    1.005753  
       8B3g    1.005753    19Ag     1.006448    12B3u    1.011014  
      12B2u    1.011014    16B1u    1.104863    20Ag     1.164105  
       5B1g    1.164105    21Ag     1.197714    22Ag     1.215170  
       6B1g    1.215170    17B1u    1.256548    18B1u    1.266993  
       4Au     1.266993    13B2u    1.286533    13B3u    1.286533  
       9B2g    1.286654     9B3g    1.286654    14B3u    1.376124  
      14B2u    1.376124    10B2g    1.400401    10B3g    1.400401  
      23Ag     1.445853     7B1g    1.445853    11B2g    1.542960  
      11B3g    1.542960    24Ag     1.577581    15B2u    1.593104  
      15B3u    1.593104    19B1u    1.640236    16B3u    1.700306  
      16B2u    1.700306    20B1u    1.729469    21B1u    1.743870  
       5Au     1.743870    22B1u    1.782983    25Ag     1.792494  
      26Ag     1.936838     8B1g    1.936838    27Ag     1.938103  
      12B2g    1.986480    12B3g    1.986480    23B1u    2.048517  
       6Au     2.048517    13B2g    2.184808    13B3g    2.184808  
      14B2g    2.229904    14B3g    2.229904    17B2u    2.256466  
      17B3u    2.256466     9B1g    2.275368    28Ag     2.275368  
      18B3u    2.276229    18B2u    2.276229     7Au     2.312411  
      24B1u    2.312411    25B1u    2.356833    29Ag     2.447647  
      19B2u    2.481268    19B3u    2.481268    10B1g    2.483942  
      30Ag     2.483942    20B3u    2.558422    20B2u    2.558422  
      15B2g    2.576416    15B3g    2.576416    31Ag     2.582191  
      11B1g    2.582191    21B2u    2.599557    21B3u    2.599557  
      32Ag     2.602373     8Au     2.620459    26B1u    2.620459  
      22B2u    2.745153    22B3u    2.745153    27B1u    2.776783  
      16B2g    2.818409    16B3g    2.818409    28B1u    2.887784  
       9Au     2.887784    29B1u    2.959747    33Ag     2.967140  
      17B2g    2.984675    17B3g    2.984675    23B2u    3.013640  
      23B3u    3.013640    10Au     3.066551    30B1u    3.066551  
      24B3u    3.067911    24B2u    3.067911    34Ag     3.132572  
      35Ag     3.144838    12B1g    3.144838    36Ag     3.166069  
      13B1g    3.166069    18B2g    3.185441    18B3g    3.185441  
      31B1u    3.193670    37Ag     3.278782    38Ag     3.610312  
      14B1g    3.610312    19B2g    3.636577    19B3g    3.636577  
      32B1u    3.641508    25B2u    3.660786    25B3u    3.660786  
      39Ag     3.713239    20B2g    3.791883    20B3g    3.791883  
      33B1u    3.873289    11Au     3.873289    26B2u    4.003953  
      26B3u    4.003953    27B2u    4.152809    27B3u    4.152809  
      21B3g    4.360227    21B2g    4.360227    34B1u    4.402858  
      22B2g    4.429686    22B3g    4.429686    15B1g    4.587230  
      40Ag     4.587230    28B3u    4.596654    28B2u    4.596654  
      29B2u    4.602870    29B3u    4.602870    35B1u    4.629350  
      12Au     4.629350    41Ag     4.662289    36B1u    4.742928  
      16B1g    4.888025    42Ag     4.888025    23B2g    5.076111  
      23B3g    5.076111    30B2u    5.219505    30B3u    5.219505  
      24B3g    5.242418    24B2g    5.242418    43Ag     5.243288  
      17B1g    5.243288    37B1u    5.272021    44Ag     5.274996  
      13Au     5.277312    38B1u    5.277312    39B1u    5.328932  
      14Au     5.328932    31B2u    5.355083    31B3u    5.355083  
      32B3u    5.358327    32B2u    5.358327    25B2g    5.368491  
      25B3g    5.368491    45Ag     5.374264    18B1g    5.374264  
      19B1g    5.435248    46Ag     5.435248    40B1u    5.484634  
      47Ag     5.497551    41B1u    5.502377    15Au     5.502377  
      26B2g    5.557809    26B3g    5.557809    33B2u    5.576999  
      33B3u    5.576999    16Au     5.701294    42B1u    5.701294  
      48Ag     5.707069    27B2g    5.753759    27B3g    5.753759  
      20B1g    5.755191    49Ag     5.755191    43B1u    5.902358  
      34B3u    6.080517    34B2u    6.080517    44B1u    6.130626  
      17Au     6.130626    35B2u    6.234602    35B3u    6.234602  
      50Ag     6.253815    21B1g    6.340249    51Ag     6.340249  
      36B2u    6.360374    36B3u    6.360374    28B2g    6.360379  
      28B3g    6.360379    29B2g    6.364866    29B3g    6.364866  
      52Ag     6.394818    30B2g    6.464096    30B3g    6.464096  
      45B1u    6.472484    46B1u    6.590262    18Au     6.590262  
      37B2u    7.015506    37B3u    7.015506    38B3u    7.017922  
      38B2u    7.017922    22B1g    7.098512    53Ag     7.098512  
      23B1g    7.129319    54Ag     7.129319    47B1u    7.334932  
      24B1g    7.338266    55Ag     7.338266    31B2g    7.440408  
      31B3g    7.440408    39B2u    7.671310    39B3u    7.671310  
      32B2g    7.732247    32B3g    7.732247    48B1u    7.879390  
      19Au     7.879390    56Ag     7.882062    25B1g    7.966566  
      57Ag     7.966566    40B2u    7.985349    40B3u    7.985349  
      20Au     8.079080    49B1u    8.079080    50B1u    8.126768  
      33B3g    8.277896    33B2g    8.277896    41B2u    8.350153  
      41B3u    8.350153    58Ag     8.554342    51B1u    8.764834  
      34B3g    8.797014    34B2g    8.797014    59Ag     8.815794  
      35B2g    8.912372    35B3g    8.912372    52B1u    8.998018  
      26B1g    9.292097    60Ag     9.292097    53B1u    9.348460  
      21Au     9.348460    61Ag     9.409868    27B1g    9.409868  
      42B2u    9.477280    42B3u    9.477280    43B3u    9.528039  
      43B2u    9.528039    54B1u    9.698251    22Au     9.698251  
      62Ag     9.925414    36B3g   10.060176    36B2g   10.060176  
      28B1g   10.175614    63Ag    10.175614    37B2g   10.298058  
      37B3g   10.298058    44B2u   10.354004    44B3u   10.354004  
      64Ag    10.560235    55B1u   10.565129    56B1u   10.635212  
      23Au    10.635212    38B2g   10.801951    38B3g   10.801951  
      29B1g   10.866194    65Ag    10.866194    45B3u   10.878427  
      45B2u   10.878427    46B3u   10.916353    46B2u   10.916353  
      39B2g   11.208753    39B3g   11.208753    66Ag    11.261340  
      30B1g   11.272402    67Ag    11.272402    31B1g   11.299217  
      68Ag    11.299217    24Au    11.321936    57B1u   11.321936  
      47B3u   11.377392    47B2u   11.377392    40B2g   11.381504  
      40B3g   11.381504    25Au    11.468886    58B1u   11.468886  
      41B2g   11.503028    41B3g   11.503028    48B3u   11.503116  
      48B2u   11.503116    59B1u   11.675673    32B1g   11.767483  
      69Ag    11.767483    49B3u   11.818206    49B2u   11.818206  
      60B1u   11.971703    26Au    11.971703    61B1u   11.973190  
      42B2g   12.029939    42B3g   12.029939    70Ag    12.196031  
      71Ag    12.366741    33B1g   12.366741    62B1u   12.497913  
      43B2g   12.585409    43B3g   12.585409    44B3g   12.605908  
      44B2g   12.605908    45B2g   12.834938    45B3g   12.834938  
      50B2u   12.939003    50B3u   12.939003    63B1u   13.037246  
      27Au    13.037246    72Ag    13.174099    51B2u   13.350346  
      51B3u   13.350346    73Ag    13.441270    34B1g   13.441270  
      35B1g   13.443076    74Ag    13.443076    75Ag    13.786795  
      36B1g   13.786795    28Au    13.914101    64B1u   13.914101  
      46B3g   13.956370    46B2g   13.956370    76Ag    14.303790  
      65B1u   14.379291    52B3u   14.398399    52B2u   14.398399  
      47B2g   14.441843    47B3g   14.441843    66B1u   14.531835  
      29Au    14.531835    67B1u   14.588886    30Au    14.588886  
      77Ag    14.607626    53B2u   14.622240    53B3u   14.622240  
      54B3u   14.821963    54B2u   14.821963    37B1g   15.055706  
      78Ag    15.055706    68B1u   15.364600    55B2u   15.446658  
      55B3u   15.446658    48B2g   15.488326    48B3g   15.488326  
      31Au    15.677184    69B1u   15.677184    38B1g   15.692755  
      79Ag    15.692755    49B3g   15.797821    49B2g   15.797821  
      56B2u   15.902205    56B3u   15.902205    70B1u   16.244173  
      32Au    16.244173    71B1u   16.254641    57B2u   16.258242  
      57B3u   16.258242    80Ag    16.282007    39B1g   16.595977  
      81Ag    16.595977    58B2u   16.638929    58B3u   16.638929  
      82Ag    16.739633    40B1g   16.739633    50B3g   16.793918  
      50B2g   16.793918    83Ag    17.097558    72B1u   17.185384  
      59B2u   17.205883    59B3u   17.205883    51B3g   18.565129  
      51B2g   18.565129    52B3g   18.653808    52B2g   18.653808  
      73B1u   19.100443    33Au    19.100443    41B1g   19.296244  
      84Ag    19.296244    85Ag    19.498078    74B1u   19.624186  
      53B3g   20.139710    53B2g   20.139710    86Ag    20.349101  
      60B2u   21.046466    60B3u   21.046466    42B1g   22.399863  
      87Ag    22.399863    75B1u   22.706378    34Au    22.706378  
      88Ag    22.731573    43B1g   22.731573    61B3u   22.775284  
      61B2u   22.775284    54B2g   23.023750    54B3g   23.023750  
      89Ag    23.193622    76B1u   23.199134    35Au    23.272057  
      77B1u   23.272057    78B1u   23.519258    62B2u   23.647505  
      62B3u   23.647505    55B3g   23.697878    55B2g   23.697878  
      44B1g   23.727701    90Ag    23.727701    56B3g   23.838181  
      56B2g   23.838181    63B2u   24.107582    63B3u   24.107582  
      36Au    24.149790    79B1u   24.149790    57B3g   24.216028  
      57B2g   24.216028    45B1g   24.460694    91Ag    24.460694  
      80B1u   24.702821    92Ag    24.710060    64B3u   24.746466  
      64B2u   24.746466    58B3g   26.258718    58B2g   26.258718  
      59B2g   26.813618    59B3g   26.813618    65B3u   26.827761  
      65B2u   26.827761    46B1g   26.986926    93Ag    26.986926  
      94Ag    27.046817    37Au    27.123685    81B1u   27.123685  
      95Ag    27.330841    66B3u   27.343461    66B2u   27.343461  
      38Au    27.499973    82B1u   27.499973    60B2g   27.536153  
      60B3g   27.536153    47B1g   27.610824    96Ag    27.610824  
      67B2u   27.840746    67B3u   27.840746    83B1u   28.004261  
      61B3g   28.147907    61B2g   28.147907    97Ag    28.328751  
      68B2u   28.885351    68B3u   28.885351    84B1u   28.912867  
      62B3g   29.344630    62B2g   29.344630    48B1g   30.192942  
      98Ag    30.192942    85B1u   31.069360    39Au    31.069360  
      86B1u   31.486466    40Au    31.486466    69B2u   31.572588  
      69B3u   31.572588    49B1g   31.691752    99Ag    31.691752  
      70B2u   32.366299    70B3u   32.366299    63B2g   32.435565  
      63B3g   32.435565    87B1u   32.465016    41Au    32.465016  
      64B3g   32.861660    64B2g   32.861660   100Ag    33.115634  
      88B1u   33.155285    50B1g   33.501597   101Ag    33.501597  
      71B2u   33.712327    71B3u   33.712327    89B1u   33.744363  
      65B3g   34.378001    65B2g   34.378001   102Ag    34.550033  
      90B1u   35.392544    42Au    35.392544    51B1g   35.691516  
     103Ag    35.691516    72B2u   37.154274    72B3u   37.154274  
     104Ag    37.791498    66B3g   38.902082    66B2g   38.902082  
      91B1u   39.881092   105Ag    64.370575    92B1u  106.229738  
     106Ag   106.595136  

    Final Occupation by Irrep:
             Ag   B1g   B2g   B3g    Au   B1u   B2u   B3u 
    DOCC [     4,    0,    1,    1,    0,    3,    1,    1 ]

  Energy converged.

  @RHF Final Energy:  -187.72255228172091

   => Energetics <=

    Nuclear Repulsion Energy =             57.8817215179589866
    One-Electron Energy =                -371.5628957396579040
    Two-Electron Energy =                 125.9586219399780305
    PCM Polarization Energy =               0.0000000000000000
    Total Energy =                       -187.7225522817209082

    Alert: EFP and PCM quantities not currently incorporated into SCF psivars.

Properties will be evaluated at   0.000000,   0.000000,   0.000000 Bohr

Properties computed using the SCF density matrix

  Nuclear Dipole Moment: (a.u.)
     X:     0.0000      Y:     0.0000      Z:     0.0000

  Electronic Dipole Moment: (a.u.)
     X:     0.0000      Y:     0.0000      Z:     0.0000

  Dipole Moment: (a.u.)
     X:     0.0000      Y:     0.0000      Z:     0.0000     Total:     0.0000

  Dipole Moment: (Debye)
     X:     0.0000      Y:     0.0000      Z:     0.0000     Total:     0.0000


*** tstop() called on n412-049.vsc4.prov at Thu Aug  6 11:30:15 2020
Module time:
	user time   =    2514.32 seconds =      41.91 minutes
	system time =     196.84 seconds =       3.28 minutes
	total time  =       2403 seconds =      40.05 minutes
Total time:
	user time   =    2514.32 seconds =      41.91 minutes
	system time =     196.84 seconds =       3.28 minutes
	total time  =       2403 seconds =      40.05 minutes

*** tstart() called on n412-049.vsc4.prov
*** at Thu Aug  6 11:30:15 2020


	Wfn Parameters:
	--------------------
	Wavefunction         = CCSD
	Number of irreps     = 8
	Number of MOs        = 567
	Number of active MOs = 564
	AO-Basis             = NONE
	Semicanonical        = false
	Reference            = RHF
	Print Level          = 1

	IRREP	# MOs	# FZDC	# DOCC	# SOCC	# VIRT	# FZVR
	-----	-----	------	------	------	------	------
	 Ag	   106	    2	    2	    0	    102	    0
	 B1g	   51	    0	    0	    0	    51	    0
	 B2g	   66	    0	    1	    0	    65	    0
	 B3g	   66	    0	    1	    0	    65	    0
	 Au	   42	    0	    0	    0	    42	    0
	 B1u	   92	    1	    2	    0	    89	    0
	 B2u	   72	    0	    1	    0	    71	    0
	 B3u	   72	    0	    1	    0	    71	    0
	Transforming integrals...
	IWL integrals will be deleted.
	(OO|OO)...
	Presorting SO-basis two-electron integrals.
	Sorting File: SO Ints (nn|nn) nbuckets = 1
	Transforming the one-electron integrals and constructing Fock matrices
	Starting first half-transformation.
	Sorting half-transformed integrals.
	First half integral transformation complete.
	Starting second half-transformation.
	Two-electron integral transformation complete.
	(OO|OV)...
	Starting second half-transformation.
	Two-electron integral transformation complete.
	(OO|VV)...
	Starting second half-transformation.
	Two-electron integral transformation complete.
	(OV|OO)...
	Starting first half-transformation.
	Sorting half-transformed integrals.
	First half integral transformation complete.
	Starting second half-transformation.
	Two-electron integral transformation complete.
	(OV|OV)...
	Starting second half-transformation.
	Two-electron integral transformation complete.
	(OV|VV)...
	Starting second half-transformation.
	Two-electron integral transformation complete.
	(VV|OO)...
	Starting first half-transformation.
	Sorting half-transformed integrals.
	First half integral transformation complete.
	Starting second half-transformation.
	Two-electron integral transformation complete.
	(VV|OV)...
	Starting second half-transformation.
	Two-electron integral transformation complete.
	(VV|VV)...
	Starting second half-transformation.
	Two-electron integral transformation complete.
	Frozen core energy     =   -178.61140528355148

	Size of irrep 0 of <ab|cd> integrals:   1699.253 (MW) /  13594.026 (MB)
	Size of irrep 1 of <ab|cd> integrals:   1325.834 (MW) /  10606.670 (MB)
	Size of irrep 2 of <ab|cd> integrals:   1481.634 (MW) /  11853.073 (MB)
	Size of irrep 3 of <ab|cd> integrals:   1481.634 (MW) /  11853.073 (MB)
	Size of irrep 4 of <ab|cd> integrals:   1303.643 (MW) /  10429.146 (MB)
	Size of irrep 5 of <ab|cd> integrals:   1672.810 (MW) /  13382.480 (MB)
	Size of irrep 6 of <ab|cd> integrals:   1502.028 (MW) /  12016.220 (MB)
	Size of irrep 7 of <ab|cd> integrals:   1502.028 (MW) /  12016.220 (MB)
	Total:                                 11968.863 (MW) /  95750.908 (MB)

	Size of irrep 0 of <ia|bc> integrals:     26.959 (MW) /    215.674 (MB)
	Size of irrep 1 of <ia|bc> integrals:     16.677 (MW) /    133.414 (MB)
	Size of irrep 2 of <ia|bc> integrals:     21.402 (MW) /    171.212 (MB)
	Size of irrep 3 of <ia|bc> integrals:     21.402 (MW) /    171.212 (MB)
	Size of irrep 4 of <ia|bc> integrals:     16.537 (MW) /    132.292 (MB)
	Size of irrep 5 of <ia|bc> integrals:     26.749 (MW) /    213.989 (MB)
	Size of irrep 6 of <ia|bc> integrals:     21.548 (MW) /    172.387 (MB)
	Size of irrep 7 of <ia|bc> integrals:     21.548 (MW) /    172.387 (MB)
	Total:                                   172.821 (MW) /   1382.566 (MB)

	Size of irrep 0 of tijab amplitudes:       0.495 (MW) /      3.957 (MB)
	Size of irrep 1 of tijab amplitudes:       0.146 (MW) /      1.165 (MB)
	Size of irrep 2 of tijab amplitudes:       0.308 (MW) /      2.463 (MB)
	Size of irrep 3 of tijab amplitudes:       0.308 (MW) /      2.463 (MB)
	Size of irrep 4 of tijab amplitudes:       0.144 (MW) /      1.155 (MB)
	Size of irrep 5 of tijab amplitudes:       0.491 (MW) /      3.926 (MB)
	Size of irrep 6 of tijab amplitudes:       0.310 (MW) /      2.480 (MB)
	Size of irrep 7 of tijab amplitudes:       0.310 (MW) /      2.480 (MB)
	Total:                                     2.512 (MW) /     20.092 (MB)

	Nuclear Rep. energy          =     57.88172151795899
	SCF energy                   =   -187.72255228172091
	One-electron energy          =   -119.87747211639828
	Two-electron energy          =     52.88460360027082
	Reference energy             =   -187.72255228171994

*** tstop() called on n412-049.vsc4.prov at Thu Aug  6 12:23:12 2020
Module time:
	user time   =    8130.18 seconds =     135.50 minutes
	system time =     688.98 seconds =      11.48 minutes
	total time  =       3177 seconds =      52.95 minutes
Total time:
	user time   =   10644.50 seconds =     177.41 minutes
	system time =     885.82 seconds =      14.76 minutes
	total time  =       5580 seconds =      93.00 minutes

*** tstart() called on n412-049.vsc4.prov
*** at Thu Aug  6 12:23:12 2020

            **************************
            *                        *
            *        CCENERGY        *
            *                        *
            **************************

    Nuclear Rep. energy (wfn)     =   57.881721517958987
    SCF energy          (wfn)     = -187.722552281720908
    Reference energy    (file100) = -187.722552281719942

    Input parameters:
    -----------------
    Wave function   =     CCSD
    Reference wfn   =     RHF
    Brueckner       =     No
    Memory (Mbytes) =     150000.0
    Maxiter         =     50
    R_Convergence   =     1.0e-07
    E_Convergence   =     1.0e-06
    Restart         =     Yes
    DIIS            =     Yes
    AO Basis        =     NONE
    ABCD            =     NEW
    Cache Level     =     2
    Cache Type      =     LOW
    Print Level     =     1
    Num. of threads =     48
    # Amps to Print =     10
    Print MP2 Amps? =     No
    Analyze T2 Amps =     No
    Print Pair Ener =     No
    Local CC        =     No
    SCS-MP2         =     False
    SCSN-MP2        =     False
    SCS-CCSD        =     False

MP2 correlation energy -0.6777785296796670
                Solving CC Amplitude Equations
                ------------------------------
  Iter             Energy              RMS        T1Diag      D1Diag    New D1Diag    D2Diag
  ----     ---------------------    ---------   ----------  ----------  ----------   --------
     0        -0.677778529679666    0.000e+00    0.000000    0.000000    0.000000    0.151176
     1        -0.638291328337785    3.873e-01    0.033064    0.084280    0.084280    0.141455
     2        -0.669437674503134    9.931e-02    0.017378    0.043997    0.043997    0.160041
     3        -0.656443172029615    2.667e-02    0.019025    0.049175    0.049175    0.150915
     4        -0.654335665739801    4.700e-03    0.018228    0.047005    0.047005    0.149859
     5        -0.654581738126193    1.194e-03    0.017948    0.046325    0.046325    0.149607
     6        -0.654474875148547    3.887e-04    0.017857    0.046091    0.046091    0.149428
     7        -0.654471989230165    9.443e-05    0.017838    0.046038    0.046038    0.149399
     8        -0.654477308689517    2.790e-05    0.017836    0.046033    0.046033    0.149400
     9        -0.654475612626242    9.970e-06    0.017834    0.046027    0.046027    0.149398
    10        -0.654475590080931    2.597e-06    0.017834    0.046026    0.046026    0.149398
    11        -0.654475754018774    8.646e-07    0.017834    0.046026    0.046026    0.149398
    12        -0.654475792836024    2.851e-07    0.017834    0.046026    0.046026    0.149398
    13        -0.654475779740831    8.273e-08    0.017834    0.046026    0.046026    0.149398
    13        -0.654475779740831    8.273e-08    0.017834    0.046026    0.046026    0.149398

    Iterations converged.


    CCSD corr. energy   =   -0.654475779740831
    PPL corr. energy    =    0.152400988930549
    OS PPL corr. energy =    0.124945063481779
    SS PPL corr. energy =    0.027455925448770
    Largest TIA Amplitudes:
              7 488         0.0345397632
              6 417         0.0345397224
              7 487         0.0259472904
              6 416         0.0259472670
              7 491         0.0102121982
              6 420         0.0102121858
              3 226        -0.0083613232
              2 161        -0.0083613189
              1   8        -0.0076946945
              1   5         0.0068449144

    Largest TIjAb Amplitudes:
      2   2 488 488        -0.0448510494
      3   3 417 417        -0.0448510410
      7   7 488 488        -0.0426906905
      6   6 417 417        -0.0426906891
      2   2 487 488        -0.0400741671
      2   2 488 487        -0.0400741671
      3   3 416 417        -0.0400741608
      3   3 417 416        -0.0400741608
      2   2 487 487        -0.0361762227
      3   3 416 416        -0.0361762180

    SCF energy       (wfn)                    = -187.722552281720908
    Reference energy (file100)                = -187.722552281719942

    Opposite-spin MP2 correlation energy      =   -0.506427547495996
    Same-spin MP2 correlation energy          =   -0.171350982183670
    MP2 correlation energy                    =   -0.677778529679667
      * MP2 total energy                      = -188.400330811399613

    Opposite-spin CCSD correlation energy     =   -0.507490070693134
    Same-spin CCSD correlation energy         =   -0.146985709064463
    CCSD correlation energy                   =   -0.654475779740831
      * CCSD total energy                     = -188.377028061460777


*** tstop() called on n412-049.vsc4.prov at Thu Aug  6 12:32:14 2020
Module time:
	user time   =    5980.34 seconds =      99.67 minutes
	system time =     438.74 seconds =       7.31 minutes
	total time  =        542 seconds =       9.03 minutes
Total time:
	user time   =   16624.84 seconds =     277.08 minutes
	system time =    1324.56 seconds =      22.08 minutes
	total time  =       6122 seconds =     102.03 minutes

*** Psi4 exiting successfully. Buy a developer a beer!
