
    -----------------------------------------------------------------------
          Psi4: An Open-Source Ab Initio Electronic Structure Package
                               Psi4 1.4a3.dev88 

                         Git: Rev {master} 262e345 


    D. G. A. Smith, L. A. Burns, A. C. Simmonett, R. M. Parrish,
    M. C. Schieber, R. Galvelis, P. Kraus, H. Kruse, R. Di Remigio,
    A. Alenaizan, A. M. James, S. Lehtola, J. P. Misiewicz, M. Scheurer,
    R. A. Shaw, J. B. Schriber, Y. Xie, Z. L. Glick, D. A. Sirianni,
    J. S. O'Brien, J. M. Waldrop, A. Kumar, E. G. Hohenstein,
    B. P. Pritchard, B. R. Brooks, H. F. Schaefer III, A. Yu. Sokolov,
    K. Patkowski, A. E. DePrince III, U. Bozkaya, R. A. King,
    F. A. Evangelista, J. M. Turney, T. D. Crawford, C. D. Sherrill,
    J. Chem. Phys. 152(18) 184108 (2020). https://doi.org/10.1063/5.0006002

                            Additional Code Authors
    E. T. Seidl, C. L. Janssen, E. F. Valeev, M. L. Leininger,
    J. F. Gonthier, R. M. Richard, H. R. McAlexander, M. Saitow, X. Wang,
    P. Verma, and M. H. Lechner

             Previous Authors, Complete List of Code Contributors,
                       and Citations for Specific Modules
    https://github.com/psi4/psi4/blob/master/codemeta.json
    https://github.com/psi4/psi4/graphs/contributors
    http://psicode.org/psi4manual/master/introduction.html#citing-psifour

    -----------------------------------------------------------------------


    Psi4 started on: Friday, 22 January 2021 07:40AM

    Process ID: 331904
    Host:       n411-011.vsc4.prov
    PSIDATADIR: /home/fs71337/gallo4/psi4/eri-6/psi4/build/stage/share/psi4
    Memory:     500.0 MiB
    Threads:    48
    
  ==> Input File <==

--------------------------------------------------------------------------
# Any line starting with the # character is a comment line
memory 250000 mb
molecule molecule{
0 1
Cl         0.0000000000        0.0000000000       -0.5693634997
F          0.0000000000        0.0000000000        1.0624916292
}

set {
  reference rhf
  basis aug-cc-pV(6+d)Z
  scf_type OUT_OF_CORE
  freeze_core true
}

energy('ccsd(t)')
--------------------------------------------------------------------------

  Memory set to 232.831 GiB by Python driver.

Scratch directory: /binfl/lv71337/airmler/temp/

*** tstart() called on n411-011.vsc4.prov
*** at Fri Jan 22 07:40:15 2021

   => Loading Basis Set <=

    Name: AUG-CC-PV(6+D)Z
    Role: ORBITAL
    Keyword: BASIS
    atoms 1 entry CL         line  1303 file /home/fs71337/gallo4/psi4/eri-6/psi4/build/stage/share/psi4/basis/aug-cc-pv_6pd_z.gbs 
    atoms 2 entry F          line   555 file /home/fs71337/gallo4/psi4/eri-6/psi4/build/stage/share/psi4/basis/aug-cc-pv_6pd_z.gbs 


         ---------------------------------------------------------
                                   SCF
               by Justin Turney, Rob Parrish, Andy Simmonett
                          and Daniel G. A. Smith
                              RHF Reference
                       48 Threads, 238418 MiB Core
         ---------------------------------------------------------

  ==> Geometry <==

    Molecular point group: c2v
    Full point group: C_inf_v

    Geometry (in Angstrom), charge = 0, multiplicity = 1:

       Center              X                  Y                   Z               Mass       
    ------------   -----------------  -----------------  -----------------  -----------------
         CL           0.000000000000     0.000000000000    -0.574471337420    34.968852682000
         F            0.000000000000     0.000000000000     1.057383791480    18.998403162730

  Running in c2v symmetry.

  Rotational constants: A = ************  B =      0.51424  C =      0.51424 [cm^-1]
  Rotational constants: A = ************  B =  15416.50223  C =  15416.50223 [MHz]
  Nuclear repulsion =   49.614767756428371

  Charge       = 0
  Multiplicity = 1
  Electrons    = 26
  Nalpha       = 13
  Nbeta        = 13

  ==> Algorithm <==

  SCF Algorithm Type is OUT_OF_CORE.
  DIIS enabled.
  MOM disabled.
  Fractional occupation disabled.
  Guess Type is SAD.
  Energy threshold   = 1.00e-08
  Density threshold  = 1.00e-08
  Integral threshold = 1.00e-12

  ==> Primary Basis <==

  Basis Set: AUG-CC-PV(6+D)Z
    Blend: AUG-CC-PV(6+D)Z
    Number of shells: 73
    Number of basis function: 387
    Number of Cartesian functions: 598
    Spherical Harmonics?: true
    Max angular momentum: 6

  ==> Integral Setup <==

  ==> DiskJK: Disk-Based J/K Matrices <==

    J tasked:                  Yes
    K tasked:                  Yes
    wK tasked:                  No
    Memory [MiB]:           178813
    Schwarz Cutoff:          1E-12

  Minimum eigenvalue in the overlap matrix is 1.0334888840E-05.
  Reciprocal condition number of the overlap matrix is 1.5535980061E-06.
    Using symmetric orthogonalization.

  ==> Pre-Iterations <==

  SCF Guess: Superposition of Atomic Densities via on-the-fly atomic UHF (no occupation information).


 WARNING: Atomic UHF is not converging! Try casting from a smaller basis or call Rob at CCMST.

 WARNING: Atomic UHF is not converging! Try casting from a smaller basis or call Rob at CCMST.
   -------------------------
    Irrep   Nso     Nmo    
   -------------------------
     A1       136     136 
     A2        63      63 
     B1        94      94 
     B2        94      94 
   -------------------------
    Total     387     387
   -------------------------

  ==> Iterations <==

                        Total Energy        Delta E     RMS |[F,P]|

   @RHF iter SAD:    37.06814123586945    3.70681e+01   0.00000e+00 
   @RHF iter   1:  -476.04204579436237   -5.13110e+02   1.13060e-01 DIIS
   @RHF iter   2:  -355.88642990561431    1.20156e+02   5.85594e-02 DIIS
   @RHF iter   3:  -480.66203660531096   -1.24776e+02   9.67344e-02 DIIS
   @RHF iter   4:  -491.79569285020295   -1.11337e+01   8.43300e-02 DIIS
   @RHF iter   5:  -512.85831769518495   -2.10626e+01   6.17438e-02 DIIS
   @RHF iter   6:  -530.87621024587884   -1.80179e+01   4.91197e-02 DIIS
    Occupation by irrep:
             A1    A2    B1    B2 
    DOCC [     7,    0,    3,    3 ]

   @RHF iter   7:  -536.84498365697164   -5.96877e+00   3.87033e-02 DIIS
   @RHF iter   8:  -557.30119184416822   -2.04562e+01   1.52802e-02 DIIS
   @RHF iter   9:  -557.99419180560665   -6.93000e-01   8.07362e-03 DIIS
   @RHF iter  10:  -558.89581115191390   -9.01619e-01   9.70232e-04 DIIS
   @RHF iter  11:  -558.91854225728923   -2.27311e-02   2.77577e-04 DIIS
   @RHF iter  12:  -558.91960790117491   -1.06564e-03   1.23312e-04 DIIS
   @RHF iter  13:  -558.91986083260383   -2.52931e-04   2.47051e-05 DIIS
   @RHF iter  14:  -558.91987167104890   -1.08384e-05   4.25069e-06 DIIS
   @RHF iter  15:  -558.91987187358973   -2.02541e-07   8.59321e-07 DIIS
   @RHF iter  16:  -558.91987188638836   -1.27986e-08   1.48356e-07 DIIS
   @RHF iter  17:  -558.91987188687233   -4.83965e-10   6.18117e-08 DIIS
   @RHF iter  18:  -558.91987188693201   -5.96856e-11   4.25431e-09 DIIS
  Energy and wave function converged.


  ==> Post-Iterations <==

    Orbital Energies [Eh]
    ---------------------

    Doubly Occupied:                                                      

       1A1  -104.937039     2A1   -26.354738     3A1   -10.655074  
       4A1    -8.122149     1B1    -8.119142     1B2    -8.119142  
       5A1    -1.638305     6A1    -1.105439     2B1    -0.725607  
       2B2    -0.725607     7A1    -0.700276     3B1    -0.493793  
       3B2    -0.493793  

    Virtual:                                                              

       8A1     0.032698     9A1     0.055298     4B1     0.071464  
       4B2     0.071464    10A1     0.095065    11A1     0.137875  
       5B1     0.141261     5B2     0.141261     1A2     0.215056  
      12A1     0.215056    13A1     0.231976     6B1     0.255488  
       6B2     0.255488    14A1     0.265770     7B1     0.303600  
       7B2     0.303600    15A1     0.328413    16A1     0.461678  
       8B1     0.477706     8B2     0.477706     2A2     0.486542  
      17A1     0.486542     9B2     0.531819     9B1     0.531819  
       3A2     0.539097    18A1     0.539097    10B2     0.550317  
      10B1     0.550317    19A1     0.567142    20A1     0.616962  
      21A1     0.627078    11B1     0.636423    11B2     0.636423  
       4A2     0.662304    22A1     0.662304    12B1     0.764296  
      12B2     0.764296    23A1     0.809952    13B2     1.002007  
      13B1     1.002007    24A1     1.015093    25A1     1.025370  
       5A2     1.025370    14B2     1.027105    14B1     1.027105  
      26A1     1.122840     6A2     1.122840    15B1     1.155650  
      15B2     1.155650    27A1     1.169923     7A2     1.261521  
      28A1     1.261521    29A1     1.274785    16B2     1.288386  
      16B1     1.288386    17B2     1.304614    17B1     1.304614  
      30A1     1.330897     8A2     1.330897    31A1     1.348078  
      18B2     1.396787    18B1     1.396787    32A1     1.398595  
      19B1     1.404842    19B2     1.404842     9A2     1.419057  
      33A1     1.419057    34A1     1.476455    20B1     1.530076  
      20B2     1.530076    21B1     1.665677    21B2     1.665677  
      35A1     1.700318    36A1     1.773368    10A2     1.773368  
      22B1     2.178447    22B2     2.178447    37A1     2.184297  
      38A1     2.341710    11A2     2.341710    23B1     2.395482  
      23B2     2.395482    24B2     2.419102    24B1     2.419102  
      39A1     2.439922    40A1     2.454945    12A2     2.454945  
      41A1     2.491860    13A2     2.491860    25B1     2.524106  
      25B2     2.524106    26B1     2.552988    26B2     2.552988  
      42A1     2.650665    43A1     2.789880    14A2     2.789880  
      15A2     2.799386    44A1     2.799386    45A1     2.855941  
      27B1     2.858976    27B2     2.858976    46A1     2.899729  
      47A1     2.901188    16A2     2.901188    28B1     2.907945  
      28B2     2.907945    29B1     2.928719    29B2     2.928719  
      30B2     2.930079    30B1     2.930079    48A1     2.965485  
      17A2     2.965485    49A1     2.996171    31B1     3.169506  
      31B2     3.169506    32B1     3.182316    32B2     3.182316  
      50A1     3.257271    51A1     3.265005    18A2     3.265005  
      33B1     3.337021    33B2     3.337021    52A1     3.460177  
      53A1     3.524713    19A2     3.524713    34B1     3.541928  
      34B2     3.541928    54A1     3.591881    35B1     3.687937  
      35B2     3.687937    55A1     4.015133    20A2     4.210678  
      56A1     4.210678    36B1     4.215856    36B2     4.215856  
      57A1     4.534188    37B1     4.667629    37B2     4.667629  
      58A1     4.919780    38B1     4.975145    38B2     4.975145  
      59A1     4.975819    21A2     4.975819    60A1     5.021872  
      22A2     5.021872    23A2     5.098315    61A1     5.098315  
      39B2     5.152348    39B1     5.152348    62A1     5.201023  
      24A2     5.201023    40B1     5.271487    40B2     5.271487  
      41B1     5.289991    41B2     5.289991    42B2     5.377540  
      42B1     5.377540    63A1     5.384732    25A2     5.384732  
      64A1     5.581546    26A2     5.581546    65A1     5.586334  
      43B1     5.669150    43B2     5.669150    44B1     5.680635  
      44B2     5.680635    66A1     5.819207    45B1     5.846077  
      45B2     5.846077    67A1     5.933987    27A2     5.933987  
      46B2     6.012426    46B1     6.012426    68A1     6.033485  
      47B1     6.117173    47B2     6.117173    69A1     6.148951  
      28A2     6.148951    70A1     6.259851    29A2     6.263024  
      71A1     6.263024    48B1     6.404780    48B2     6.404780  
      30A2     6.572171    72A1     6.572171    73A1     6.686030  
      49B1     6.842219    49B2     6.842219    74A1     6.907365  
      31A2     6.907365    75A1     6.909298    50B1     7.008608  
      50B2     7.008608    76A1     7.099577    32A2     7.099577  
      51B2     7.160583    51B1     7.160583    52B1     7.297197  
      52B2     7.297197    77A1     7.397479    78A1     7.475394  
      33A2     7.475394    53B2     7.548464    53B1     7.548464  
      54B2     7.578280    54B1     7.578280    79A1     7.716373  
      34A2     8.136825    80A1     8.136825    81A1     8.160595  
      55B2     8.455940    55B1     8.455940    35A2     8.711717  
      82A1     8.711717    56B2     8.905708    56B1     8.905708  
      83A1     9.096647    57B2     9.101723    57B1     9.101723  
      84A1     9.704583    58B1     9.878342    58B2     9.878342  
      36A2     9.886801    85A1     9.886801    86A1     9.896460  
      59B1     9.951441    59B2     9.951441    87A1    10.163611  
      37A2    10.163611    60B2    10.684779    60B1    10.684779  
      88A1    10.767281    89A1    10.960346    38A2    10.960346  
      61B2    10.960914    61B1    10.960914    90A1    10.986878  
      39A2    10.986878    91A1    10.995654    92A1    11.029860  
      40A2    11.029860    62B2    11.097135    62B1    11.097135  
      93A1    11.223740    41A2    11.223740    63B2    11.244095  
      63B1    11.244095    64B1    11.328069    64B2    11.328069  
      65B1    11.416502    65B2    11.416502    94A1    11.605585  
      42A2    11.605585    95A1    11.948909    66B1    11.962072  
      66B2    11.962072    96A1    12.096783    43A2    12.096783  
      67B1    12.096979    67B2    12.096979    97A1    12.213060  
      44A2    12.213060    68B2    12.376496    68B1    12.376496  
      98A1    12.501331    45A2    12.501331    69B1    12.662642  
      69B2    12.662642    99A1    12.721819    70B2    12.968275  
      70B1    12.968275   100A1    13.200395    46A2    13.296151  
     101A1    13.296151    71B1    13.483421    71B2    13.483421  
      47A2    13.641569   102A1    13.641569   103A1    13.749084  
      72B2    14.015855    72B1    14.015855   104A1    14.146093  
      48A2    14.146093    73B1    14.574966    73B2    14.574966  
      74B2    14.582390    74B1    14.582390   105A1    14.758270  
     106A1    15.015742    49A2    15.015742   107A1    15.101571  
      75B2    15.167344    75B1    15.167344    50A2    16.463993  
     108A1    16.463993    76B2    16.600665    76B1    16.600665  
     109A1    16.738028    77B2    16.814387    77B1    16.814387  
     110A1    16.960122    51A2    16.960122    78B2    17.261053  
      78B1    17.261053    52A2    17.431140   111A1    17.431140  
     112A1    17.432311    79B2    18.169085    79B1    18.169085  
     113A1    18.437522    53A2    18.437522   114A1    18.478683  
      80B2    19.710412    80B1    19.710412   115A1    20.700491  
     116A1    26.591921    81B2    28.355992    81B1    28.355992  
      82B1    29.306974    82B2    29.306974   117A1    29.324275  
      54A2    29.324275   118A1    29.349416    55A2    29.349416  
      83B1    29.523078    83B2    29.523078    56A2    29.844531  
     119A1    29.844531   120A1    29.884150    84B2    29.961374  
      84B1    29.961374   121A1    30.195161    85B1    34.995708  
      85B2    34.995708   122A1    35.036195    57A2    35.036195  
      86B1    35.223362    86B2    35.223362    87B2    35.390021  
      87B1    35.390021   123A1    35.412754    58A2    35.412754  
     124A1    35.438337    88B2    35.562298    88B1    35.562298  
     125A1    38.348856    59A2    39.111999   126A1    39.111999  
      89B1    39.269327    89B2    39.269327    90B2    39.573412  
      90B1    39.573412    60A2    39.633659   127A1    39.633659  
      91B2    40.023769    91B1    40.023769   128A1    40.095488  
      61A2    40.274810   129A1    40.274810    92B2    40.343657  
      92B1    40.343657   130A1    40.452862   131A1    40.576601  
      62A2    40.576601    93B2    41.024433    93B1    41.024433  
     132A1    41.772345    63A2    44.133704   133A1    44.133704  
      94B2    44.886211    94B1    44.886211   134A1    45.603945  
     135A1   129.990363   136A1   286.695972  

    Final Occupation by Irrep:
             A1    A2    B1    B2 
    DOCC [     7,    0,    3,    3 ]

  @RHF Final Energy:  -558.91987188693201

   => Energetics <=

    Nuclear Repulsion Energy =             49.6147677564283711
    One-Electron Energy =                -872.6890713455344439
    Two-Electron Energy =                 264.1544317021740653
    Total Energy =                       -558.9198718869320146

Computation Completed


Properties will be evaluated at   0.000000,   0.000000,   0.000000 [a0]

Properties computed using the SCF density matrix

  Nuclear Dipole Moment: [e a0]
     X:     0.0000      Y:     0.0000      Z:    -0.4716

  Electronic Dipole Moment: [e a0]
     X:     0.0000      Y:     0.0000      Z:     0.0307

  Dipole Moment: [e a0]
     X:     0.0000      Y:     0.0000      Z:    -0.4409     Total:     0.4409

  Dipole Moment: [D]
     X:     0.0000      Y:     0.0000      Z:    -1.1208     Total:     1.1208


*** tstop() called on n411-011.vsc4.prov at Fri Jan 22 07:59:26 2021
Module time:
	user time   =     977.44 seconds =      16.29 minutes
	system time =      92.55 seconds =       1.54 minutes
	total time  =       1151 seconds =      19.18 minutes
Total time:
	user time   =     977.44 seconds =      16.29 minutes
	system time =      92.55 seconds =       1.54 minutes
	total time  =       1151 seconds =      19.18 minutes

*** tstart() called on n411-011.vsc4.prov
*** at Fri Jan 22 07:59:26 2021


	Wfn Parameters:
	--------------------
	Wavefunction         = CCSD_T
	Number of irreps     = 4
	Number of MOs        = 387
	Number of active MOs = 381
	AO-Basis             = NONE
	Semicanonical        = false
	Reference            = RHF
	Print Level          = 1

	IRREP	# MOs	# FZDC	# DOCC	# SOCC	# VIRT	# FZVR
	-----	-----	------	------	------	------	------
	 A1	   136	    4	    3	    0	    129	    0
	 A2	   63	    0	    0	    0	    63	    0
	 B1	   94	    1	    2	    0	    91	    0
	 B2	   94	    1	    2	    0	    91	    0
	Transforming integrals...
	IWL integrals will be deleted.
	(OO|OO)...
	Presorting SO-basis two-electron integrals.
	Sorting File: SO Ints (nn|nn) nbuckets = 1
	Constructing frozen core operators
	Starting first half-transformation.
	Sorting half-transformed integrals.
	First half integral transformation complete.
	Starting second half-transformation.
	Two-electron integral transformation complete.
	(OO|OV)...
	Starting second half-transformation.
	Two-electron integral transformation complete.
	(OO|VV)...
	Starting second half-transformation.
	Two-electron integral transformation complete.
	(OV|OO)...
	Starting first half-transformation.
	Sorting half-transformed integrals.
	First half integral transformation complete.
	Starting second half-transformation.
	Two-electron integral transformation complete.
	(OV|OV)...
	Starting second half-transformation.
	Two-electron integral transformation complete.
	(OV|VV)...
	Starting second half-transformation.
	Two-electron integral transformation complete.
	(VV|OO)...
	Starting first half-transformation.
	Sorting half-transformed integrals.
	First half integral transformation complete.
	Starting second half-transformation.
	Two-electron integral transformation complete.
	(VV|OV)...
	Starting second half-transformation.
	Two-electron integral transformation complete.
	(VV|VV)...
	Starting second half-transformation.
	Two-electron integral transformation complete.
	Frozen core energy     =   -553.95614382402107

	Size of irrep 0 of <ab|cd> integrals:   1381.758 (MW) /  11054.061 (MB)
	Size of irrep 1 of <ab|cd> integrals:   1076.890 (MW) /   8615.119 (MB)
	Size of irrep 2 of <ab|cd> integrals:   1221.083 (MW) /   9768.665 (MB)
	Size of irrep 3 of <ab|cd> integrals:   1221.083 (MW) /   9768.665 (MB)
	Total:                                  4900.814 (MW) /  39206.510 (MB)

	Size of irrep 0 of <ia|bc> integrals:     27.916 (MW) /    223.329 (MB)
	Size of irrep 1 of <ia|bc> integrals:     18.147 (MW) /    145.178 (MB)
	Size of irrep 2 of <ia|bc> integrals:     22.958 (MW) /    183.666 (MB)
	Size of irrep 3 of <ia|bc> integrals:     22.958 (MW) /    183.666 (MB)
	Total:                                    91.980 (MW) /    735.839 (MB)

	Size of irrep 0 of tijab amplitudes:       0.632 (MW) /      5.055 (MB)
	Size of irrep 1 of tijab amplitudes:       0.263 (MW) /      2.100 (MB)
	Size of irrep 2 of tijab amplitudes:       0.419 (MW) /      3.355 (MB)
	Size of irrep 3 of tijab amplitudes:       0.419 (MW) /      3.355 (MB)
	Total:                                     1.733 (MW) /     13.865 (MB)

	Nuclear Rep. energy          =     49.61476775642837
	SCF energy                   =   -558.91987188693201
	One-electron energy          =    -97.39135205581537
	Two-electron energy          =     42.81285623647949
	Reference energy             =   -558.91987188692860

*** tstop() called on n411-011.vsc4.prov at Fri Jan 22 08:12:05 2021
Module time:
	user time   =     293.34 seconds =       4.89 minutes
	system time =     165.33 seconds =       2.76 minutes
	total time  =        759 seconds =      12.65 minutes
Total time:
	user time   =    1270.78 seconds =      21.18 minutes
	system time =     257.88 seconds =       4.30 minutes
	total time  =       1910 seconds =      31.83 minutes
            **************************
            *                        *
            *        CCENERGY        *
            *                        *
            **************************

    Nuclear Rep. energy (wfn)     =   49.614767756428371
    SCF energy          (wfn)     = -558.919871886932015
    Reference energy    (file100) = -558.919871886928604

    Input parameters:
    -----------------
    Wave function   =     CCSD_T
    Reference wfn   =     RHF
    Brueckner       =     No
    Memory (Mbytes) =     250000.0
    Maxiter         =     50
    R_Convergence   =     1.0e-07
    E_Convergence   =     1.0e-06
    Restart         =     Yes
    DIIS            =     Yes
    AO Basis        =     NONE
    ABCD            =     NEW
    Cache Level     =     2
    Cache Type      =     LOW
    Print Level     =     1
    Num. of threads =     48
    # Amps to Print =     10
    Print MP2 Amps? =     No
    Analyze T2 Amps =     No
    Print Pair Ener =     No
    Local CC        =     No
    SCS-MP2         =     False
    SCSN-MP2        =     False
    SCS-CCSD        =     False

MP2 correlation energy -0.5186453370710153
                Solving CC Amplitude Equations
                ------------------------------
  Iter             Energy              RMS        T1Diag      D1Diag    New D1Diag    D2Diag
  ----     ---------------------    ---------   ----------  ----------  ----------   --------
     0        -0.518645337071015    0.000e+00    0.000000    0.000000    0.000000    0.153059
     1        -0.511477493718383    5.939e-02    0.010774    0.026106    0.026106    0.152017
     2        -0.522921189076017    2.435e-02    0.009837    0.023374    0.023374    0.164567
     3        -0.526308339355272    9.595e-03    0.011740    0.028580    0.028580    0.171079
     4        -0.525878864370561    2.241e-03    0.011913    0.028986    0.028986    0.172145
     5        -0.525900302873330    9.273e-04    0.012025    0.029459    0.029459    0.172729
     6        -0.525922395700268    2.680e-04    0.012041    0.029545    0.029545    0.172800
     7        -0.525916003522158    1.170e-04    0.012038    0.029569    0.029569    0.172793
     8        -0.525914183171314    3.916e-05    0.012037    0.029578    0.029578    0.172794
     9        -0.525915663210022    1.257e-05    0.012037    0.029578    0.029578    0.172796
    10        -0.525914971633168    4.581e-06    0.012037    0.029577    0.029577    0.172796
    11        -0.525915018313115    1.422e-06    0.012037    0.029577    0.029577    0.172796
    12        -0.525914945090792    5.420e-07    0.012037    0.029577    0.029577    0.172796
    13        -0.525914931937304    1.829e-07    0.012037    0.029577    0.029577    0.172796
    14        -0.525914932143784    6.665e-08    0.012037    0.029577    0.029577    0.172796

    Iterations converged.


    Largest TIA Amplitudes:
              2   0        -0.0166725605
              5 287        -0.0144398442
              3 196        -0.0144398442
              2   2        -0.0140182103
              3 193         0.0080323796
              5 284         0.0080323796
              5 285         0.0077040860
              3 194         0.0077040860
              2  19        -0.0073653911
              2  12         0.0069015690

    Largest TIjAb Amplitudes:
      2   2   0   0        -0.0448899302
      2   2   0   2        -0.0407205770
      2   2   2   0        -0.0407205770
      2   2   2   2        -0.0374597928
      2   2   0   7        -0.0233227807
      2   2   7   0        -0.0233227807
      6   6  10  10        -0.0229789253
      6   6 131 131        -0.0229789253
      4   4 131 131        -0.0229789253
      4   4  10  10        -0.0229789253

    SCF energy       (wfn)                    = -558.919871886932015
    Reference energy (file100)                = -558.919871886928604

    Opposite-spin MP2 correlation energy      =   -0.397497245336868
    Same-spin MP2 correlation energy          =   -0.121148091734148
    Singles MP2 correlation energy            =   -0.000000000000000
    MP2 correlation energy                    =   -0.518645337071015
      * MP2 total energy                      = -559.438517223999611

    Opposite-spin CCSD correlation energy     =   -0.416040447725518
    Same-spin CCSD correlation energy         =   -0.109874484418278
    Singles CCSD correlation energy           =    0.000000000000000
    CCSD correlation energy                   =   -0.525914932143784
      * CCSD total energy                     = -559.445786819072396

            **************************
            *                        *
            *        CCTRIPLES       *
            *                        *
            **************************


    Wave function   =    CCSD_T
    Reference wfn   =      RHF

    Nuclear Rep. energy (wfn)                =   49.614767756428371
    SCF energy          (wfn)                = -558.919871886932015
    Reference energy    (file100)            = -558.919871886928604
    CCSD energy         (file100)            =   -0.525914932143784
    Total CCSD energy   (file100)            = -559.445786819072396

    Number of ijk index combinations:               84
    Memory available in words        :     31250000000
    ~Words needed per explicit thread:         8586756
    Number of threads for explicit ijk threading:   48

    (T) energy                                =   -0.021799633430337
      * CCSD(T) total energy                  = -559.467586452502701


    Psi4 stopped on: Friday, 22 January 2021 08:21AM
    Psi4 wall time for execution: 0:41:34.01

*** Psi4 exiting successfully. Buy a developer a beer!
