
    -----------------------------------------------------------------------
          Psi4: An Open-Source Ab Initio Electronic Structure Package
                               Psi4 1.4a3.dev88 

                         Git: Rev {master} 262e345 


    D. G. A. Smith, L. A. Burns, A. C. Simmonett, R. M. Parrish,
    M. C. Schieber, R. Galvelis, P. Kraus, H. Kruse, R. Di Remigio,
    A. Alenaizan, A. M. James, S. Lehtola, J. P. Misiewicz, M. Scheurer,
    R. A. Shaw, J. B. Schriber, Y. Xie, Z. L. Glick, D. A. Sirianni,
    J. S. O'Brien, J. M. Waldrop, A. Kumar, E. G. Hohenstein,
    B. P. Pritchard, B. R. Brooks, H. F. Schaefer III, A. Yu. Sokolov,
    K. Patkowski, A. E. DePrince III, U. Bozkaya, R. A. King,
    F. A. Evangelista, J. M. Turney, T. D. Crawford, C. D. Sherrill,
    J. Chem. Phys. 152(18) 184108 (2020). https://doi.org/10.1063/5.0006002

                            Additional Code Authors
    E. T. Seidl, C. L. Janssen, E. F. Valeev, M. L. Leininger,
    J. F. Gonthier, R. M. Richard, H. R. McAlexander, M. Saitow, X. Wang,
    P. Verma, and M. H. Lechner

             Previous Authors, Complete List of Code Contributors,
                       and Citations for Specific Modules
    https://github.com/psi4/psi4/blob/master/codemeta.json
    https://github.com/psi4/psi4/graphs/contributors
    http://psicode.org/psi4manual/master/introduction.html#citing-psifour

    -----------------------------------------------------------------------


    Psi4 started on: Tuesday, 26 January 2021 06:11PM

    Process ID: 404080
    Host:       n412-040.vsc4.prov
    PSIDATADIR: /home/fs71337/gallo4/psi4/eri-6/psi4/build/stage/share/psi4
    Memory:     500.0 MiB
    Threads:    48
    
  ==> Input File <==

--------------------------------------------------------------------------
# Any line starting with the # character is a comment line
memory 250000 mb
molecule molecule{
0 1
Cl         0.0000000000        0.0000000000       -0.5693634997
F          0.0000000000        0.0000000000        1.0624916292
}

set {
  reference rhf
  basis aug-cc-pV(t+d)Z
  scf_type OUT_OF_CORE
  freeze_core true
}

energy('ccsd(t)')
--------------------------------------------------------------------------

  Memory set to 232.831 GiB by Python driver.

Scratch directory: /binfl/lv71337/airmler/temp/

*** tstart() called on n412-040.vsc4.prov
*** at Tue Jan 26 18:11:45 2021

   => Loading Basis Set <=

    Name: AUG-CC-PV(T+D)Z
    Role: ORBITAL
    Keyword: BASIS
    atoms 1 entry CL         line  1028 file /home/fs71337/gallo4/psi4/eri-6/psi4/build/stage/share/psi4/basis/aug-cc-pv_tpd_z.gbs 
    atoms 2 entry F          line   405 file /home/fs71337/gallo4/psi4/eri-6/psi4/build/stage/share/psi4/basis/aug-cc-pv_tpd_z.gbs 


         ---------------------------------------------------------
                                   SCF
               by Justin Turney, Rob Parrish, Andy Simmonett
                          and Daniel G. A. Smith
                              RHF Reference
                       48 Threads, 238418 MiB Core
         ---------------------------------------------------------

  ==> Geometry <==

    Molecular point group: c2v
    Full point group: C_inf_v

    Geometry (in Angstrom), charge = 0, multiplicity = 1:

       Center              X                  Y                   Z               Mass       
    ------------   -----------------  -----------------  -----------------  -----------------
         CL           0.000000000000     0.000000000000    -0.574471337420    34.968852682000
         F            0.000000000000     0.000000000000     1.057383791480    18.998403162730

  Running in c2v symmetry.

  Rotational constants: A = ************  B =      0.51424  C =      0.51424 [cm^-1]
  Rotational constants: A = ************  B =  15416.50223  C =  15416.50223 [MHz]
  Nuclear repulsion =   49.614767756428371

  Charge       = 0
  Multiplicity = 1
  Electrons    = 26
  Nalpha       = 13
  Nbeta        = 13

  ==> Algorithm <==

  SCF Algorithm Type is OUT_OF_CORE.
  DIIS enabled.
  MOM disabled.
  Fractional occupation disabled.
  Guess Type is SAD.
  Energy threshold   = 1.00e-08
  Density threshold  = 1.00e-08
  Integral threshold = 1.00e-12

  ==> Primary Basis <==

  Basis Set: AUG-CC-PV(T+D)Z
    Blend: AUG-CC-PV(T+D)Z
    Number of shells: 31
    Number of basis function: 101
    Number of Cartesian functions: 120
    Spherical Harmonics?: true
    Max angular momentum: 3

  ==> Integral Setup <==

  ==> DiskJK: Disk-Based J/K Matrices <==

    J tasked:                  Yes
    K tasked:                  Yes
    wK tasked:                  No
    Memory [MiB]:           178813
    Schwarz Cutoff:          1E-12

  Minimum eigenvalue in the overlap matrix is 1.0041172455E-03.
  Reciprocal condition number of the overlap matrix is 2.2076142354E-04.
    Using symmetric orthogonalization.

  ==> Pre-Iterations <==

  SCF Guess: Superposition of Atomic Densities via on-the-fly atomic UHF (no occupation information).


 WARNING: Atomic UHF is not converging! Try casting from a smaller basis or call Rob at CCMST.

 WARNING: Atomic UHF is not converging! Try casting from a smaller basis or call Rob at CCMST.
   -------------------------
    Irrep   Nso     Nmo    
   -------------------------
     A1        42      42 
     A2        11      11 
     B1        24      24 
     B2        24      24 
   -------------------------
    Total     101     101
   -------------------------

  ==> Iterations <==

                        Total Energy        Delta E     RMS |[F,P]|

   @RHF iter SAD:  -437.71388239958742   -4.37714e+02   0.00000e+00 
    Occupation by irrep:
             A1    A2    B1    B2 
    DOCC [     7,    0,    3,    3 ]

   @RHF iter   1:  -550.32388168126067   -1.12610e+02   1.20342e-01 DIIS
    Occupation by irrep:
             A1    A2    B1    B2 
    DOCC [     8,    0,    3,    2 ]

   @RHF iter   2:  -538.66778916366354    1.16561e+01   5.80209e-02 DIIS
    Occupation by irrep:
             A1    A2    B1    B2 
    DOCC [     7,    0,    3,    3 ]

   @RHF iter   3:  -547.44757338371051   -8.77978e+00   9.77129e-02 DIIS
   @RHF iter   4:  -553.30482562976420   -5.85725e+00   7.60742e-02 DIIS
   @RHF iter   5:  -555.18952319358800   -1.88470e+00   6.11956e-02 DIIS
   @RHF iter   6:  -557.68353495700990   -2.49401e+00   3.25423e-02 DIIS
   @RHF iter   7:  -558.71260956255890   -1.02907e+00   1.20451e-02 DIIS
   @RHF iter   8:  -558.90082108669435   -1.88212e-01   1.21724e-03 DIIS
   @RHF iter   9:  -558.90456706221585   -3.74598e-03   5.18000e-04 DIIS
   @RHF iter  10:  -558.90555527893434   -9.88217e-04   1.93646e-04 DIIS
   @RHF iter  11:  -558.90573507154750   -1.79793e-04   3.19815e-05 DIIS
   @RHF iter  12:  -558.90573836101385   -3.28947e-06   4.57882e-06 DIIS
   @RHF iter  13:  -558.90573843302388   -7.20100e-08   1.07709e-06 DIIS
   @RHF iter  14:  -558.90573843600203   -2.97814e-09   4.02317e-07 DIIS
   @RHF iter  15:  -558.90573843622167   -2.19643e-10   7.59194e-08 DIIS
   @RHF iter  16:  -558.90573843623395   -1.22782e-11   9.69112e-09 DIIS
  Energy and wave function converged.


  ==> Post-Iterations <==

    Orbital Energies [Eh]
    ---------------------

    Doubly Occupied:                                                      

       1A1  -104.940028     2A1   -26.360420     3A1   -10.656602  
       4A1    -8.124130     1B2    -8.119937     1B1    -8.119937  
       5A1    -1.640606     6A1    -1.106462     2B2    -0.726099  
       2B1    -0.726099     7A1    -0.700900     3B2    -0.494123  
       3B1    -0.494123  

    Virtual:                                                              

       8A1     0.036272     9A1     0.102659     4B2     0.108800  
       4B1     0.108800    10A1     0.133617    11A1     0.217863  
       5B2     0.237234     5B1     0.237234    12A1     0.319307  
       1A2     0.319307    13A1     0.385093     6B2     0.400622  
       6B1     0.400622    14A1     0.475192     7B1     0.608467  
       7B2     0.608467    15A1     0.652396     2A2     0.825864  
      16A1     0.825864     8B1     0.827109     8B2     0.827109  
      17A1     0.861118    18A1     0.895504     3A2     0.895504  
      19A1     0.997764     9B2     1.086615     9B1     1.086615  
      10B1     1.162314    10B2     1.162314    20A1     1.213510  
      11B2     1.232511    11B1     1.232511    21A1     1.301499  
       4A2     1.301499    22A1     1.326929    12B2     1.613824  
      12B1     1.613824    23A1     1.687185     5A2     2.262339  
      24A1     2.262339    25A1     2.325348    26A1     2.354023  
      13B2     2.367897    13B1     2.367897    14B2     2.575783  
      14B1     2.575783    15B2     2.785181    15B1     2.785181  
      27A1     2.787830     6A2     2.787830    28A1     2.851823  
      16B2     2.908627    16B1     2.908627    17B1     3.024950  
      17B2     3.024950     7A2     3.041266    29A1     3.041266  
       8A2     3.160328    30A1     3.160328    31A1     3.194329  
      18B2     3.237039    18B1     3.237039    32A1     3.725712  
      19B2     3.826968    19B1     3.826968    33A1     4.005962  
      20B2     5.302630    20B1     5.302630    34A1     5.593430  
      35A1     6.243401    36A1     8.718484     9A2     8.718484  
      21B2     8.757042    21B1     8.757042    22B2     8.797634  
      22B1     8.797634    37A1     8.802187    10A2     8.868751  
      38A1     8.868751    23B1     9.162021    23B2     9.162021  
      39A1     9.199568    11A2     9.288990    40A1     9.288990  
      24B1     9.379877    24B2     9.379877    41A1     9.786452  
      42A1    14.208377  

    Final Occupation by Irrep:
             A1    A2    B1    B2 
    DOCC [     7,    0,    3,    3 ]

  @RHF Final Energy:  -558.90573843623395

   => Energetics <=

    Nuclear Repulsion Energy =             49.6147677564283711
    One-Electron Energy =                -872.6220795296774213
    Two-Electron Energy =                 264.1015733370151679
    Total Energy =                       -558.9057384362338325

Computation Completed


Properties will be evaluated at   0.000000,   0.000000,   0.000000 [a0]

Properties computed using the SCF density matrix

  Nuclear Dipole Moment: [e a0]
     X:     0.0000      Y:     0.0000      Z:    -0.4716

  Electronic Dipole Moment: [e a0]
     X:     0.0000      Y:     0.0000      Z:     0.0292

  Dipole Moment: [e a0]
     X:     0.0000      Y:     0.0000      Z:    -0.4424     Total:     0.4424

  Dipole Moment: [D]
     X:     0.0000      Y:     0.0000      Z:    -1.1245     Total:     1.1245


*** tstop() called on n412-040.vsc4.prov at Tue Jan 26 18:11:54 2021
Module time:
	user time   =      40.71 seconds =       0.68 minutes
	system time =       2.95 seconds =       0.05 minutes
	total time  =          9 seconds =       0.15 minutes
Total time:
	user time   =      40.71 seconds =       0.68 minutes
	system time =       2.95 seconds =       0.05 minutes
	total time  =          9 seconds =       0.15 minutes

*** tstart() called on n412-040.vsc4.prov
*** at Tue Jan 26 18:11:54 2021


	Wfn Parameters:
	--------------------
	Wavefunction         = CCSD_T
	Number of irreps     = 4
	Number of MOs        = 101
	Number of active MOs = 95
	AO-Basis             = NONE
	Semicanonical        = false
	Reference            = RHF
	Print Level          = 1

	IRREP	# MOs	# FZDC	# DOCC	# SOCC	# VIRT	# FZVR
	-----	-----	------	------	------	------	------
	 A1	   42	    4	    3	    0	    35	    0
	 A2	   11	    0	    0	    0	    11	    0
	 B1	   24	    1	    2	    0	    21	    0
	 B2	   24	    1	    2	    0	    21	    0
	Transforming integrals...
	IWL integrals will be deleted.
	(OO|OO)...
	Presorting SO-basis two-electron integrals.
	Sorting File: SO Ints (nn|nn) nbuckets = 1
	Constructing frozen core operators
	Starting first half-transformation.
	Sorting half-transformed integrals.
	First half integral transformation complete.
	Starting second half-transformation.
	Two-electron integral transformation complete.
	(OO|OV)...
	Starting second half-transformation.
	Two-electron integral transformation complete.
	(OO|VV)...
	Starting second half-transformation.
	Two-electron integral transformation complete.
	(OV|OO)...
	Starting first half-transformation.
	Sorting half-transformed integrals.
	First half integral transformation complete.
	Starting second half-transformation.
	Two-electron integral transformation complete.
	(OV|OV)...
	Starting second half-transformation.
	Two-electron integral transformation complete.
	(OV|VV)...
	Starting second half-transformation.
	Two-electron integral transformation complete.
	(VV|OO)...
	Starting first half-transformation.
	Sorting half-transformed integrals.
	First half integral transformation complete.
	Starting second half-transformation.
	Two-electron integral transformation complete.
	(VV|OV)...
	Starting second half-transformation.
	Two-electron integral transformation complete.
	(VV|VV)...
	Starting second half-transformation.
	Two-electron integral transformation complete.
	Frozen core energy     =   -553.95106364449043

	Size of irrep 0 of <ab|cd> integrals:      4.964 (MW) /     39.712 (MB)
	Size of irrep 1 of <ab|cd> integrals:      2.729 (MW) /     21.833 (MB)
	Size of irrep 2 of <ab|cd> integrals:      3.733 (MW) /     29.861 (MB)
	Size of irrep 3 of <ab|cd> integrals:      3.733 (MW) /     29.861 (MB)
	Total:                                    15.158 (MW) /    121.267 (MB)

	Size of irrep 0 of <ia|bc> integrals:      0.421 (MW) /      3.369 (MB)
	Size of irrep 1 of <ia|bc> integrals:      0.193 (MW) /      1.546 (MB)
	Size of irrep 2 of <ia|bc> integrals:      0.299 (MW) /      2.396 (MB)
	Size of irrep 3 of <ia|bc> integrals:      0.299 (MW) /      2.396 (MB)
	Total:                                     1.213 (MW) /      9.706 (MB)

	Size of irrep 0 of tijab amplitudes:       0.038 (MW) /      0.303 (MB)
	Size of irrep 1 of tijab amplitudes:       0.013 (MW) /      0.106 (MB)
	Size of irrep 2 of tijab amplitudes:       0.023 (MW) /      0.185 (MB)
	Size of irrep 3 of tijab amplitudes:       0.023 (MW) /      0.185 (MB)
	Total:                                     0.097 (MW) /      0.780 (MB)

	Nuclear Rep. energy          =     49.61476775642837
	SCF energy                   =   -558.90573843623395
	One-electron energy          =    -97.36206145353201
	Two-electron energy          =     42.79261890536054
	Reference energy             =   -558.90573843623349

*** tstop() called on n412-040.vsc4.prov at Tue Jan 26 18:12:00 2021
Module time:
	user time   =       1.31 seconds =       0.02 minutes
	system time =       0.78 seconds =       0.01 minutes
	total time  =          6 seconds =       0.10 minutes
Total time:
	user time   =      42.02 seconds =       0.70 minutes
	system time =       3.73 seconds =       0.06 minutes
	total time  =         15 seconds =       0.25 minutes
            **************************
            *                        *
            *        CCENERGY        *
            *                        *
            **************************

    Nuclear Rep. energy (wfn)     =   49.614767756428371
    SCF energy          (wfn)     = -558.905738436233946
    Reference energy    (file100) = -558.905738436233491

    Input parameters:
    -----------------
    Wave function   =     CCSD_T
    Reference wfn   =     RHF
    Brueckner       =     No
    Memory (Mbytes) =     250000.0
    Maxiter         =     50
    R_Convergence   =     1.0e-07
    E_Convergence   =     1.0e-06
    Restart         =     Yes
    DIIS            =     Yes
    AO Basis        =     NONE
    ABCD            =     NEW
    Cache Level     =     2
    Cache Type      =     LOW
    Print Level     =     1
    Num. of threads =     48
    # Amps to Print =     10
    Print MP2 Amps? =     No
    Analyze T2 Amps =     No
    Print Pair Ener =     No
    Local CC        =     No
    SCS-MP2         =     False
    SCSN-MP2        =     False
    SCS-CCSD        =     False

MP2 correlation energy -0.4582955200896454
                Solving CC Amplitude Equations
                ------------------------------
  Iter             Energy              RMS        T1Diag      D1Diag    New D1Diag    D2Diag
  ----     ---------------------    ---------   ----------  ----------  ----------   --------
     0        -0.458295520089645    0.000e+00    0.000000    0.000000    0.000000    0.151374
     1        -0.461205487043009    6.136e-02    0.011073    0.026725    0.026725    0.154757
     2        -0.472497547939356    2.409e-02    0.010232    0.024294    0.024294    0.167726
     3        -0.475677708593462    9.807e-03    0.012196    0.029622    0.029622    0.174208
     4        -0.475334390664696    2.234e-03    0.012394    0.030143    0.030143    0.175431
     5        -0.475388923804924    9.114e-04    0.012501    0.030611    0.030611    0.176029
     6        -0.475399418334397    2.781e-04    0.012514    0.030694    0.030694    0.176093
     7        -0.475391887907632    1.153e-04    0.012510    0.030719    0.030719    0.176086
     8        -0.475391889816373    3.636e-05    0.012509    0.030725    0.030725    0.176090
     9        -0.475393044157345    1.183e-05    0.012509    0.030724    0.030724    0.176092
    10        -0.475392295697976    4.353e-06    0.012509    0.030724    0.030724    0.176091
    11        -0.475392410197931    1.395e-06    0.012509    0.030723    0.030723    0.176091
    12        -0.475392333648851    5.164e-07    0.012509    0.030723    0.030723    0.176091
    13        -0.475392329892807    1.870e-07    0.012509    0.030723    0.030723    0.176091
    14        -0.475392331783061    6.711e-08    0.012509    0.030723    0.030723    0.176091

    Iterations converged.


    Largest TIA Amplitudes:
              2   0        -0.0195657911
              5  68        -0.0142004908
              3  47        -0.0142004908
              2   2         0.0134453274
              3  48        -0.0127597203
              5  69        -0.0127597192
              2  11         0.0114109702
              1   6         0.0074672947
              3  50         0.0070009176
              5  71         0.0070009171

    Largest TIjAb Amplitudes:
      2   2   0   0        -0.0569144497
      2   2   0   2         0.0446189791
      2   2   2   0         0.0446189791
      2   2   2   2        -0.0359905719
      6   6   0   0        -0.0260042727
      4   4   0   0        -0.0260042717
      6   6   8   8        -0.0223452959
      6   6  36  36        -0.0223452958
      4   4  36  36        -0.0223452952
      4   4   8   8        -0.0223452951

    SCF energy       (wfn)                    = -558.905738436233946
    Reference energy (file100)                = -558.905738436233491

    Opposite-spin MP2 correlation energy      =   -0.343516735789745
    Same-spin MP2 correlation energy          =   -0.114778784299900
    Singles MP2 correlation energy            =   -0.000000000000000
    MP2 correlation energy                    =   -0.458295520089645
      * MP2 total energy                      = -559.364033956323169

    Opposite-spin CCSD correlation energy     =   -0.371100900809051
    Same-spin CCSD correlation energy         =   -0.104291430974011
    Singles CCSD correlation energy           =    0.000000000000000
    CCSD correlation energy                   =   -0.475392331783061
      * CCSD total energy                     = -559.381130768016533

            **************************
            *                        *
            *        CCTRIPLES       *
            *                        *
            **************************


    Wave function   =    CCSD_T
    Reference wfn   =      RHF

    Nuclear Rep. energy (wfn)                =   49.614767756428371
    SCF energy          (wfn)                = -558.905738436233946
    Reference energy    (file100)            = -558.905738436233491
    CCSD energy         (file100)            =   -0.475392331783061
    Total CCSD energy   (file100)            = -559.381130768016533

    Number of ijk index combinations:               84
    Memory available in words        :     31250000000
    ~Words needed per explicit thread:          171500
    Number of threads for explicit ijk threading:   48

    (T) energy                                =   -0.018668168966309
      * CCSD(T) total energy                  = -559.399798936982847


    Psi4 stopped on: Tuesday, 26 January 2021 06:12PM
    Psi4 wall time for execution: 0:00:22.10

*** Psi4 exiting successfully. Buy a developer a beer!
