
    -----------------------------------------------------------------------
          Psi4: An Open-Source Ab Initio Electronic Structure Package
                               Psi4 1.2a1.dev939 

                         Git: Rev {HEAD} fa1ec19 


    R. M. Parrish, L. A. Burns, D. G. A. Smith, A. C. Simmonett,
    A. E. DePrince III, E. G. Hohenstein, U. Bozkaya, A. Yu. Sokolov,
    R. Di Remigio, R. M. Richard, J. F. Gonthier, A. M. James,
    H. R. McAlexander, A. Kumar, M. Saitow, X. Wang, B. P. Pritchard,
    P. Verma, H. F. Schaefer III, K. Patkowski, R. A. King, E. F. Valeev,
    F. A. Evangelista, J. M. Turney, T. D. Crawford, and C. D. Sherrill,
    J. Chem. Theory Comput. 13(7) pp 3185--3197 (2017).
    (doi: 10.1021/acs.jctc.7b00174)

    -----------------------------------------------------------------------


    Psi4 started on: Tuesday, 30 April 2019 10:20AM

    Process ID:  15565
    PSIDATADIR: /home/grueneis/src/psi4/objdir/stage/usr/local/psi4/share/psi4
    Memory:     500.0 MiB
    Threads:    1
    
  ==> Input File <==

--------------------------------------------------------------------------
# Any line starting with the # character is a comment line

memory 32000 mb

molecule molecule {
0 1
S          0.0000000000        0.0000000000        1.5587775077
C          0.0000000000        0.0000000000        0.0000000000
S          0.0000000000        0.0000000000       -1.5587775077
}

set {
  reference rhf
  basis aug-cc-pv(Q+d)z
  scf_type OUT_OF_CORE
  freeze_core true
}

energy('ccsd')
--------------------------------------------------------------------------

  Memory set to  29.802 GiB by Python driver.

*** tstart() called on cqc01
*** at Tue Apr 30 10:20:52 2019

   => Loading Basis Set <=

    Name: AUG-CC-PV(Q+D)Z
    Role: ORBITAL
    Keyword: BASIS
    atoms 1, 3 entry S          line  1148 file /home/grueneis/src/psi4/objdir/stage/usr/local/psi4/share/psi4/basis/aug-cc-pv_qpd_z.gbs 
    atoms 2    entry C          line   319 file /home/grueneis/src/psi4/objdir/stage/usr/local/psi4/share/psi4/basis/aug-cc-pv_qpd_z.gbs 


         ---------------------------------------------------------
                                   SCF
            by Justin Turney, Rob Parrish, Andy Simmonett
                             and Daniel Smith
                              RHF Reference
                        1 Threads,  30517 MiB Core
         ---------------------------------------------------------

  ==> Geometry <==

    Molecular point group: d2h
    Full point group: D_inf_h

    Geometry (in Angstrom), charge = 0, multiplicity = 1:

       Center              X                  Y                   Z               Mass       
    ------------   -----------------  -----------------  -----------------  -----------------
           S          0.000000000000     0.000000000000     1.558777507700    31.972070999000
           C          0.000000000000     0.000000000000     0.000000000000    12.000000000000
           S          0.000000000000     0.000000000000    -1.558777507700    31.972070999000

  Running in d2h symmetry.

  Rotational constants: A = ************  B =      0.10850  C =      0.10850 [cm^-1]
  Rotational constants: A = ************  B =   3252.73116  C =   3252.73116 [MHz]
  Nuclear repulsion =  108.634302145313157

  Charge       = 0
  Multiplicity = 1
  Electrons    = 38
  Nalpha       = 19
  Nbeta        = 19

  ==> Algorithm <==

  SCF Algorithm Type is OUT_OF_CORE.
  DIIS enabled.
  MOM disabled.
  Fractional occupation disabled.
  Guess Type is SAD.
  Energy threshold   = 1.00e-08
  Density threshold  = 1.00e-08
  Integral threshold = 0.00e+00

  ==> Primary Basis <==

  Basis Set: AUG-CC-PV(Q+D)Z
    Blend: AUG-CC-PV(Q+D)Z
    Number of shells: 66
    Number of basis function: 258
    Number of Cartesian functions: 335
    Spherical Harmonics?: true
    Max angular momentum: 4

  ==> Pre-Iterations <==

   -------------------------------------------------------
    Irrep   Nso     Nmo     Nalpha   Nbeta   Ndocc  Nsocc
   -------------------------------------------------------
     Ag        55      55       0       0       0       0
     B1g       20      20       0       0       0       0
     B2g       29      29       0       0       0       0
     B3g       29      29       0       0       0       0
     Au        15      15       0       0       0       0
     B1u       46      46       0       0       0       0
     B2u       32      32       0       0       0       0
     B3u       32      32       0       0       0       0
   -------------------------------------------------------
    Total     258     258      19      19      19       0
   -------------------------------------------------------

  ==> Integral Setup <==

  ==> DiskJK: Disk-Based J/K Matrices <==

    J tasked:                  Yes
    K tasked:                  Yes
    wK tasked:                  No
    Memory (MB):             22888
    Schwarz Cutoff:          1E-12

  Minimum eigenvalue in the overlap matrix is 2.0109134906E-05.
  Using Symmetric Orthogonalization.

  SCF Guess: Superposition of Atomic Densities via on-the-fly atomic UHF.

  ==> Iterations <==

                        Total Energy        Delta E     RMS |[F,P]|

   @RHF iter   0:  -833.58026528555911   -8.33580e+02   2.91828e-02 
   @RHF iter   1:  -832.89254069031995    6.87725e-01   4.04850e-03 
   @RHF iter   2:  -832.92167355648451   -2.91329e-02   3.48240e-03 DIIS
   @RHF iter   3:  -832.97720371600326   -5.55302e-02   4.93052e-04 DIIS
   @RHF iter   4:  -832.97984959719906   -2.64588e-03   1.63035e-04 DIIS
   @RHF iter   5:  -832.98029970886762   -4.50112e-04   5.00697e-05 DIIS
   @RHF iter   6:  -832.98035561269523   -5.59038e-05   1.41130e-05 DIIS
   @RHF iter   7:  -832.98036001770640   -4.40501e-06   4.77136e-06 DIIS
   @RHF iter   8:  -832.98036063961717   -6.21911e-07   1.30933e-06 DIIS
   @RHF iter   9:  -832.98036068143745   -4.18203e-08   1.13921e-07 DIIS
   @RHF iter  10:  -832.98036068159593   -1.58479e-10   1.83077e-08 DIIS
   @RHF iter  11:  -832.98036068159752   -1.59162e-12   2.97719e-09 DIIS

  ==> Post-Iterations <==

    Orbital Energies (a.u.)
    -----------------------

    Doubly Occupied:                                                      

       1B1u  -91.990256     1Ag   -91.990256     2Ag   -11.401734  
       2B1u   -8.994083     3Ag    -8.994061     3B1u   -6.675364  
       4Ag    -6.675352     1B2g   -6.673560     1B3g   -6.673560  
       1B3u   -6.673560     1B2u   -6.673560     5Ag    -1.140539  
       4B1u   -1.018482     6Ag    -0.679987     5B1u   -0.582765  
       2B3u   -0.524282     2B2u   -0.524282     2B2g   -0.372695  
       2B3g   -0.372695  

    Virtual:                                                              

       3B2u    0.038124     3B3u    0.038124     6B1u    0.046903  
       7Ag     0.048857     8Ag     0.076260     4B2u    0.086606  
       4B3u    0.086606     3B2g    0.088091     3B3g    0.088091  
       7B1u    0.116659     5B3u    0.122987     5B2u    0.122987  
       9Ag     0.158505     8B1u    0.172416    10Ag     0.179076  
       1B1g    0.179076    11Ag     0.213457     9B1u    0.236312  
       1Au     0.236312    10B1u    0.237346     4B2g    0.241802  
       4B3g    0.241802    12Ag     0.266024     6B3u    0.302053  
       6B2u    0.302053    13Ag     0.335310     2B1g    0.335310  
      14Ag     0.343418     5B3g    0.376095     5B2g    0.376095  
      11B1u    0.385413     7B3u    0.396871     7B2u    0.396871  
      12B1u    0.459712    15Ag     0.479832     6B2g    0.494153  
       6B3g    0.494153    16Ag     0.507959     3B1g    0.507959  
       8B2u    0.526894     8B3u    0.526894    13B1u    0.537077  
       2Au     0.537077    17Ag     0.538609     9B3u    0.545869  
       9B2u    0.545869    14B1u    0.582753     7B3g    0.589367  
       7B2g    0.589367     3Au     0.618670    15B1u    0.618670  
      10B3u    0.632545    10B2u    0.632545     4B1g    0.701981  
      18Ag     0.701981     8B2g    0.705155     8B3g    0.705155  
      16B1u    0.727999    19Ag     0.736832     9B2g    0.754388  
       9B3g    0.754388    20Ag     0.845335    11B3u    0.902231  
      11B2u    0.902231    12B3u    0.935259    12B2u    0.935259  
      17B1u    0.964999    21Ag     0.992902     5B1g    1.015084  
      22Ag     1.015084    18B1u    1.088207    13B2u    1.126715  
      13B3u    1.126715    19B1u    1.154424     4Au     1.180409  
      20B1u    1.180409    23Ag     1.245391    10B2g    1.252396  
      10B3g    1.252396     6B1g    1.313765    24Ag     1.313765  
       5Au     1.328438    21B1u    1.328438    11B2g    1.396856  
      11B3g    1.396856    25Ag     1.453879     7B1g    1.453879  
      22B1u    1.480227     6Au     1.480227    14B3u    1.482917  
      14B2u    1.482917    12B2g    1.500155    12B3g    1.500155  
      15B3u    1.504887    15B2u    1.504887    26Ag     1.505296  
      23B1u    1.526489    13B2g    1.549765    13B3g    1.549765  
      16B3u    1.640152    16B2u    1.640152     8B1g    1.645193  
      27Ag     1.645193    14B2g    1.668431    14B3g    1.668431  
      17B3u    1.671851    17B2u    1.671851     7Au     1.696702  
      24B1u    1.696702    28Ag     1.702892    25B1u    1.758775  
      18B3u    1.796220    18B2u    1.796220    15B2g    1.900004  
      15B3g    1.900004    29Ag     1.915157     9B1g    1.983991  
      30Ag     1.983991    26B1u    2.014158     8Au     2.065273  
      27B1u    2.065273    16B2g    2.142300    16B3g    2.142300  
      31Ag     2.175309    19B2u    2.177608    19B3u    2.177608  
      28B1u    2.178732    32Ag     2.205602    10B1g    2.205602  
      11B1g    2.324089    33Ag     2.324089    20B2u    2.343524  
      20B3u    2.343524    21B3u    2.480737    21B2u    2.480737  
      34Ag     2.588675    29B1u    2.720815    17B2g    2.724784  
      17B3g    2.724784    18B2g    2.848248    18B3g    2.848248  
      30B1u    2.902082     9Au     2.927910    31B1u    2.927910  
      12B1g    2.982174    35Ag     2.982174    36Ag     3.034834  
      10Au     3.170455    32B1u    3.170455    22B2u    3.204432  
      22B3u    3.204432    37Ag     3.220783    38Ag     3.349982  
      13B1g    3.349982    19B3g    3.403102    19B2g    3.403102  
      39Ag     3.492901    20B3g    3.507725    20B2g    3.507725  
      23B2u    3.581639    23B3u    3.581639    24B2u    3.684756  
      24B3u    3.684756    21B2g    3.692265    21B3g    3.692265  
      33B1u    3.784940    40Ag     3.839910    14B1g    3.839910  
      34B1u    3.847295    11Au     3.847295    15B1g    3.891349  
      41Ag     3.891349    22B2g    3.937799    22B3g    3.937799  
      25B3u    4.002937    25B2u    4.002937    26B3u    4.013948  
      26B2u    4.013948    12Au     4.040514    35B1u    4.040514  
      36B1u    4.091246    42Ag     4.167932    13Au     4.304079  
      37B1u    4.304079    23B3g    4.344615    23B2g    4.344615  
      38B1u    4.399821    43Ag     4.560581    16B1g    4.560581  
      44Ag     4.652087    24B3g    4.668275    24B2g    4.668275  
      39B1u    4.712385    27B2u    5.003406    27B3u    5.003406  
      45Ag     5.173708    46Ag     5.923580    17B1g    5.923580  
      28B2u    6.066816    28B3u    6.066816    25B3g    6.213757  
      25B2g    6.213757    26B2g    6.361700    26B3g    6.361700  
      29B2u    6.477580    29B3u    6.477580    30B2u    6.500939  
      30B3u    6.500939    47Ag     6.515437    18B1g    6.515437  
      48Ag     6.680326    19B1g    6.680326    40B1u    6.690099  
      49Ag     6.711357    41B1u    6.795110    14Au     6.795110  
      27B3g    6.845218    27B2g    6.845218    50Ag     7.163601  
      31B2u    7.424479    31B3u    7.424479    28B3g    7.990828  
      28B2g    7.990828    42B1u    8.681586    51Ag     9.119911  
      43B1u    9.136112    15Au     9.320736    44B1u    9.320736  
      20B1g    9.363535    52Ag     9.363535    29B3g    9.644804  
      29B2g    9.644804    32B2u    9.749032    32B3u    9.749032  
      45B1u    9.969481    53Ag    10.742933    46B1u   20.598341  
      54Ag    22.034316    55Ag    23.815090  

    Final Occupation by Irrep:
             Ag   B1g   B2g   B3g    Au   B1u   B2u   B3u 
    DOCC [     6,    0,    2,    2,    0,    5,    2,    2 ]

  Energy converged.

  @RHF Final Energy:  -832.98036068159752

   => Energetics <=

    Nuclear Repulsion Energy =            108.6343021453131570
    One-Electron Energy =               -1365.9671809214644327
    Two-Electron Energy =                 424.3525180945537727
    Total Energy =                       -832.9803606815976309



Properties will be evaluated at   0.000000,   0.000000,   0.000000 Bohr

Properties computed using the SCF density matrix

  Nuclear Dipole Moment: (a.u.)
     X:     0.0000      Y:     0.0000      Z:     0.0000

  Electronic Dipole Moment: (a.u.)
     X:     0.0000      Y:     0.0000      Z:     0.0000

  Dipole Moment: (a.u.)
     X:     0.0000      Y:     0.0000      Z:     0.0000     Total:     0.0000

  Dipole Moment: (Debye)
     X:     0.0000      Y:     0.0000      Z:     0.0000     Total:     0.0000


*** tstop() called on cqc01 at Tue Apr 30 10:21:54 2019
Module time:
	user time   =      39.89 seconds =       0.66 minutes
	system time =       5.98 seconds =       0.10 minutes
	total time  =         62 seconds =       1.03 minutes
Total time:
	user time   =      39.89 seconds =       0.66 minutes
	system time =       5.98 seconds =       0.10 minutes
	total time  =         62 seconds =       1.03 minutes

*** tstart() called on cqc01
*** at Tue Apr 30 10:21:54 2019


	Wfn Parameters:
	--------------------
	Wavefunction         = CCSD
	Number of irreps     = 8
	Number of MOs        = 258
	Number of active MOs = 247
	AO-Basis             = NONE
	Semicanonical        = false
	Reference            = RHF
	Print Level          = 1

	IRREP	# MOs	# FZDC	# DOCC	# SOCC	# VIRT	# FZVR
	-----	-----	------	------	------	------	------
	 Ag	   55	    4	    2	    0	    49	    0
	 B1g	   20	    0	    0	    0	    20	    0
	 B2g	   29	    1	    1	    0	    27	    0
	 B3g	   29	    1	    1	    0	    27	    0
	 Au	   15	    0	    0	    0	    15	    0
	 B1u	   46	    3	    2	    0	    41	    0
	 B2u	   32	    1	    1	    0	    30	    0
	 B3u	   32	    1	    1	    0	    30	    0
	Transforming integrals...
	IWL integrals will be deleted.
	(OO|OO)...
	Presorting SO-basis two-electron integrals.
	Sorting File: SO Ints (nn|nn) nbuckets = 1
	Transforming the one-electron integrals and constructing Fock matrices
	Starting first half-transformation.
	Sorting half-transformed integrals.
	First half integral transformation complete.
	Starting second half-transformation.
	Two-electron integral transformation complete.
	(OO|OV)...
	Starting second half-transformation.
	Two-electron integral transformation complete.
	(OO|VV)...
	Starting second half-transformation.
	Two-electron integral transformation complete.
	(OV|OO)...
	Starting first half-transformation.
	Sorting half-transformed integrals.
	First half integral transformation complete.
	Starting second half-transformation.
	Two-electron integral transformation complete.
	(OV|OV)...
	Starting second half-transformation.
	Two-electron integral transformation complete.
	(OV|VV)...
	Starting second half-transformation.
	Two-electron integral transformation complete.
	(VV|OO)...
	Starting first half-transformation.
	Sorting half-transformed integrals.
	First half integral transformation complete.
	Starting second half-transformation.
	Two-electron integral transformation complete.
	(VV|OV)...
	Starting second half-transformation.
	Two-electron integral transformation complete.
	(VV|VV)...
	Starting second half-transformation.
	Two-electron integral transformation complete.
	Frozen core energy     =   -893.69639113590802

	Size of irrep 0 of <ab|cd> integrals:     63.441 (MW) /    507.530 (MB)
	Size of irrep 1 of <ab|cd> integrals:     41.577 (MW) /    332.614 (MB)
	Size of irrep 2 of <ab|cd> integrals:     50.211 (MW) /    401.691 (MB)
	Size of irrep 3 of <ab|cd> integrals:     50.211 (MW) /    401.691 (MB)
	Size of irrep 4 of <ab|cd> integrals:     40.322 (MW) /    322.580 (MB)
	Size of irrep 5 of <ab|cd> integrals:     61.748 (MW) /    493.985 (MB)
	Size of irrep 6 of <ab|cd> integrals:     51.323 (MW) /    410.583 (MB)
	Size of irrep 7 of <ab|cd> integrals:     51.323 (MW) /    410.583 (MB)
	Total:                                   410.157 (MW) /   3281.257 (MB)

	Size of irrep 0 of <ia|bc> integrals:      2.342 (MW) /     18.734 (MB)
	Size of irrep 1 of <ia|bc> integrals:      1.186 (MW) /      9.491 (MB)
	Size of irrep 2 of <ia|bc> integrals:      1.694 (MW) /     13.548 (MB)
	Size of irrep 3 of <ia|bc> integrals:      1.694 (MW) /     13.548 (MB)
	Size of irrep 4 of <ia|bc> integrals:      1.168 (MW) /      9.347 (MB)
	Size of irrep 5 of <ia|bc> integrals:      2.310 (MW) /     18.482 (MB)
	Size of irrep 6 of <ia|bc> integrals:      1.712 (MW) /     13.698 (MB)
	Size of irrep 7 of <ia|bc> integrals:      1.712 (MW) /     13.698 (MB)
	Total:                                    13.818 (MW) /    110.546 (MB)

	Size of irrep 0 of tijab amplitudes:       0.096 (MW) /      0.765 (MB)
	Size of irrep 1 of tijab amplitudes:       0.026 (MW) /      0.206 (MB)
	Size of irrep 2 of tijab amplitudes:       0.057 (MW) /      0.454 (MB)
	Size of irrep 3 of tijab amplitudes:       0.057 (MW) /      0.454 (MB)
	Size of irrep 4 of tijab amplitudes:       0.025 (MW) /      0.203 (MB)
	Size of irrep 5 of tijab amplitudes:       0.094 (MW) /      0.754 (MB)
	Size of irrep 6 of tijab amplitudes:       0.057 (MW) /      0.458 (MB)
	Size of irrep 7 of tijab amplitudes:       0.057 (MW) /      0.458 (MB)
	Total:                                     0.469 (MW) /      3.753 (MB)

	Nuclear Rep. energy          =    108.63430214531316
	SCF energy                   =   -832.98036068159752
	One-electron energy          =    -85.40509154874906
	Two-electron energy          =     37.48681985774827
	Reference energy             =   -832.98036068159570

*** tstop() called on cqc01 at Tue Apr 30 10:25:17 2019
Module time:
	user time   =      25.02 seconds =       0.42 minutes
	system time =      13.53 seconds =       0.23 minutes
	total time  =        203 seconds =       3.38 minutes
Total time:
	user time   =      64.91 seconds =       1.08 minutes
	system time =      19.51 seconds =       0.33 minutes
	total time  =        265 seconds =       4.42 minutes

*** tstart() called on cqc01
*** at Tue Apr 30 10:25:17 2019

            **************************
            *                        *
            *        CCENERGY        *
            *                        *
            **************************

    Nuclear Rep. energy (wfn)     =  108.634302145313157
    SCF energy          (wfn)     = -832.980360681597517
    Reference energy    (file100) = -832.980360681595698

    Input parameters:
    -----------------
    Wave function   =     CCSD
    Reference wfn   =     RHF
    Brueckner       =     No
    Memory (Mbytes) =     32000.0
    Maxiter         =     50
    R_Convergence   =     1.0e-07
    E_Convergence   =     1.0e-06
    Restart         =     Yes
    DIIS            =     Yes
    AO Basis        =     NONE
    ABCD            =     NEW
    Cache Level     =     2
    Cache Type      =     LOW
    Print Level     =     1
    Num. of threads =     1
    # Amps to Print =     10
    Print MP2 Amps? =     No
    Analyze T2 Amps =     No
    Print Pair Ener =     No
    Local CC        =     No
    SCS-MP2         =     False
    SCSN-MP2        =     False
    SCS-CCSD        =     False

MP2 correlation energy -0.5367295714740513
                Solving CC Amplitude Equations
                ------------------------------
  Iter             Energy              RMS        T1Diag      D1Diag    New D1Diag    D2Diag
  ----     ---------------------    ---------   ----------  ----------  ----------   --------
     0        -0.536729571474035    0.000e+00    0.000000    0.000000    0.000000    0.174993
     1        -0.551628943439356    4.232e-01    0.034982    0.090169    0.090169    0.190929
     2        -0.557620281676703    1.136e-01    0.017015    0.039081    0.039081    0.194814
     3        -0.543330944342255    3.709e-02    0.019984    0.050107    0.050107    0.186485
     4        -0.541997071257082    4.165e-03    0.019718    0.049347    0.049347    0.185795
     5        -0.541884953696371    1.130e-03    0.019683    0.049347    0.049347    0.185527
     6        -0.541793115920619    3.471e-04    0.019688    0.049388    0.049388    0.185468
     7        -0.541806573658005    1.023e-04    0.019696    0.049413    0.049413    0.185464
     8        -0.541812022974651    3.195e-05    0.019699    0.049425    0.049425    0.185470
     9        -0.541810041792783    1.208e-05    0.019701    0.049431    0.049431    0.185471
    10        -0.541810334194838    4.094e-06    0.019702    0.049434    0.049434    0.185473
    11        -0.541810500687916    1.367e-06    0.019702    0.049435    0.049435    0.185473
    12        -0.541810505860678    5.103e-07    0.019702    0.049435    0.049435    0.185473
    13        -0.541810525820649    1.289e-07    0.019702    0.049435    0.049435    0.185473
    14        -0.541810524563816    3.663e-08    0.019702    0.049435    0.049435    0.185473
    14        -0.541810524563816    3.663e-08    0.019702    0.049435    0.049435    0.185473

    Iterations converged.


    CCSD corr. energy   =   -0.541810524563816
    PPL corr. energy    =    0.158284915315835
    OS PPL corr. energy =    0.129669411197353
    SS PPL corr. energy =    0.028615504118481
    Largest TIA Amplitudes:
              6 179         0.0407136672
              7 209         0.0407136671
              6 180        -0.0182718565
              7 210        -0.0182718503
              3  98         0.0113577249
              2  71         0.0113577006
              3 101         0.0113361920
              2  74         0.0113361738
              5 142         0.0112168970
              6 182         0.0103856889

    Largest TIjAb Amplitudes:
      3   3 179 179        -0.0795042502
      2   2 209 209        -0.0795042101
      6   6 179 179        -0.0628639650
      7   7 209 209        -0.0628639457
      2   3 209 179        -0.0541942388
      3   2 179 209        -0.0541942388
      3   3 179 180         0.0516845897
      3   3 180 179         0.0516845897
      2   2 209 210         0.0516845776
      2   2 210 209         0.0516845776

    SCF energy       (wfn)                    = -832.980360681597517
    Reference energy (file100)                = -832.980360681595698

    Opposite-spin MP2 correlation energy      =   -0.401176438422888
    Same-spin MP2 correlation energy          =   -0.135553133051147
    MP2 correlation energy                    =   -0.536729571474051
      * MP2 total energy                      = -833.517090253069796

    Opposite-spin CCSD correlation energy     =   -0.422721592531835
    Same-spin CCSD correlation energy         =   -0.119088935474908
    CCSD correlation energy                   =   -0.541810524563816
      * CCSD total energy                     = -833.522171206159555


*** tstop() called on cqc01 at Tue Apr 30 10:26:25 2019
Module time:
	user time   =      13.67 seconds =       0.23 minutes
	system time =      23.88 seconds =       0.40 minutes
	total time  =         68 seconds =       1.13 minutes
Total time:
	user time   =      78.58 seconds =       1.31 minutes
	system time =      43.39 seconds =       0.72 minutes
	total time  =        333 seconds =       5.55 minutes

*** Psi4 exiting successfully. Buy a developer a beer!
