
    -----------------------------------------------------------------------
          Psi4: An Open-Source Ab Initio Electronic Structure Package
                               Psi4 1.2a1.dev939 

                         Git: Rev {HEAD} fa1ec19 


    R. M. Parrish, L. A. Burns, D. G. A. Smith, A. C. Simmonett,
    A. E. DePrince III, E. G. Hohenstein, U. Bozkaya, A. Yu. Sokolov,
    R. Di Remigio, R. M. Richard, J. F. Gonthier, A. M. James,
    H. R. McAlexander, A. Kumar, M. Saitow, X. Wang, B. P. Pritchard,
    P. Verma, H. F. Schaefer III, K. Patkowski, R. A. King, E. F. Valeev,
    F. A. Evangelista, J. M. Turney, T. D. Crawford, and C. D. Sherrill,
    J. Chem. Theory Comput. 13(7) pp 3185--3197 (2017).
    (doi: 10.1021/acs.jctc.7b00174)

    -----------------------------------------------------------------------


    Psi4 started on: Friday, 26 April 2019 04:33PM

    Process ID:  29156
    PSIDATADIR: /home/grueneis/src/psi4/objdir/stage/usr/local/psi4/share/psi4
    Memory:     500.0 MiB
    Threads:    1
    
  ==> Input File <==

--------------------------------------------------------------------------
# Any line starting with the # character is a comment line

memory 32000 mb

molecule molecule {
0 1
S          0.0000000000        0.0000000000        1.5587775077
C          0.0000000000        0.0000000000        0.0000000000
S          0.0000000000        0.0000000000       -1.5587775077
}

set {
  reference rhf
  basis aug-cc-pv(D+d)z
  scf_type OUT_OF_CORE
  freeze_core true
}

energy('ccsd')
--------------------------------------------------------------------------

  Memory set to  29.802 GiB by Python driver.

*** tstart() called on cqc01
*** at Fri Apr 26 16:33:56 2019

   => Loading Basis Set <=

    Name: AUG-CC-PV(D+D)Z
    Role: ORBITAL
    Keyword: BASIS
    atoms 1, 3 entry S          line   724 file /home/grueneis/src/psi4/objdir/stage/usr/local/psi4/share/psi4/basis/aug-cc-pv_dpd_z.gbs 
    atoms 2    entry C          line   198 file /home/grueneis/src/psi4/objdir/stage/usr/local/psi4/share/psi4/basis/aug-cc-pv_dpd_z.gbs 


         ---------------------------------------------------------
                                   SCF
            by Justin Turney, Rob Parrish, Andy Simmonett
                             and Daniel Smith
                              RHF Reference
                        1 Threads,  30517 MiB Core
         ---------------------------------------------------------

  ==> Geometry <==

    Molecular point group: d2h
    Full point group: D_inf_h

    Geometry (in Angstrom), charge = 0, multiplicity = 1:

       Center              X                  Y                   Z               Mass       
    ------------   -----------------  -----------------  -----------------  -----------------
           S          0.000000000000     0.000000000000     1.558777507700    31.972070999000
           C          0.000000000000     0.000000000000     0.000000000000    12.000000000000
           S          0.000000000000     0.000000000000    -1.558777507700    31.972070999000

  Running in d2h symmetry.

  Rotational constants: A = ************  B =      0.10850  C =      0.10850 [cm^-1]
  Rotational constants: A = ************  B =   3252.73116  C =   3252.73116 [MHz]
  Nuclear repulsion =  108.634302145313157

  Charge       = 0
  Multiplicity = 1
  Electrons    = 38
  Nalpha       = 19
  Nbeta        = 19

  ==> Algorithm <==

  SCF Algorithm Type is OUT_OF_CORE.
  DIIS enabled.
  MOM disabled.
  Fractional occupation disabled.
  Guess Type is SAD.
  Energy threshold   = 1.00e-08
  Density threshold  = 1.00e-08
  Integral threshold = 0.00e+00

  ==> Primary Basis <==

  Basis Set: AUG-CC-PV(D+D)Z
    Blend: AUG-CC-PV(D+D)Z
    Number of shells: 33
    Number of basis function: 87
    Number of Cartesian functions: 95
    Spherical Harmonics?: true
    Max angular momentum: 2

  ==> Pre-Iterations <==

   -------------------------------------------------------
    Irrep   Nso     Nmo     Nalpha   Nbeta   Ndocc  Nsocc
   -------------------------------------------------------
     Ag        23      23       0       0       0       0
     B1g        5       5       0       0       0       0
     B2g        9       9       0       0       0       0
     B3g        9       9       0       0       0       0
     Au         3       3       0       0       0       0
     B1u       18      18       0       0       0       0
     B2u       10      10       0       0       0       0
     B3u       10      10       0       0       0       0
   -------------------------------------------------------
    Total      87      87      19      19      19       0
   -------------------------------------------------------

  ==> Integral Setup <==

  ==> DiskJK: Disk-Based J/K Matrices <==

    J tasked:                  Yes
    K tasked:                  Yes
    wK tasked:                  No
    Memory (MB):             22888
    Schwarz Cutoff:          1E-12

  Minimum eigenvalue in the overlap matrix is 2.3613642942E-04.
  Using Symmetric Orthogonalization.

  SCF Guess: Superposition of Atomic Densities via on-the-fly atomic UHF.

  ==> Iterations <==

                        Total Energy        Delta E     RMS |[F,P]|

   @RHF iter   0:  -833.81115408717403   -8.33811e+02   8.25956e-02 
   @RHF iter   1:  -832.83167652184625    9.79478e-01   1.21245e-02 
   @RHF iter   2:  -832.86253336207824   -3.08568e-02   1.08102e-02 DIIS
   @RHF iter   3:  -832.93744801762227   -7.49147e-02   1.31043e-03 DIIS
   @RHF iter   4:  -832.93989268981034   -2.44467e-03   4.27646e-04 DIIS
   @RHF iter   5:  -832.94013084475887   -2.38155e-04   6.77609e-05 DIIS
   @RHF iter   6:  -832.94013996182696   -9.11707e-06   1.23635e-05 DIIS
   @RHF iter   7:  -832.94014022300928   -2.61182e-07   2.41043e-06 DIIS
   @RHF iter   8:  -832.94014023698776   -1.39785e-08   9.16074e-07 DIIS
   @RHF iter   9:  -832.94014024063381   -3.64605e-09   2.84586e-07 DIIS
   @RHF iter  10:  -832.94014024098226   -3.48450e-10   3.45119e-08 DIIS
   @RHF iter  11:  -832.94014024098340   -1.13687e-12   4.56224e-09 DIIS

  ==> Post-Iterations <==

    Orbital Energies (a.u.)
    -----------------------

    Doubly Occupied:                                                      

       1B1u  -91.995450     1Ag   -91.995448     2Ag   -11.408322  
       2B1u   -8.998991     3Ag    -8.998956     3B1u   -6.681192  
       4Ag    -6.681183     1B2g   -6.677795     1B3g   -6.677795  
       1B3u   -6.677794     1B2u   -6.677794     5Ag    -1.146635  
       4B1u   -1.023871     6Ag    -0.682291     5B1u   -0.585093  
       2B2u   -0.525233     2B3u   -0.525233     2B2g   -0.374194  
       2B3g   -0.374194  

    Virtual:                                                              

       3B2u    0.039964     3B3u    0.039964     7Ag     0.064792  
       6B1u    0.067622     8Ag     0.105577     4B2u    0.120747  
       4B3u    0.120747     3B2g    0.137700     3B3g    0.137700  
       7B1u    0.155274     5B2u    0.185879     5B3u    0.185879  
       9Ag     0.219486     8B1u    0.271625    10Ag     0.307284  
       1B1g    0.310521    11Ag     0.310521     9B1u    0.345990  
       1Au     0.385449    10B1u    0.385449     4B2g    0.429368  
       4B3g    0.429368    12Ag     0.434900     6B3u    0.604913  
       6B2u    0.604913    13Ag     0.607272     2B1g    0.607272  
      14Ag     0.653796    11B1u    0.720554     5B2g    0.781475  
       5B3g    0.781475     7B2u    0.784411     7B3u    0.784411  
       6B3g    0.870053     6B2g    0.870053    12B1u    0.889329  
      15Ag     0.942141     8B2u    0.987766     8B3u    0.987766  
       3B1g    1.049312    16Ag     1.049312     2Au     1.074444  
      13B1u    1.074444    14B1u    1.095733    17Ag     1.117647  
       9B3u    1.150654     9B2u    1.150654     7B2g    1.235492  
       7B3g    1.235492    15B1u    1.494128    18Ag     1.555846  
       4B1g    1.655689    19Ag     1.655689    20Ag     1.928609  
       8B2g    1.981319     8B3g    1.981319    16B1u    2.058570  
      21Ag     2.967460    17B1u    5.023925     3Au     5.023925  
       5B1g    5.029873    22Ag     5.029873    10B3u    5.059355  
      10B2u    5.059355    23Ag     5.130505     9B2g    5.135609  
       9B3g    5.135609    18B1u    5.178831  

    Final Occupation by Irrep:
             Ag   B1g   B2g   B3g    Au   B1u   B2u   B3u 
    DOCC [     6,    0,    2,    2,    0,    5,    2,    2 ]

  Energy converged.

  @RHF Final Energy:  -832.94014024098340

   => Energetics <=

    Nuclear Repulsion Energy =            108.6343021453131570
    One-Electron Energy =               -1365.7339534384766466
    Two-Electron Energy =                 424.1595110521801075
    Total Energy =                       -832.9401402409835100



Properties will be evaluated at   0.000000,   0.000000,   0.000000 Bohr

Properties computed using the SCF density matrix

  Nuclear Dipole Moment: (a.u.)
     X:     0.0000      Y:     0.0000      Z:     0.0000

  Electronic Dipole Moment: (a.u.)
     X:     0.0000      Y:     0.0000      Z:     0.0000

  Dipole Moment: (a.u.)
     X:     0.0000      Y:     0.0000      Z:     0.0000     Total:     0.0000

  Dipole Moment: (Debye)
     X:     0.0000      Y:     0.0000      Z:     0.0000     Total:     0.0000


*** tstop() called on cqc01 at Fri Apr 26 16:33:59 2019
Module time:
	user time   =       2.31 seconds =       0.04 minutes
	system time =       1.27 seconds =       0.02 minutes
	total time  =          3 seconds =       0.05 minutes
Total time:
	user time   =       2.31 seconds =       0.04 minutes
	system time =       1.27 seconds =       0.02 minutes
	total time  =          3 seconds =       0.05 minutes

*** tstart() called on cqc01
*** at Fri Apr 26 16:33:59 2019


	Wfn Parameters:
	--------------------
	Wavefunction         = CCSD
	Number of irreps     = 8
	Number of MOs        = 87
	Number of active MOs = 76
	AO-Basis             = NONE
	Semicanonical        = false
	Reference            = RHF
	Print Level          = 1

	IRREP	# MOs	# FZDC	# DOCC	# SOCC	# VIRT	# FZVR
	-----	-----	------	------	------	------	------
	 Ag	   23	    4	    2	    0	    17	    0
	 B1g	   5	    0	    0	    0	    5	    0
	 B2g	   9	    1	    1	    0	    7	    0
	 B3g	   9	    1	    1	    0	    7	    0
	 Au	   3	    0	    0	    0	    3	    0
	 B1u	   18	    3	    2	    0	    13	    0
	 B2u	   10	    1	    1	    0	    8	    0
	 B3u	   10	    1	    1	    0	    8	    0
	Transforming integrals...
	IWL integrals will be deleted.
	(OO|OO)...
	Presorting SO-basis two-electron integrals.
	Sorting File: SO Ints (nn|nn) nbuckets = 1
	Transforming the one-electron integrals and constructing Fock matrices
	Starting first half-transformation.
	Sorting half-transformed integrals.
	First half integral transformation complete.
	Starting second half-transformation.
	Two-electron integral transformation complete.
	(OO|OV)...
	Starting second half-transformation.
	Two-electron integral transformation complete.
	(OO|VV)...
	Starting second half-transformation.
	Two-electron integral transformation complete.
	(OV|OO)...
	Starting first half-transformation.
	Sorting half-transformed integrals.
	First half integral transformation complete.
	Starting second half-transformation.
	Two-electron integral transformation complete.
	(OV|OV)...
	Starting second half-transformation.
	Two-electron integral transformation complete.
	(OV|VV)...
	Starting second half-transformation.
	Two-electron integral transformation complete.
	(VV|OO)...
	Starting first half-transformation.
	Sorting half-transformed integrals.
	First half integral transformation complete.
	Starting second half-transformation.
	Two-electron integral transformation complete.
	(VV|OV)...
	Starting second half-transformation.
	Two-electron integral transformation complete.
	(VV|VV)...
	Starting second half-transformation.
	Two-electron integral transformation complete.
	Frozen core energy     =   -893.68060223861698

	Size of irrep 0 of <ab|cd> integrals:      0.516 (MW) /      4.124 (MB)
	Size of irrep 1 of <ab|cd> integrals:      0.225 (MW) /      1.797 (MB)
	Size of irrep 2 of <ab|cd> integrals:      0.318 (MW) /      2.545 (MB)
	Size of irrep 3 of <ab|cd> integrals:      0.318 (MW) /      2.545 (MB)
	Size of irrep 4 of <ab|cd> integrals:      0.208 (MW) /      1.663 (MB)
	Size of irrep 5 of <ab|cd> integrals:      0.484 (MW) /      3.875 (MB)
	Size of irrep 6 of <ab|cd> integrals:      0.332 (MW) /      2.654 (MB)
	Size of irrep 7 of <ab|cd> integrals:      0.332 (MW) /      2.654 (MB)
	Total:                                     2.732 (MW) /     21.858 (MB)

	Size of irrep 0 of <ia|bc> integrals:      0.065 (MW) /      0.517 (MB)
	Size of irrep 1 of <ia|bc> integrals:      0.022 (MW) /      0.174 (MB)
	Size of irrep 2 of <ia|bc> integrals:      0.038 (MW) /      0.307 (MB)
	Size of irrep 3 of <ia|bc> integrals:      0.038 (MW) /      0.307 (MB)
	Size of irrep 4 of <ia|bc> integrals:      0.021 (MW) /      0.168 (MB)
	Size of irrep 5 of <ia|bc> integrals:      0.063 (MW) /      0.501 (MB)
	Size of irrep 6 of <ia|bc> integrals:      0.039 (MW) /      0.313 (MB)
	Size of irrep 7 of <ia|bc> integrals:      0.039 (MW) /      0.313 (MB)
	Total:                                     0.325 (MW) /      2.601 (MB)

	Size of irrep 0 of tijab amplitudes:       0.009 (MW) /      0.069 (MB)
	Size of irrep 1 of tijab amplitudes:       0.002 (MW) /      0.015 (MB)
	Size of irrep 2 of tijab amplitudes:       0.005 (MW) /      0.036 (MB)
	Size of irrep 3 of tijab amplitudes:       0.005 (MW) /      0.036 (MB)
	Size of irrep 4 of tijab amplitudes:       0.002 (MW) /      0.015 (MB)
	Size of irrep 5 of tijab amplitudes:       0.008 (MW) /      0.067 (MB)
	Size of irrep 6 of tijab amplitudes:       0.005 (MW) /      0.037 (MB)
	Size of irrep 7 of tijab amplitudes:       0.005 (MW) /      0.037 (MB)
	Total:                                     0.039 (MW) /      0.311 (MB)

	Nuclear Rep. energy          =    108.63430214531316
	SCF energy                   =   -832.94014024098340
	One-electron energy          =    -85.31419179464343
	Two-electron energy          =     37.42035164696428
	Reference energy             =   -832.94014024098294

*** tstop() called on cqc01 at Fri Apr 26 16:34:02 2019
Module time:
	user time   =       0.28 seconds =       0.00 minutes
	system time =       0.12 seconds =       0.00 minutes
	total time  =          3 seconds =       0.05 minutes
Total time:
	user time   =       2.59 seconds =       0.04 minutes
	system time =       1.39 seconds =       0.02 minutes
	total time  =          6 seconds =       0.10 minutes

*** tstart() called on cqc01
*** at Fri Apr 26 16:34:02 2019

            **************************
            *                        *
            *        CCENERGY        *
            *                        *
            **************************

    Nuclear Rep. energy (wfn)     =  108.634302145313157
    SCF energy          (wfn)     = -832.940140240983396
    Reference energy    (file100) = -832.940140240982942

    Input parameters:
    -----------------
    Wave function   =     CCSD
    Reference wfn   =     RHF
    Brueckner       =     No
    Memory (Mbytes) =     32000.0
    Maxiter         =     50
    R_Convergence   =     1.0e-07
    E_Convergence   =     1.0e-06
    Restart         =     Yes
    DIIS            =     Yes
    AO Basis        =     NONE
    ABCD            =     NEW
    Cache Level     =     2
    Cache Type      =     LOW
    Print Level     =     1
    Num. of threads =     1
    # Amps to Print =     10
    Print MP2 Amps? =     No
    Analyze T2 Amps =     No
    Print Pair Ener =     No
    Local CC        =     No
    SCS-MP2         =     False
    SCSN-MP2        =     False
    SCS-CCSD        =     False

MP2 correlation energy -0.4156119428749437
                Solving CC Amplitude Equations
                ------------------------------
  Iter             Energy              RMS        T1Diag      D1Diag    New D1Diag    D2Diag
  ----     ---------------------    ---------   ----------  ----------  ----------   --------
     0        -0.415611942874938    0.000e+00    0.000000    0.000000    0.000000    0.171199
     1        -0.448181205958733    3.797e-01    0.033444    0.086749    0.086749    0.189284
     2        -0.440485350662316    9.420e-02    0.018506    0.043626    0.043626    0.190094
     3        -0.428757986348767    2.771e-02    0.020485    0.051535    0.051535    0.181277
     4        -0.428635315302322    3.444e-03    0.020222    0.050864    0.050864    0.181021
     5        -0.428281513148444    9.789e-04    0.020186    0.050813    0.050813    0.180652
     6        -0.428252180979669    2.548e-04    0.020184    0.050834    0.050834    0.180636
     7        -0.428267930975771    7.450e-05    0.020188    0.050845    0.050845    0.180642
     8        -0.428266516977995    2.531e-05    0.020190    0.050854    0.050854    0.180646
     9        -0.428266558339430    7.055e-06    0.020191    0.050857    0.050857    0.180648
    10        -0.428266789273817    2.295e-06    0.020192    0.050858    0.050858    0.180649
    11        -0.428266833566275    8.509e-07    0.020192    0.050859    0.050859    0.180649
    12        -0.428266843887677    2.462e-07    0.020192    0.050859    0.050859    0.180649
    13        -0.428266853251875    7.130e-08    0.020192    0.050859    0.050859    0.180649
    13        -0.428266853251875    7.130e-08    0.020192    0.050859    0.050859    0.180649

    Iterations converged.


    CCSD corr. energy   =   -0.428266853251875
    PPL corr. energy    =    0.111368675898978
    OS PPL corr. energy =    0.088353764812720
    SS PPL corr. energy =    0.023014911086259
    Largest TIA Amplitudes:
              6  52         0.0431054540
              7  60         0.0431053371
              5  42        -0.0168712151
              6  53        -0.0158988101
              7  61        -0.0158987777
              6  55         0.0124483971
              7  63         0.0124483783
              2  23         0.0120238084
              3  30         0.0120238028
              6  54        -0.0115660466

    Largest TIjAb Amplitudes:
      3   3  52  52        -0.0919097274
      2   2  60  60        -0.0919096910
      7   7  60  60        -0.0722075058
      6   6  52  52        -0.0722075026
      2   3  60  52        -0.0633357189
      3   2  52  60        -0.0633357189
      3   3  52  53         0.0480339487
      3   3  53  52         0.0480339487
      2   2  60  61         0.0480339340
      2   2  61  60         0.0480339340

    SCF energy       (wfn)                    = -832.940140240983396
    Reference energy (file100)                = -832.940140240982942

    Opposite-spin MP2 correlation energy      =   -0.299256850091242
    Same-spin MP2 correlation energy          =   -0.116355092783696
    MP2 correlation energy                    =   -0.415611942874944
      * MP2 total energy                      = -833.355752183857931

    Opposite-spin CCSD correlation energy     =   -0.326402766224468
    Same-spin CCSD correlation energy         =   -0.101864087511391
    CCSD correlation energy                   =   -0.428266853251875
      * CCSD total energy                     = -833.368407094234840


*** tstop() called on cqc01 at Fri Apr 26 16:34:09 2019
Module time:
	user time   =       0.65 seconds =       0.01 minutes
	system time =       1.60 seconds =       0.03 minutes
	total time  =          7 seconds =       0.12 minutes
Total time:
	user time   =       3.24 seconds =       0.05 minutes
	system time =       2.99 seconds =       0.05 minutes
	total time  =         13 seconds =       0.22 minutes

*** Psi4 exiting successfully. Buy a developer a beer!
