
    -----------------------------------------------------------------------
          Psi4: An Open-Source Ab Initio Electronic Structure Package
                               Psi4 1.2a1.dev939 

                         Git: Rev {HEAD} fa1ec19 


    R. M. Parrish, L. A. Burns, D. G. A. Smith, A. C. Simmonett,
    A. E. DePrince III, E. G. Hohenstein, U. Bozkaya, A. Yu. Sokolov,
    R. Di Remigio, R. M. Richard, J. F. Gonthier, A. M. James,
    H. R. McAlexander, A. Kumar, M. Saitow, X. Wang, B. P. Pritchard,
    P. Verma, H. F. Schaefer III, K. Patkowski, R. A. King, E. F. Valeev,
    F. A. Evangelista, J. M. Turney, T. D. Crawford, and C. D. Sherrill,
    J. Chem. Theory Comput. 13(7) pp 3185--3197 (2017).
    (doi: 10.1021/acs.jctc.7b00174)

    -----------------------------------------------------------------------


    Psi4 started on: Friday, 26 April 2019 03:46PM

    Process ID:  28867
    PSIDATADIR: /home/grueneis/src/psi4/objdir/stage/usr/local/psi4/share/psi4
    Memory:     500.0 MiB
    Threads:    1
    
  ==> Input File <==

--------------------------------------------------------------------------
# Any line starting with the # character is a comment line

memory 32000 mb

molecule molecule {
0 1
Si         0.0000000000        0.0000000000        0.0702843423
H          0.0000000000       -1.0886337295       -0.9792105160
H          0.0000000000        1.0886337295       -0.9792105160
}

set {
  reference rhf
  basis aug-cc-pv(D+d)z
  scf_type OUT_OF_CORE
  freeze_core true
}

energy('ccsd')
--------------------------------------------------------------------------

  Memory set to  29.802 GiB by Python driver.

*** tstart() called on cqc01
*** at Fri Apr 26 15:46:36 2019

   => Loading Basis Set <=

    Name: AUG-CC-PV(D+D)Z
    Role: ORBITAL
    Keyword: BASIS
    atoms 1   entry SI         line   588 file /home/grueneis/src/psi4/objdir/stage/usr/local/psi4/share/psi4/basis/aug-cc-pv_dpd_z.gbs 
    atoms 2-3 entry H          line    56 file /home/grueneis/src/psi4/objdir/stage/usr/local/psi4/share/psi4/basis/aug-cc-pv_dpd_z.gbs 


         ---------------------------------------------------------
                                   SCF
            by Justin Turney, Rob Parrish, Andy Simmonett
                             and Daniel Smith
                              RHF Reference
                        1 Threads,  30517 MiB Core
         ---------------------------------------------------------

  ==> Geometry <==

    Molecular point group: c2v
    Full point group: C2v

    Geometry (in Angstrom), charge = 0, multiplicity = 1:

       Center              X                  Y                   Z               Mass       
    ------------   -----------------  -----------------  -----------------  -----------------
          SI         -0.000000000000     0.000000000000     0.070531265349    27.976926532460
           H          0.000000000000    -1.088633729500    -0.978963592951     1.007825032070
           H         -0.000000000000     1.088633729500    -0.978963592951     1.007825032070

  Running in c2v symmetry.

  Rotational constants: A =      8.14019  B =      7.05696  C =      3.77999 [cm^-1]
  Rotational constants: A = 244036.73346  B = 211562.40101  C = 113321.10480 [MHz]
  Nuclear repulsion =   10.041726835726410

  Charge       = 0
  Multiplicity = 1
  Electrons    = 16
  Nalpha       = 8
  Nbeta        = 8

  ==> Algorithm <==

  SCF Algorithm Type is OUT_OF_CORE.
  DIIS enabled.
  MOM disabled.
  Fractional occupation disabled.
  Guess Type is SAD.
  Energy threshold   = 1.00e-08
  Density threshold  = 1.00e-08
  Integral threshold = 0.00e+00

  ==> Primary Basis <==

  Basis Set: AUG-CC-PV(D+D)Z
    Blend: AUG-CC-PV(D+D)Z
    Number of shells: 22
    Number of basis function: 50
    Number of Cartesian functions: 53
    Spherical Harmonics?: true
    Max angular momentum: 2

  ==> Pre-Iterations <==

   -------------------------------------------------------
    Irrep   Nso     Nmo     Nalpha   Nbeta   Ndocc  Nsocc
   -------------------------------------------------------
     A1        22      22       0       0       0       0
     A2         5       5       0       0       0       0
     B1         9       9       0       0       0       0
     B2        14      14       0       0       0       0
   -------------------------------------------------------
    Total      50      50       8       8       8       0
   -------------------------------------------------------

  ==> Integral Setup <==

  ==> DiskJK: Disk-Based J/K Matrices <==

    J tasked:                  Yes
    K tasked:                  Yes
    wK tasked:                  No
    Memory (MB):             22888
    Schwarz Cutoff:          1E-12

  Minimum eigenvalue in the overlap matrix is 1.3554418987E-03.
  Using Symmetric Orthogonalization.

  SCF Guess: Superposition of Atomic Densities via on-the-fly atomic UHF.

  ==> Iterations <==

                        Total Energy        Delta E     RMS |[F,P]|

   @RHF iter   0:  -289.86645355622659   -2.89866e+02   3.44712e-02 
   @RHF iter   1:  -290.01215536753853   -1.45702e-01   3.04882e-03 
   @RHF iter   2:  -290.02154104844334   -9.38568e-03   9.00605e-04 DIIS
   @RHF iter   3:  -290.02262024959208   -1.07920e-03   2.24771e-04 DIIS
   @RHF iter   4:  -290.02270017044384   -7.99209e-05   4.92051e-05 DIIS
   @RHF iter   5:  -290.02270491336918   -4.74293e-06   9.02246e-06 DIIS
   @RHF iter   6:  -290.02270504695144   -1.33582e-07   7.58271e-07 DIIS
   @RHF iter   7:  -290.02270504762987   -6.78426e-10   1.02719e-07 DIIS
   @RHF iter   8:  -290.02270504764675   -1.68825e-11   2.62842e-08 DIIS
   @RHF iter   9:  -290.02270504764800   -1.25056e-12   4.29116e-09 DIIS

  ==> Post-Iterations <==

    Orbital Energies (a.u.)
    -----------------------

    Doubly Occupied:                                                      

       1A1   -68.805477     2A1    -6.149016     1B1    -4.252932  
       1B2    -4.250492     3A1    -4.249423     4A1    -0.676732  
       2B2    -0.459160     5A1    -0.337943  

    Virtual:                                                              

       2B1    -0.002924     6A1     0.043488     3B2     0.061914  
       7A1     0.072248     4B2     0.090911     3B1     0.093397  
       8A1     0.146442     5B2     0.181866     9A1     0.205839  
      10A1     0.216744     1A2     0.217039     4B1     0.219167  
      11A1     0.358214     6B2     0.360242    12A1     0.366870  
       7B2     0.390384     2A2     0.453776    13A1     0.466097  
       5B1     0.470254     8B2     0.502086     6B1     0.557228  
      14A1     0.623446     9B2     0.642856     3A2     0.684569  
       7B1     0.693149    15A1     0.701983    16A1     0.734695  
      17A1     0.906271    10B2     0.964133    18A1     1.128563  
      11B2     1.295149    12B2     1.826749     4A2     1.901184  
       8B1     1.950093    19A1     2.019558    13B2     2.206992  
      20A1     2.240268     5A2     3.343991     9B1     3.350249  
      21A1     3.371495    22A1     3.392755    14B2     3.456751  

    Final Occupation by Irrep:
             A1    A2    B1    B2 
    DOCC [     5,    0,    1,    2 ]

  Energy converged.

  @RHF Final Energy:  -290.02270504764800

   => Energetics <=

    Nuclear Repulsion Energy =             10.0417268357264096
    One-Electron Energy =                -421.7665151694261567
    Two-Electron Energy =                 121.7020832860517316
    Total Energy =                       -290.0227050476480031



Properties will be evaluated at   0.000000,   0.000000,   0.000000 Bohr

Properties computed using the SCF density matrix

  Nuclear Dipole Moment: (a.u.)
     X:     0.0000      Y:     0.0000      Z:    -1.8340

  Electronic Dipole Moment: (a.u.)
     X:     0.0000      Y:     0.0000      Z:     1.7076

  Dipole Moment: (a.u.)
     X:     0.0000      Y:     0.0000      Z:    -0.1263     Total:     0.1263

  Dipole Moment: (Debye)
     X:     0.0000      Y:     0.0000      Z:    -0.3211     Total:     0.3211


*** tstop() called on cqc01 at Fri Apr 26 15:46:37 2019
Module time:
	user time   =       0.65 seconds =       0.01 minutes
	system time =       0.45 seconds =       0.01 minutes
	total time  =          1 seconds =       0.02 minutes
Total time:
	user time   =       0.65 seconds =       0.01 minutes
	system time =       0.45 seconds =       0.01 minutes
	total time  =          1 seconds =       0.02 minutes

*** tstart() called on cqc01
*** at Fri Apr 26 15:46:37 2019


	Wfn Parameters:
	--------------------
	Wavefunction         = CCSD
	Number of irreps     = 4
	Number of MOs        = 50
	Number of active MOs = 45
	AO-Basis             = NONE
	Semicanonical        = false
	Reference            = RHF
	Print Level          = 1

	IRREP	# MOs	# FZDC	# DOCC	# SOCC	# VIRT	# FZVR
	-----	-----	------	------	------	------	------
	 A1	   22	    3	    2	    0	    17	    0
	 A2	   5	    0	    0	    0	    5	    0
	 B1	   9	    1	    0	    0	    8	    0
	 B2	   14	    1	    1	    0	    12	    0
	Transforming integrals...
	IWL integrals will be deleted.
	(OO|OO)...
	Presorting SO-basis two-electron integrals.
	Sorting File: SO Ints (nn|nn) nbuckets = 1
	Transforming the one-electron integrals and constructing Fock matrices
	Starting first half-transformation.
	Sorting half-transformed integrals.
	First half integral transformation complete.
	Starting second half-transformation.
	Two-electron integral transformation complete.
	(OO|OV)...
	Starting second half-transformation.
	Two-electron integral transformation complete.
	(OO|VV)...
	Starting second half-transformation.
	Two-electron integral transformation complete.
	(OV|OO)...
	Starting first half-transformation.
	Sorting half-transformed integrals.
	First half integral transformation complete.
	Starting second half-transformation.
	Two-electron integral transformation complete.
	(OV|OV)...
	Starting second half-transformation.
	Two-electron integral transformation complete.
	(OV|VV)...
	Starting second half-transformation.
	Two-electron integral transformation complete.
	(VV|OO)...
	Starting first half-transformation.
	Sorting half-transformed integrals.
	First half integral transformation complete.
	Starting second half-transformation.
	Two-electron integral transformation complete.
	(VV|OV)...
	Starting second half-transformation.
	Two-electron integral transformation complete.
	(VV|VV)...
	Starting second half-transformation.
	Two-electron integral transformation complete.
	Frozen core energy     =   -292.17050142932499

	Size of irrep 0 of <ab|cd> integrals:      0.272 (MW) /      2.180 (MB)
	Size of irrep 1 of <ab|cd> integrals:      0.131 (MW) /      1.048 (MB)
	Size of irrep 2 of <ab|cd> integrals:      0.154 (MW) /      1.229 (MB)
	Size of irrep 3 of <ab|cd> integrals:      0.238 (MW) /      1.905 (MB)
	Total:                                     0.795 (MW) /      6.363 (MB)

	Size of irrep 0 of <ia|bc> integrals:      0.024 (MW) /      0.192 (MB)
	Size of irrep 1 of <ia|bc> integrals:      0.007 (MW) /      0.052 (MB)
	Size of irrep 2 of <ia|bc> integrals:      0.008 (MW) /      0.066 (MB)
	Size of irrep 3 of <ia|bc> integrals:      0.020 (MW) /      0.160 (MB)
	Total:                                     0.059 (MW) /      0.470 (MB)

	Size of irrep 0 of tijab amplitudes:       0.003 (MW) /      0.021 (MB)
	Size of irrep 1 of tijab amplitudes:       0.000 (MW) /      0.000 (MB)
	Size of irrep 2 of tijab amplitudes:       0.000 (MW) /      0.000 (MB)
	Size of irrep 3 of tijab amplitudes:       0.002 (MW) /      0.016 (MB)
	Total:                                     0.005 (MW) /      0.036 (MB)

	Nuclear Rep. energy          =     10.04172683572641
	SCF energy                   =   -290.02270504764800
	One-electron energy          =    -12.84019166798800
	Two-electron energy          =      4.94626121393854
	Reference energy             =   -290.02270504764806

*** tstop() called on cqc01 at Fri Apr 26 15:46:38 2019
Module time:
	user time   =       0.07 seconds =       0.00 minutes
	system time =       0.09 seconds =       0.00 minutes
	total time  =          1 seconds =       0.02 minutes
Total time:
	user time   =       0.72 seconds =       0.01 minutes
	system time =       0.54 seconds =       0.01 minutes
	total time  =          2 seconds =       0.03 minutes

*** tstart() called on cqc01
*** at Fri Apr 26 15:46:38 2019

            **************************
            *                        *
            *        CCENERGY        *
            *                        *
            **************************

    Nuclear Rep. energy (wfn)     =   10.041726835726410
    SCF energy          (wfn)     = -290.022705047648003
    Reference energy    (file100) = -290.022705047648060

    Input parameters:
    -----------------
    Wave function   =     CCSD
    Reference wfn   =     RHF
    Brueckner       =     No
    Memory (Mbytes) =     32000.0
    Maxiter         =     50
    R_Convergence   =     1.0e-07
    E_Convergence   =     1.0e-06
    Restart         =     Yes
    DIIS            =     Yes
    AO Basis        =     NONE
    ABCD            =     NEW
    Cache Level     =     2
    Cache Type      =     LOW
    Print Level     =     1
    Num. of threads =     1
    # Amps to Print =     10
    Print MP2 Amps? =     No
    Analyze T2 Amps =     No
    Print Pair Ener =     No
    Local CC        =     No
    SCS-MP2         =     False
    SCSN-MP2        =     False
    SCS-CCSD        =     False

MP2 correlation energy -0.0929413202546813
                Solving CC Amplitude Equations
                ------------------------------
  Iter             Energy              RMS        T1Diag      D1Diag    New D1Diag    D2Diag
  ----     ---------------------    ---------   ----------  ----------  ----------   --------
     0        -0.092941320254675    0.000e+00    0.000000    0.000000    0.000000    0.143902
     1        -0.137019423381010    1.141e-01    0.013090    0.024816    0.024816    0.242961
     2        -0.122410325643413    2.934e-02    0.013342    0.026174    0.026174    0.225288
     3        -0.122320088505844    5.224e-03    0.013519    0.026713    0.026713    0.226505
     4        -0.122193488887038    2.754e-03    0.013822    0.027494    0.027494    0.227845
     5        -0.122239688003715    1.326e-03    0.014074    0.028122    0.028122    0.229146
     6        -0.122349452611897    4.383e-04    0.014128    0.028272    0.028272    0.229736
     7        -0.122355103761676    1.140e-04    0.014119    0.028260    0.028260    0.229826
     8        -0.122349615511021    4.195e-05    0.014110    0.028241    0.028241    0.229823
     9        -0.122349592058773    1.693e-05    0.014105    0.028231    0.028231    0.229826
    10        -0.122349359673265    4.273e-06    0.014103    0.028228    0.028228    0.229824
    11        -0.122349301953210    1.043e-06    0.014103    0.028228    0.028228    0.229824
    12        -0.122349293599271    3.107e-07    0.014103    0.028228    0.028228    0.229824
    13        -0.122349292654153    9.428e-08    0.014103    0.028228    0.028228    0.229824
    13        -0.122349292654153    9.428e-08    0.014103    0.028228    0.028228    0.229824

    Iterations converged.


    CCSD corr. energy   =   -0.122349292654153
    PPL corr. energy    =    0.039110691329236
    OS PPL corr. energy =    0.036891621632807
    SS PPL corr. energy =    0.002219069696428
    Largest TIA Amplitudes:
              1   4         0.0160940082
              2  32         0.0137903222
              0   3         0.0130044647
              1   3        -0.0111236316
              1   0         0.0067130900
              1   6        -0.0065071272
              2  30        -0.0065049724
              0   8         0.0058868318
              2  36        -0.0055354393
              0   4        -0.0053139476

    Largest TIjAb Amplitudes:
      1   1  22  22        -0.1346182522
      1   1  32  32        -0.0888242274
      1   1  22  23        -0.0730311629
      1   1  23  22        -0.0730311629
      1   1  22  24         0.0527583918
      1   1  24  22         0.0527583918
      1   1   4   4        -0.0476374779
      2   2  32  32        -0.0441932073
      0   0  22  22        -0.0441549781
      0   1  22  22         0.0428543996

    SCF energy       (wfn)                    = -290.022705047648003
    Reference energy (file100)                = -290.022705047648060

    Opposite-spin MP2 correlation energy      =   -0.083050559405209
    Same-spin MP2 correlation energy          =   -0.009890760849466
    MP2 correlation energy                    =   -0.092941320254681
      * MP2 total energy                      = -290.115646367902741

    Opposite-spin CCSD correlation energy     =   -0.111525552350543
    Same-spin CCSD correlation energy         =   -0.010823740777964
    CCSD correlation energy                   =   -0.122349292654153
      * CCSD total energy                     = -290.145054340302238


*** tstop() called on cqc01 at Fri Apr 26 15:46:41 2019
Module time:
	user time   =       0.65 seconds =       0.01 minutes
	system time =       1.28 seconds =       0.02 minutes
	total time  =          3 seconds =       0.05 minutes
Total time:
	user time   =       1.37 seconds =       0.02 minutes
	system time =       1.82 seconds =       0.03 minutes
	total time  =          5 seconds =       0.08 minutes

*** Psi4 exiting successfully. Buy a developer a beer!
