
    -----------------------------------------------------------------------
          Psi4: An Open-Source Ab Initio Electronic Structure Package
                               Psi4 1.4a3.dev88 

                         Git: Rev {master} 262e345 


    D. G. A. Smith, L. A. Burns, A. C. Simmonett, R. M. Parrish,
    M. C. Schieber, R. Galvelis, P. Kraus, H. Kruse, R. Di Remigio,
    A. Alenaizan, A. M. James, S. Lehtola, J. P. Misiewicz, M. Scheurer,
    R. A. Shaw, J. B. Schriber, Y. Xie, Z. L. Glick, D. A. Sirianni,
    J. S. O'Brien, J. M. Waldrop, A. Kumar, E. G. Hohenstein,
    B. P. Pritchard, B. R. Brooks, H. F. Schaefer III, A. Yu. Sokolov,
    K. Patkowski, A. E. DePrince III, U. Bozkaya, R. A. King,
    F. A. Evangelista, J. M. Turney, T. D. Crawford, C. D. Sherrill,
    J. Chem. Phys. 152(18) 184108 (2020). https://doi.org/10.1063/5.0006002

                            Additional Code Authors
    E. T. Seidl, C. L. Janssen, E. F. Valeev, M. L. Leininger,
    J. F. Gonthier, R. M. Richard, H. R. McAlexander, M. Saitow, X. Wang,
    P. Verma, and M. H. Lechner

             Previous Authors, Complete List of Code Contributors,
                       and Citations for Specific Modules
    https://github.com/psi4/psi4/blob/master/codemeta.json
    https://github.com/psi4/psi4/graphs/contributors
    http://psicode.org/psi4manual/master/introduction.html#citing-psifour

    -----------------------------------------------------------------------


    Psi4 started on: Tuesday, 26 January 2021 06:05PM

    Process ID: 401944
    Host:       n412-040.vsc4.prov
    PSIDATADIR: /home/fs71337/gallo4/psi4/eri-6/psi4/build/stage/share/psi4
    Memory:     500.0 MiB
    Threads:    48
    
  ==> Input File <==

--------------------------------------------------------------------------
# Any line starting with the # character is a comment line
memory 250000 mb
molecule molecule{
0 2
C          0.0000000000        0.0000000000       -0.0861964165
H          0.0000000000        0.0000000000        1.0271495913
}

set {
  reference uhf
  basis aug-cc-pV(t+d)Z
  scf_type OUT_OF_CORE
  freeze_core true
}

energy('ccsd(t)')
--------------------------------------------------------------------------

  Memory set to 232.831 GiB by Python driver.

Scratch directory: /binfl/lv71337/airmler/temp/

*** tstart() called on n412-040.vsc4.prov
*** at Tue Jan 26 18:05:37 2021

   => Loading Basis Set <=

    Name: AUG-CC-PV(T+D)Z
    Role: ORBITAL
    Keyword: BASIS
    atoms 1 entry C          line   267 file /home/fs71337/gallo4/psi4/eri-6/psi4/build/stage/share/psi4/basis/aug-cc-pv_tpd_z.gbs 
    atoms 2 entry H          line    68 file /home/fs71337/gallo4/psi4/eri-6/psi4/build/stage/share/psi4/basis/aug-cc-pv_tpd_z.gbs 


         ---------------------------------------------------------
                                   SCF
               by Justin Turney, Rob Parrish, Andy Simmonett
                          and Daniel G. A. Smith
                              UHF Reference
                       48 Threads, 238418 MiB Core
         ---------------------------------------------------------

  ==> Geometry <==

    Molecular point group: c2v
    Full point group: C_inf_v

    Geometry (in Angstrom), charge = 0, multiplicity = 2:

       Center              X                  Y                   Z               Mass       
    ------------   -----------------  -----------------  -----------------  -----------------
         C            0.000000000000     0.000000000000    -0.086260229778    12.000000000000
         H            0.000000000000     0.000000000000     1.027085778022     1.007825032230

  Running in c2v symmetry.

  Rotational constants: A = ************  B =     14.62765  C =     14.62765 [cm^-1]
  Rotational constants: A = ************  B = 438525.83728  C = 438525.83728 [MHz]
  Nuclear repulsion =    2.851820765310872

  Charge       = 0
  Multiplicity = 2
  Electrons    = 7
  Nalpha       = 4
  Nbeta        = 3

  ==> Algorithm <==

  SCF Algorithm Type is OUT_OF_CORE.
  DIIS enabled.
  MOM disabled.
  Fractional occupation disabled.
  Guess Type is SAD.
  Energy threshold   = 1.00e-08
  Density threshold  = 1.00e-08
  Integral threshold = 1.00e-12

  ==> Primary Basis <==

  Basis Set: AUG-CC-PV(T+D)Z
    Blend: AUG-CC-PV(T+D)Z
    Number of shells: 23
    Number of basis function: 69
    Number of Cartesian functions: 80
    Spherical Harmonics?: true
    Max angular momentum: 3

  ==> Integral Setup <==

  ==> DiskJK: Disk-Based J/K Matrices <==

    J tasked:                  Yes
    K tasked:                  Yes
    wK tasked:                  No
    Memory [MiB]:           178813
    Schwarz Cutoff:          1E-12

  Minimum eigenvalue in the overlap matrix is 2.0564797816E-04.
  Reciprocal condition number of the overlap matrix is 4.1150156824E-05.
    Using symmetric orthogonalization.

  ==> Pre-Iterations <==

  SCF Guess: Superposition of Atomic Densities via on-the-fly atomic UHF (no occupation information).


 WARNING: Atomic UHF is not converging! Try casting from a smaller basis or call Rob at CCMST.

 WARNING: Atomic UHF is not converging! Try casting from a smaller basis or call Rob at CCMST.
   -------------------------
    Irrep   Nso     Nmo    
   -------------------------
     A1        30      30 
     A2         7       7 
     B1        16      16 
     B2        16      16 
   -------------------------
    Total      69      69
   -------------------------

  ==> Iterations <==

                        Total Energy        Delta E     RMS |[F,P]|

   @UHF iter SAD:   -35.61345065317987   -3.56135e+01   0.00000e+00 
   @UHF iter   1:   -38.20080372720099   -2.58735e+00   9.50729e-03 DIIS
   @UHF iter   2:   -38.27953647265581   -7.87327e-02   1.99357e-03 DIIS
   @UHF iter   3:   -38.28203089487069   -2.49442e-03   3.29163e-04 DIIS
   @UHF iter   4:   -38.28219995739739   -1.69063e-04   9.18064e-05 DIIS
   @UHF iter   5:   -38.28221693916944   -1.69818e-05   2.46292e-05 DIIS
   @UHF iter   6:   -38.28221847763949   -1.53847e-06   8.65632e-06 DIIS
   @UHF iter   7:   -38.28221874985281   -2.72213e-07   3.14030e-06 DIIS
   @UHF iter   8:   -38.28221879221188   -4.23591e-08   9.10418e-07 DIIS
   @UHF iter   9:   -38.28221879516185   -2.94997e-09   1.59389e-07 DIIS
   @UHF iter  10:   -38.28221879523166   -6.98108e-11   2.96080e-08 DIIS
   @UHF iter  11:   -38.28221879523397   -2.30926e-12   8.91371e-09 DIIS
  Energy and wave function converged.


  ==> Post-Iterations <==

   @Spin Contamination Metric:   9.634253506E-03
   @S^2 Expected:                7.500000000E-01
   @S^2 Observed:                7.596342535E-01
   @S   Expected:                5.000000000E-01
   @S   Observed:                5.000000000E-01

    Orbital Energies [Eh]
    ---------------------

    Alpha Occupied:                                                       

       1A1   -11.326416     2A1    -0.881612     3A1    -0.473796  
       1B1    -0.425049  

    Alpha Virtual:                                                        

       1B2     0.019123     4A1     0.029320     2B1     0.094577  
       5A1     0.097704     2B2     0.121667     6A1     0.144122  
       7A1     0.228151     3B1     0.267935     3B2     0.271534  
       1A2     0.301989     8A1     0.302179     9A1     0.367142  
       4B1     0.381070     4B2     0.385849    10A1     0.400976  
       5B1     0.564913    11A1     0.570794     5B2     0.607179  
      12A1     0.670360     2A2     0.874071    13A1     0.874072  
       6B1     0.880233     6B2     0.884255    14A1     0.951727  
       3A2     1.063028    15A1     1.063703     7B1     1.080618  
       7B2     1.082808     8B1     1.084224     8B2     1.089246  
      16A1     1.095662    17A1     1.291347     9B2     1.303500  
       9B1     1.311309     4A2     1.332538    18A1     1.333560  
      19A1     1.540152    10B1     1.747089    10B2     1.753603  
      20A1     2.033660    11B1     2.654085    11B2     2.670439  
      21A1     2.854334    22A1     3.090896    12B1     3.219005  
      12B2     3.220176     5A2     3.353090    23A1     3.353188  
       6A2     3.418142    24A1     3.418267    13B1     3.438372  
      13B2     3.438374    25A1     3.554568    14B2     3.653539  
      14B1     3.661664    26A1     3.802549     7A2     4.165273  
      27A1     4.165408    15B2     4.587724    15B1     4.595204  
      16B2     5.064276    16B1     5.076395    28A1     5.187479  
      29A1     5.463289    30A1    11.591993  

    Beta Occupied:                                                        

       1A1   -11.303479     2A1    -0.787833     3A1    -0.435337  

    Beta Virtual:                                                         

       4A1     0.030491     1B2     0.030962     1B1     0.058301  
       5A1     0.098872     2B2     0.130423     6A1     0.149582  
       2B1     0.162955     7A1     0.232374     3B2     0.272229  
       3B1     0.284157     8A1     0.313298     1A2     0.313309  
       9A1     0.372330     4B2     0.386936     4B1     0.397654  
      10A1     0.409436    11A1     0.580145     5B2     0.618135  
       5B1     0.656602    12A1     0.680985     6B2     0.884660  
      13A1     0.887468     2A2     0.887478     6B1     0.901551  
      14A1     0.967594    15A1     1.089714     7B2     1.090500  
       7B1     1.099081     8B2     1.100440     3A2     1.105446  
       8B1     1.118383    16A1     1.122897    17A1     1.294651  
       9B2     1.303980     9B1     1.323790     4A2     1.345733  
      18A1     1.348148    19A1     1.555192    10B2     1.758248  
      10B1     1.788764    20A1     2.048450    11B2     2.681356  
      11B1     2.730657    21A1     2.862471    22A1     3.105716  
      12B2     3.227772    12B1     3.266988    23A1     3.379985  
       5A2     3.380475    24A1     3.473051     6A2     3.476318  
      13B2     3.478458    13B1     3.478563    25A1     3.579818  
      14B2     3.658686    14B1     3.699877    26A1     3.812239  
       7A2     4.174410    27A1     4.175217    15B2     4.585830  
      15B1     4.598085    16B2     5.066821    16B1     5.094654  
      28A1     5.194287    29A1     5.468734    30A1    11.608394  

    Final Occupation by Irrep:
             A1    A2    B1    B2 
    DOCC [     3,    0,    0,    0 ]
    SOCC [     0,    0,    1,    0 ]

  @UHF Final Energy:   -38.28221879523397

   => Energetics <=

    Nuclear Repulsion Energy =              2.8518207653108725
    One-Electron Energy =                 -56.6345573196915240
    Two-Electron Energy =                  15.5005177591466854
    Total Energy =                        -38.2822187952339590

  UHF NO Occupations:
  HONO-2 :    2 A1 1.9994649
  HONO-1 :    3 A1 1.9957101
  HONO-0 :    1 B1 1.0000000
  LUNO+0 :    4 A1 0.0042899
  LUNO+1 :    5 A1 0.0005351
  LUNO+2 :    6 A1 0.0000014
  LUNO+3 :    7 A1 0.0000000


Computation Completed


Properties will be evaluated at   0.000000,   0.000000,   0.000000 [a0]

Properties computed using the SCF density matrix

  Nuclear Dipole Moment: [e a0]
     X:     0.0000      Y:     0.0000      Z:     0.9629

  Electronic Dipole Moment: [e a0]
     X:     0.0000      Y:     0.0000      Z:    -0.3351

  Dipole Moment: [e a0]
     X:     0.0000      Y:     0.0000      Z:     0.6278     Total:     0.6278

  Dipole Moment: [D]
     X:     0.0000      Y:     0.0000      Z:     1.5957     Total:     1.5957


*** tstop() called on n412-040.vsc4.prov at Tue Jan 26 18:05:40 2021
Module time:
	user time   =      25.46 seconds =       0.42 minutes
	system time =       1.08 seconds =       0.02 minutes
	total time  =          3 seconds =       0.05 minutes
Total time:
	user time   =      25.46 seconds =       0.42 minutes
	system time =       1.08 seconds =       0.02 minutes
	total time  =          3 seconds =       0.05 minutes

*** tstart() called on n412-040.vsc4.prov
*** at Tue Jan 26 18:05:40 2021


	Wfn Parameters:
	--------------------
	Wavefunction         = CCSD_T
	Number of irreps     = 4
	Number of MOs        = 69
	Number of active MOs = 68
	AO-Basis             = NONE
	Semicanonical        = false
	Reference            = UHF
	Print Level          = 1

	IRREP	# MOs	# FZDC	# DOCC	# SOCC	# VIRT	# FZVR
	-----	-----	------	------	------	------	------
	 A1	   30	    1	    2	    0	    27	    0
	 A2	   7	    0	    0	    0	    7	    0
	 B1	   16	    0	    0	    1	    15	    0
	 B2	   16	    0	    0	    0	    16	    0
	Transforming integrals...
	IWL integrals will be deleted.
	(OO|OO)...
	Presorting SO-basis two-electron integrals.
	Sorting File: SO Ints (nn|nn) nbuckets = 1
	Constructing frozen core operators
	Starting AA/AB first half-transformation.
	Sorting AA/AB half-transformed integrals.
	Starting BB first half-transformation.
	Sorting BB half-transformed integrals.
	First half integral transformation complete.
	Starting AA second half-transformation.
	Starting AB second half-transformation.
	Starting BB second half-transformation.
	Two-electron integral transformation complete.
	(OO|OV)...
	Starting AA second half-transformation.
	Starting AB second half-transformation.
	Starting BB second half-transformation.
	Two-electron integral transformation complete.
	(OO|VV)...
	Starting AA second half-transformation.
	Starting AB second half-transformation.
	Starting BB second half-transformation.
	Two-electron integral transformation complete.
	(OV|OO)...
	Starting AA/AB first half-transformation.
	Sorting AA/AB half-transformed integrals.
	Starting BB first half-transformation.
	Sorting BB half-transformed integrals.
	First half integral transformation complete.
	Starting AA second half-transformation.
	Starting AB second half-transformation.
	Starting BB second half-transformation.
	Two-electron integral transformation complete.
	(OV|OV)...
	Starting AA second half-transformation.
	Starting AB second half-transformation.
	Starting BB second half-transformation.
	Two-electron integral transformation complete.
	(OV|VV)...
	Starting AA second half-transformation.
	Starting AB second half-transformation.
	Starting BB second half-transformation.
	Two-electron integral transformation complete.
	(VV|OO)...
	Starting AA/AB first half-transformation.
	Sorting AA/AB half-transformed integrals.
	Starting BB first half-transformation.
	Sorting BB half-transformed integrals.
	First half integral transformation complete.
	Starting AA second half-transformation.
	Starting AB second half-transformation.
	Starting BB second half-transformation.
	Two-electron integral transformation complete.
	(VV|OV)...
	Starting AA second half-transformation.
	Starting AB second half-transformation.
	Starting BB second half-transformation.
	Two-electron integral transformation complete.
	(VV|VV)...
	Starting AA second half-transformation.
	Starting AB second half-transformation.
	Starting BB second half-transformation.
	Two-electron integral transformation complete.
	Frozen core energy     =    -33.30997764169646

	Size of irrep 0 of <AB|CD> integrals:      0.356 (MW) /      2.851 (MB)
	Size of irrep 1 of <AB|CD> integrals:      0.184 (MW) /      1.472 (MB)
	Size of irrep 2 of <AB|CD> integrals:      0.267 (MW) /      2.138 (MB)
	Size of irrep 3 of <AB|CD> integrals:      0.288 (MW) /      2.307 (MB)
	Total:                                     1.096 (MW) /      8.769 (MB)

	Size of irrep 0 of <ab|cd> integrals:      0.375 (MW) /      2.996 (MB)
	Size of irrep 1 of <ab|cd> integrals:      0.198 (MW) /      1.584 (MB)
	Size of irrep 2 of <ab|cd> integrals:      0.296 (MW) /      2.367 (MB)
	Size of irrep 3 of <ab|cd> integrals:      0.296 (MW) /      2.367 (MB)
	Total:                                     1.164 (MW) /      9.316 (MB)

	Size of irrep 0 of <Ab|Cd> integrals:      1.623 (MW) /     12.985 (MB)
	Size of irrep 1 of <Ab|Cd> integrals:      0.764 (MW) /      6.111 (MB)
	Size of irrep 2 of <Ab|Cd> integrals:      1.126 (MW) /      9.006 (MB)
	Size of irrep 3 of <Ab|Cd> integrals:      1.169 (MW) /      9.348 (MB)
	Total:                                     4.681 (MW) /     37.450 (MB)

	Size of irrep 0 of <IA|BC> integrals:      0.087 (MW) /      0.695 (MB)
	Size of irrep 1 of <IA|BC> integrals:      0.026 (MW) /      0.206 (MB)
	Size of irrep 2 of <IA|BC> integrals:      0.059 (MW) /      0.472 (MB)
	Size of irrep 3 of <IA|BC> integrals:      0.042 (MW) /      0.335 (MB)
	Total:                                     0.213 (MW) /      1.707 (MB)

	Size of irrep 0 of <ia|bc> integrals:      0.070 (MW) /      0.557 (MB)
	Size of irrep 1 of <ia|bc> integrals:      0.012 (MW) /      0.100 (MB)
	Size of irrep 2 of <ia|bc> integrals:      0.035 (MW) /      0.279 (MB)
	Size of irrep 3 of <ia|bc> integrals:      0.035 (MW) /      0.279 (MB)
	Total:                                     0.152 (MW) /      1.214 (MB)

	Size of irrep 0 of <Ia|Bc> integrals:      0.089 (MW) /      0.713 (MB)
	Size of irrep 1 of <Ia|Bc> integrals:      0.026 (MW) /      0.210 (MB)
	Size of irrep 2 of <Ia|Bc> integrals:      0.063 (MW) /      0.501 (MB)
	Size of irrep 3 of <Ia|Bc> integrals:      0.042 (MW) /      0.337 (MB)
	Total:                                     0.220 (MW) /      1.761 (MB)

	Size of irrep 0 of <iA|bC> integrals:      0.069 (MW) /      0.550 (MB)
	Size of irrep 1 of <iA|bC> integrals:      0.012 (MW) /      0.098 (MB)
	Size of irrep 2 of <iA|bC> integrals:      0.032 (MW) /      0.255 (MB)
	Size of irrep 3 of <iA|bC> integrals:      0.035 (MW) /      0.277 (MB)
	Total:                                     0.147 (MW) /      1.180 (MB)

	Size of irrep 0 of tIjAb amplitudes:       0.005 (MW) /      0.041 (MB)
	Size of irrep 1 of tIjAb amplitudes:       0.000 (MW) /      0.000 (MB)
	Size of irrep 2 of tIjAb amplitudes:       0.002 (MW) /      0.017 (MB)
	Size of irrep 3 of tIjAb amplitudes:       0.000 (MW) /      0.000 (MB)
	Total:                                     0.007 (MW) /      0.058 (MB)

	Nuclear Rep. energy          =      2.85182076531087
	SCF energy                   =    -38.28221879523397
	One-electron energy          =    -12.64449692359804
	Two-electron (AA) energy     =      1.28992974305060
	Two-electron (BB) energy     =      0.38669093566556
	Two-electron (AB) energy     =      3.14381432603342
	Two-electron energy          =      4.82043500474958
	Reference energy             =    -38.28221879523404

*** tstop() called on n412-040.vsc4.prov at Tue Jan 26 18:05:44 2021
Module time:
	user time   =       0.68 seconds =       0.01 minutes
	system time =       0.52 seconds =       0.01 minutes
	total time  =          4 seconds =       0.07 minutes
Total time:
	user time   =      26.14 seconds =       0.44 minutes
	system time =       1.60 seconds =       0.03 minutes
	total time  =          7 seconds =       0.12 minutes
            **************************
            *                        *
            *        CCENERGY        *
            *                        *
            **************************

    Nuclear Rep. energy (wfn)     =    2.851820765310872
    SCF energy          (wfn)     =  -38.282218795233966
    Reference energy    (file100) =  -38.282218795234044

    Input parameters:
    -----------------
    Wave function   =     CCSD_T
    Reference wfn   =     UHF
    Brueckner       =     No
    Memory (Mbytes) =     250000.0
    Maxiter         =     50
    R_Convergence   =     1.0e-07
    E_Convergence   =     1.0e-06
    Restart         =     Yes
    DIIS            =     Yes
    AO Basis        =     NONE
    ABCD            =     NEW
    Cache Level     =     2
    Cache Type      =     LRU
    Print Level     =     1
    Num. of threads =     48
    # Amps to Print =     10
    Print MP2 Amps? =     No
    Analyze T2 Amps =     No
    Print Pair Ener =     No
    Local CC        =     No
    SCS-MP2         =     False
    SCSN-MP2        =     False
    SCS-CCSD        =     False

MP2 correlation energy -0.1027814242636085
                Solving CC Amplitude Equations
                ------------------------------
  Iter             Energy              RMS        T1Diag      D1Diag    New D1Diag    D2Diag
  ----     ---------------------    ---------   ----------  ----------  ----------   --------
     0        -0.102781424263608    0.000e+00    0.000000    0.000000    0.000000    0.000000
     1        -0.118699706434966    5.051e-02    0.008450    0.000000    0.000000    0.000000
     2        -0.126235298914056    2.408e-02    0.014686    0.000000    0.000000    0.000000
     3        -0.126981128048896    8.306e-03    0.016956    0.000000    0.000000    0.000000
     4        -0.127055516563909    2.920e-03    0.017166    0.000000    0.000000    0.000000
     5        -0.127070197503416    1.349e-03    0.017099    0.000000    0.000000    0.000000
     6        -0.127072517622865    5.002e-04    0.017010    0.000000    0.000000    0.000000
     7        -0.127077396159436    1.601e-04    0.016987    0.000000    0.000000    0.000000
     8        -0.127077007713991    4.783e-05    0.016986    0.000000    0.000000    0.000000
     9        -0.127076329455720    1.509e-05    0.016987    0.000000    0.000000    0.000000
    10        -0.127076377219922    5.334e-06    0.016987    0.000000    0.000000    0.000000
    11        -0.127076366308234    2.042e-06    0.016987    0.000000    0.000000    0.000000
    12        -0.127076395683807    7.888e-07    0.016987    0.000000    0.000000    0.000000
    13        -0.127076392497942    2.730e-07    0.016987    0.000000    0.000000    0.000000
    14        -0.127076389267044    1.016e-07    0.016987    0.000000    0.000000    0.000000
    15        -0.127076388573023    4.116e-08    0.016987    0.000000    0.000000    0.000000

    Iterations converged.


    Largest TIA Amplitudes:
              2  34        -0.0110557399
              2  35        -0.0097937972
              1  11         0.0089402358
              1   4         0.0088716101
              0  11        -0.0078896080
              0   4        -0.0070028897
              2  37        -0.0048454960
              0   9         0.0045889748
              1   7        -0.0038690027
              1   9        -0.0036154300

    Largest Tia Amplitudes:
              0   6        -0.0099210960
              0   3         0.0097228047
              1   7        -0.0096400468
              0   8         0.0094811965
              1   3        -0.0086716542
              1   6         0.0072894686
              1   5         0.0060939781
              1   2         0.0059770077
              1  15         0.0053990310
              0  10        -0.0050780055

    Largest TIJAB Amplitudes:
      2   1  37   8        -0.0139820310
      2   1  35   8        -0.0124986771
      2   1  37   7         0.0121307680
      2   1  35   3        -0.0117712338
      2   1  38   8        -0.0112364348
      2   1  37   3        -0.0111850191
      2   1  39   8        -0.0089829551
      2   1  37   1         0.0089250811
      2   0  37  10         0.0085971174
      2   1  38   3        -0.0084916488

    Largest Tijab Amplitudes:
      1   0  39  35         0.0075769808
      1   0  41  35         0.0069849350
      1   0  55  50         0.0068427941
      1   0  36  35         0.0066905236
      1   0  52  50         0.0059285446
      1   0   7   6        -0.0059254570
      1   0  55  51         0.0057471829
      1   0  39  34         0.0055721778
      1   0  36  34         0.0050338250
      1   0  41  34         0.0050332158

    Largest TIjAb Amplitudes:
      1   1  49  50        -0.0622931801
      1   1  49  51        -0.0477845451
      1   1   8   8        -0.0402851339
      1   1  50  50        -0.0395027296
      0   0  49  50        -0.0383856767
      0   0  49  51        -0.0332220446
      0   1  49  50         0.0303067352
      1   1  50  51        -0.0302923375
      1   1   3   8        -0.0281023214
      0   0  50  50        -0.0272734248

    SCF energy       (wfn)                    =  -38.282218795233966
    Reference energy (file100)                =  -38.282218795234044

    Opposite-spin MP2 correlation energy      =   -0.087808801476992
    Same-spin MP2 correlation energy          =   -0.014972622786617
    Singles MP2 correlation energy            =   -0.000000000000000
    MP2 correlation energy                    =   -0.102781424263608
      * MP2 total energy                      =  -38.385000219497655

    Opposite-spin CCSD correlation energy     =   -0.111325432524844
    Same-spin CCSD correlation energy         =   -0.015750956048178
    Singles CCSD correlation energy           =   -0.000000000000000
    CCSD correlation energy                   =   -0.127076388573023
      * CCSD total energy                     =  -38.409295183807068

            **************************
            *                        *
            *        CCTRIPLES       *
            *                        *
            **************************


    Wave function   =    CCSD_T
    Reference wfn   =      UHF

    Nuclear Rep. energy (wfn)                =    2.851820765310872
    SCF energy          (wfn)                =  -38.282218795233966
    Reference energy    (file100)            =  -38.282218795234044
    CCSD energy         (file100)            =   -0.127076388573023
    Total CCSD energy   (file100)            =  -38.409295183807068

    Number of ijk index combinations:
    Spin Case AAA:                                   1
    Spin Case BBB:                                   0
    Spin Case AAB:                                   6
    Spin Case ABB:                                   3
    AAA (T) energy                             =   -0.000049514867780
    BBB (T) energy                             =    0.000000000000000
    AAB (T) energy                             =   -0.002488259997854
    ABB (T) energy                             =   -0.000945467441021
    (T) energy                                   =   -0.003483242306655
      * CCSD(T) total energy                     =  -38.412778426113725


    Psi4 stopped on: Tuesday, 26 January 2021 06:05PM
    Psi4 wall time for execution: 0:00:12.44

*** Psi4 exiting successfully. Buy a developer a beer!
