
    -----------------------------------------------------------------------
          Psi4: An Open-Source Ab Initio Electronic Structure Package
                               Psi4 1.4a3.dev88 

                         Git: Rev {master} 262e345 


    D. G. A. Smith, L. A. Burns, A. C. Simmonett, R. M. Parrish,
    M. C. Schieber, R. Galvelis, P. Kraus, H. Kruse, R. Di Remigio,
    A. Alenaizan, A. M. James, S. Lehtola, J. P. Misiewicz, M. Scheurer,
    R. A. Shaw, J. B. Schriber, Y. Xie, Z. L. Glick, D. A. Sirianni,
    J. S. O'Brien, J. M. Waldrop, A. Kumar, E. G. Hohenstein,
    B. P. Pritchard, B. R. Brooks, H. F. Schaefer III, A. Yu. Sokolov,
    K. Patkowski, A. E. DePrince III, U. Bozkaya, R. A. King,
    F. A. Evangelista, J. M. Turney, T. D. Crawford, C. D. Sherrill,
    J. Chem. Phys. 152(18) 184108 (2020). https://doi.org/10.1063/5.0006002

                            Additional Code Authors
    E. T. Seidl, C. L. Janssen, E. F. Valeev, M. L. Leininger,
    J. F. Gonthier, R. M. Richard, H. R. McAlexander, M. Saitow, X. Wang,
    P. Verma, and M. H. Lechner

             Previous Authors, Complete List of Code Contributors,
                       and Citations for Specific Modules
    https://github.com/psi4/psi4/blob/master/codemeta.json
    https://github.com/psi4/psi4/graphs/contributors
    http://psicode.org/psi4manual/master/introduction.html#citing-psifour

    -----------------------------------------------------------------------


    Psi4 started on: Wednesday, 20 January 2021 06:15PM

    Process ID: 172622
    Host:       n412-037.vsc4.prov
    PSIDATADIR: /home/fs71337/gallo4/psi4/psi4/build/stage/share/psi4
    Memory:     500.0 MiB
    Threads:    48
    
  ==> Input File <==

--------------------------------------------------------------------------
# Any line starting with the # character is a comment line
memory 250000 mb
molecule molecule{
0 2
C          0.0000000000        0.0000000000       -0.0861964165
H          0.0000000000        0.0000000000        1.0271495913
}

set {
  reference uhf
  basis aug-cc-pv(q+d)z
  scf_type OUT_OF_CORE
  freeze_core true
}

energy('ccsd(t)')
--------------------------------------------------------------------------

  Memory set to 232.831 GiB by Python driver.

Scratch directory: /binfl/lv71337/airmler/temp/

*** tstart() called on n412-037.vsc4.prov
*** at Wed Jan 20 18:15:43 2021

   => Loading Basis Set <=

    Name: AUG-CC-PV(Q+D)Z
    Role: ORBITAL
    Keyword: BASIS
    atoms 1 entry C          line   331 file /home/fs71337/gallo4/psi4/psi4/build/stage/share/psi4/basis/aug-cc-pv_qpd_z.gbs 
    atoms 2 entry H          line    68 file /home/fs71337/gallo4/psi4/psi4/build/stage/share/psi4/basis/aug-cc-pv_qpd_z.gbs 


         ---------------------------------------------------------
                                   SCF
               by Justin Turney, Rob Parrish, Andy Simmonett
                          and Daniel G. A. Smith
                              UHF Reference
                       48 Threads, 238418 MiB Core
         ---------------------------------------------------------

  ==> Geometry <==

    Molecular point group: c2v
    Full point group: C_inf_v

    Geometry (in Angstrom), charge = 0, multiplicity = 2:

       Center              X                  Y                   Z               Mass       
    ------------   -----------------  -----------------  -----------------  -----------------
         C            0.000000000000     0.000000000000    -0.086260229778    12.000000000000
         H            0.000000000000     0.000000000000     1.027085778022     1.007825032230

  Running in c2v symmetry.

  Rotational constants: A = ************  B =     14.62765  C =     14.62765 [cm^-1]
  Rotational constants: A = ************  B = 438525.83728  C = 438525.83728 [MHz]
  Nuclear repulsion =    2.851820765310872

  Charge       = 0
  Multiplicity = 2
  Electrons    = 7
  Nalpha       = 4
  Nbeta        = 3

  ==> Algorithm <==

  SCF Algorithm Type is OUT_OF_CORE.
  DIIS enabled.
  MOM disabled.
  Fractional occupation disabled.
  Guess Type is SAD.
  Energy threshold   = 1.00e-08
  Density threshold  = 1.00e-08
  Integral threshold = 1.00e-12

  ==> Primary Basis <==

  Basis Set: AUG-CC-PV(Q+D)Z
    Blend: AUG-CC-PV(Q+D)Z
    Number of shells: 34
    Number of basis function: 126
    Number of Cartesian functions: 160
    Spherical Harmonics?: true
    Max angular momentum: 4

  ==> Integral Setup <==

  ==> DiskJK: Disk-Based J/K Matrices <==

    J tasked:                  Yes
    K tasked:                  Yes
    wK tasked:                  No
    Memory [MiB]:           178813
    Schwarz Cutoff:          1E-12

  Minimum eigenvalue in the overlap matrix is 6.5196245058E-05.
  Reciprocal condition number of the overlap matrix is 1.1394795632E-05.
    Using symmetric orthogonalization.

  ==> Pre-Iterations <==

  SCF Guess: Superposition of Atomic Densities via on-the-fly atomic UHF (no occupation information).


 WARNING: Atomic UHF is not converging! Try casting from a smaller basis or call Rob at CCMST.

 WARNING: Atomic UHF is not converging! Try casting from a smaller basis or call Rob at CCMST.
   -------------------------
    Irrep   Nso     Nmo    
   -------------------------
     A1        50      50 
     A2        16      16 
     B1        30      30 
     B2        30      30 
   -------------------------
    Total     126     126
   -------------------------

  ==> Iterations <==

                        Total Energy        Delta E     RMS |[F,P]|

   @UHF iter SAD:    -5.62301614443674   -5.62302e+00   0.00000e+00 
   @UHF iter   1:   -38.22382265753853   -3.26008e+01   6.58505e-03 DIIS
   @UHF iter   2:   -38.28101977901939   -5.71971e-02   9.48865e-04 DIIS
   @UHF iter   3:   -38.28366552828565   -2.64575e-03   2.59908e-04 DIIS
   @UHF iter   4:   -38.28401514769663   -3.49619e-04   7.60730e-05 DIIS
   @UHF iter   5:   -38.28404976539132   -3.46177e-05   2.27165e-05 DIIS
   @UHF iter   6:   -38.28405367975161   -3.91436e-06   8.02180e-06 DIIS
   @UHF iter   7:   -38.28405429788000   -6.18128e-07   3.20481e-06 DIIS
   @UHF iter   8:   -38.28405443639027   -1.38510e-07   9.18167e-07 DIIS
   @UHF iter   9:   -38.28405444677998   -1.03897e-08   1.83754e-07 DIIS
   @UHF iter  10:   -38.28405444711422   -3.34239e-10   5.61347e-08 DIIS
   @UHF iter  11:   -38.28405444714388   -2.96652e-11   1.05307e-08 DIIS
   @UHF iter  12:   -38.28405444714490   -1.01608e-12   2.79105e-09 DIIS
  Energy and wave function converged.


  ==> Post-Iterations <==

   @Spin Contamination Metric:   9.696739163E-03
   @S^2 Expected:                7.500000000E-01
   @S^2 Observed:                7.596967392E-01
   @S   Expected:                5.000000000E-01
   @S   Observed:                5.000000000E-01

    Orbital Energies [Eh]
    ---------------------

    Alpha Occupied:                                                       

       1A1   -11.325432     2A1    -0.881288     3A1    -0.473855  
       1B2    -0.425327  

    Alpha Virtual:                                                        

       1B1     0.018451     4A1     0.026233     2B2     0.080717  
       5A1     0.083140     2B1     0.103786     6A1     0.127388  
       7A1     0.194515     3B2     0.218244     3B1     0.219351  
       1A2     0.233401     8A1     0.233605     9A1     0.283688  
       4B2     0.288884     4B1     0.294317    10A1     0.340913  
      11A1     0.426866     5B2     0.447753     5B1     0.484200  
      12A1     0.552160     6B2     0.627950     6B1     0.631064  
       2A2     0.660872    13A1     0.660872    14A1     0.743679  
       7B2     0.755942     7B1     0.755960    15A1     0.773866  
       3A2     0.780430    16A1     0.782000     8B2     0.834263  
       8B1     0.835488    17A1     0.892311     4A2     0.920863  
       9B1     0.921071    18A1     0.922015     9B2     0.925656  
      19A1     1.084011    10B2     1.262413    10B1     1.276487  
      20A1     1.443849    11B2     1.661165    11B1     1.661232  
      12B2     1.680045    12B1     1.687708    21A1     1.704418  
      22A1     1.918332     5A2     1.932115    23A1     1.933100  
      13B1     1.972668    13B2     1.973881    24A1     2.118653  
       6A2     2.119191    25A1     2.119288     7A2     2.132271  
      26A1     2.132599    14B2     2.178135    14B1     2.181839  
       8A2     2.258833    27A1     2.259143    15B1     2.269130  
      15B2     2.269141    28A1     2.294152    16B1     2.378225  
      16B2     2.391488    29A1     2.411900    17B1     2.413793  
      17B2     2.414061     9A2     2.420992    30A1     2.429289  
      18B1     2.654155    18B2     2.661282    31A1     2.923826  
      32A1     3.228350    19B1     3.484076    19B2     3.496227  
      10A2     3.547016    33A1     3.547343    34A1     3.998666  
      20B1     4.130235    20B2     4.140462    35A1     4.154058  
      36A1     5.858993    11A2     5.860451    21B1     5.861364  
      21B2     5.869424    22B1     5.901118    22B2     5.901249  
      37A1     5.927822    12A2     5.927857    38A1     5.961994  
      23B1     6.210075    23B2     6.222882    24B1     6.243276  
      24B2     6.262155    39A1     6.379170    13A2     6.379468  
      25B1     6.471235    25B2     6.471260    40A1     6.483171  
      14A2     6.574358    41A1     6.576369    42A1     6.732046  
      26B1     6.783442    26B2     6.783443    43A1     7.238484  
      27B1     7.318303    27B2     7.332752    15A2     7.679564  
      44A1     7.679620    28B1     8.241959    28B2     8.250400  
      45A1     8.311004    46A1     8.941870    16A2     8.941946  
      47A1     9.152817    29B1     9.330971    29B2     9.340512  
      30B1    10.004430    30B2    10.019275    48A1    10.375483  
      49A1    12.122947    50A1    23.145435  

    Beta Occupied:                                                        

       1A1   -11.302303     2A1    -0.787516     3A1    -0.435455  

    Beta Virtual:                                                         

       4A1     0.027253     1B1     0.029583     1B2     0.053895  
       5A1     0.084013     2B1     0.111962     6A1     0.131783  
       2B2     0.143187     7A1     0.197032     3B1     0.219669  
       3B2     0.228709     1A2     0.239419     8A1     0.240010  
       9A1     0.285138     4B1     0.295766     4B2     0.304008  
      10A1     0.349842    11A1     0.432730     5B1     0.493367  
       5B2     0.526290    12A1     0.562735     6B1     0.631140  
       6B2     0.644705     2A2     0.671198    13A1     0.671686  
      14A1     0.754882     7B1     0.764324     7B2     0.764365  
      15A1     0.779313     3A2     0.804279    16A1     0.808904  
       8B1     0.835841     8B2     0.854616    17A1     0.895169  
       9B1     0.922463     4A2     0.933822    18A1     0.935259  
       9B2     0.938607    19A1     1.093969    10B1     1.280633  
      10B2     1.304807    20A1     1.452823    11B1     1.665676  
      11B2     1.665803    12B1     1.692895    21A1     1.707547  
      12B2     1.720977    22A1     1.923831     5A2     1.936978  
      23A1     1.937965    13B1     1.978138    13B2     2.012297  
      24A1     2.133003     6A2     2.133031    25A1     2.135883  
       7A2     2.157744    26A1     2.158412    14B1     2.187365  
      14B2     2.219369    27A1     2.289531    15B1     2.295154  
      15B2     2.295403     8A2     2.300077    28A1     2.319517  
      16B1     2.379226    16B2     2.405614    29A1     2.413823  
      17B1     2.425373    17B2     2.425730     9A2     2.434585  
      30A1     2.450940    18B1     2.655861    18B2     2.680935  
      31A1     2.939087    32A1     3.236425    19B1     3.484416  
      19B2     3.504335    10A2     3.555489    33A1     3.556367  
      34A1     4.004046    20B1     4.134032    35A1     4.164097  
      20B2     4.164566    21B1     5.868691    36A1     5.870933  
      11A2     5.874714    21B2     5.909401    22B1     5.918746  
      22B2     5.926367    37A1     5.954453    12A2     5.954720  
      38A1     5.975353    23B1     6.215688    24B1     6.247990  
      23B2     6.252574    24B2     6.292149    39A1     6.415857  
      13A2     6.417480    40A1     6.497898    25B1     6.510956  
      25B2     6.511268    14A2     6.604849    41A1     6.612605  
      42A1     6.742536    26B1     6.788418    26B2     6.788424  
      43A1     7.243188    27B1     7.324827    27B2     7.366210  
      15A2     7.686240    44A1     7.686486    28B1     8.240985  
      28B2     8.253717    45A1     8.312753    46A1     8.942407  
      16A2     8.942519    47A1     9.156244    29B1     9.330185  
      29B2     9.343330    30B1    10.005959    30B2    10.029874  
      48A1    10.377456    49A1    12.125390    50A1    23.160342  

    Final Occupation by Irrep:
             A1    A2    B1    B2 
    DOCC [     3,    0,    0,    0 ]
    SOCC [     0,    0,    0,    1 ]

  @UHF Final Energy:   -38.28405444714490

   => Energetics <=

    Nuclear Repulsion Energy =              2.8518207653108725
    One-Electron Energy =                 -56.6405736428324502
    Two-Electron Energy =                  15.5046984303766813
    Total Energy =                        -38.2840544471448965

  UHF NO Occupations:
  HONO-2 :    2 A1 1.9994645
  HONO-1 :    3 A1 1.9956794
  HONO-0 :    1 B2 1.0000000
  LUNO+0 :    4 A1 0.0043206
  LUNO+1 :    5 A1 0.0005355
  LUNO+2 :    6 A1 0.0000017
  LUNO+3 :    7 A1 0.0000000


Computation Completed


Properties will be evaluated at   0.000000,   0.000000,   0.000000 [a0]

Properties computed using the SCF density matrix

  Nuclear Dipole Moment: [e a0]
     X:     0.0000      Y:     0.0000      Z:     0.9629

  Electronic Dipole Moment: [e a0]
     X:     0.0000      Y:     0.0000      Z:    -0.3364

  Dipole Moment: [e a0]
     X:     0.0000      Y:     0.0000      Z:     0.6265     Total:     0.6265

  Dipole Moment: [D]
     X:     0.0000      Y:     0.0000      Z:     1.5924     Total:     1.5924


*** tstop() called on n412-037.vsc4.prov at Wed Jan 20 18:15:53 2021
Module time:
	user time   =      46.19 seconds =       0.77 minutes
	system time =       1.59 seconds =       0.03 minutes
	total time  =         10 seconds =       0.17 minutes
Total time:
	user time   =      46.19 seconds =       0.77 minutes
	system time =       1.59 seconds =       0.03 minutes
	total time  =         10 seconds =       0.17 minutes

*** tstart() called on n412-037.vsc4.prov
*** at Wed Jan 20 18:15:53 2021


	Wfn Parameters:
	--------------------
	Wavefunction         = CCSD_T
	Number of irreps     = 4
	Number of MOs        = 126
	Number of active MOs = 125
	AO-Basis             = NONE
	Semicanonical        = false
	Reference            = UHF
	Print Level          = 1

	IRREP	# MOs	# FZDC	# DOCC	# SOCC	# VIRT	# FZVR
	-----	-----	------	------	------	------	------
	 A1	   50	    1	    2	    0	    47	    0
	 A2	   16	    0	    0	    0	    16	    0
	 B1	   30	    0	    0	    0	    30	    0
	 B2	   30	    0	    0	    1	    29	    0
	Transforming integrals...
	IWL integrals will be deleted.
	(OO|OO)...
	Presorting SO-basis two-electron integrals.
	Sorting File: SO Ints (nn|nn) nbuckets = 1
	Constructing frozen core operators
	Starting AA/AB first half-transformation.
	Sorting AA/AB half-transformed integrals.
	Starting BB first half-transformation.
	Sorting BB half-transformed integrals.
	First half integral transformation complete.
	Starting AA second half-transformation.
	Starting AB second half-transformation.
	Starting BB second half-transformation.
	Two-electron integral transformation complete.
	(OO|OV)...
	Starting AA second half-transformation.
	Starting AB second half-transformation.
	Starting BB second half-transformation.
	Two-electron integral transformation complete.
	(OO|VV)...
	Starting AA second half-transformation.
	Starting AB second half-transformation.
	Starting BB second half-transformation.
	Two-electron integral transformation complete.
	(OV|OO)...
	Starting AA/AB first half-transformation.
	Sorting AA/AB half-transformed integrals.
	Starting BB first half-transformation.
	Sorting BB half-transformed integrals.
	First half integral transformation complete.
	Starting AA second half-transformation.
	Starting AB second half-transformation.
	Starting BB second half-transformation.
	Two-electron integral transformation complete.
	(OV|OV)...
	Starting AA second half-transformation.
	Starting AB second half-transformation.
	Starting BB second half-transformation.
	Two-electron integral transformation complete.
	(OV|VV)...
	Starting AA second half-transformation.
	Starting AB second half-transformation.
	Starting BB second half-transformation.
	Two-electron integral transformation complete.
	(VV|OO)...
	Starting AA/AB first half-transformation.
	Sorting AA/AB half-transformed integrals.
	Starting BB first half-transformation.
	Sorting BB half-transformed integrals.
	First half integral transformation complete.
	Starting AA second half-transformation.
	Starting AB second half-transformation.
	Starting BB second half-transformation.
	Two-electron integral transformation complete.
	(VV|OV)...
	Starting AA second half-transformation.
	Starting AB second half-transformation.
	Starting BB second half-transformation.
	Two-electron integral transformation complete.
	(VV|VV)...
	Starting AA second half-transformation.
	Starting AB second half-transformation.
	Starting BB second half-transformation.
	Two-electron integral transformation complete.
	Frozen core energy     =    -33.31070149735936

	Size of irrep 0 of <AB|CD> integrals:      4.170 (MW) /     33.358 (MB)
	Size of irrep 1 of <AB|CD> integrals:      2.631 (MW) /     21.047 (MB)
	Size of irrep 2 of <AB|CD> integrals:      3.512 (MW) /     28.095 (MB)
	Size of irrep 3 of <AB|CD> integrals:      3.397 (MW) /     27.173 (MB)
	Total:                                    13.709 (MW) /    109.673 (MB)

	Size of irrep 0 of <ab|cd> integrals:      4.289 (MW) /     34.312 (MB)
	Size of irrep 1 of <ab|cd> integrals:      2.729 (MW) /     21.833 (MB)
	Size of irrep 2 of <ab|cd> integrals:      3.572 (MW) /     28.577 (MB)
	Size of irrep 3 of <ab|cd> integrals:      3.572 (MW) /     28.577 (MB)
	Total:                                    14.162 (MW) /    113.299 (MB)

	Size of irrep 0 of <Ab|Cd> integrals:     17.935 (MW) /    143.482 (MB)
	Size of irrep 1 of <Ab|Cd> integrals:     10.719 (MW) /     85.753 (MB)
	Size of irrep 2 of <Ab|Cd> integrals:     14.168 (MW) /    113.342 (MB)
	Size of irrep 3 of <Ab|Cd> integrals:     13.935 (MW) /    111.482 (MB)
	Total:                                    56.757 (MW) /    454.058 (MB)

	Size of irrep 0 of <IA|BC> integrals:      0.517 (MW) /      4.139 (MB)
	Size of irrep 1 of <IA|BC> integrals:      0.201 (MW) /      1.609 (MB)
	Size of irrep 2 of <IA|BC> integrals:      0.285 (MW) /      2.279 (MB)
	Size of irrep 3 of <IA|BC> integrals:      0.387 (MW) /      3.096 (MB)
	Total:                                     1.390 (MW) /     11.123 (MB)

	Size of irrep 0 of <ia|bc> integrals:      0.401 (MW) /      3.207 (MB)
	Size of irrep 1 of <ia|bc> integrals:      0.106 (MW) /      0.846 (MB)
	Size of irrep 2 of <ia|bc> integrals:      0.227 (MW) /      1.814 (MB)
	Size of irrep 3 of <ia|bc> integrals:      0.227 (MW) /      1.814 (MB)
	Total:                                     0.960 (MW) /      7.682 (MB)

	Size of irrep 0 of <Ia|Bc> integrals:      0.525 (MW) /      4.201 (MB)
	Size of irrep 1 of <Ia|Bc> integrals:      0.203 (MW) /      1.624 (MB)
	Size of irrep 2 of <Ia|Bc> integrals:      0.286 (MW) /      2.289 (MB)
	Size of irrep 3 of <Ia|Bc> integrals:      0.399 (MW) /      3.195 (MB)
	Total:                                     1.414 (MW) /     11.309 (MB)

	Size of irrep 0 of <iA|bC> integrals:      0.398 (MW) /      3.185 (MB)
	Size of irrep 1 of <iA|bC> integrals:      0.105 (MW) /      0.838 (MB)
	Size of irrep 2 of <iA|bC> integrals:      0.226 (MW) /      1.807 (MB)
	Size of irrep 3 of <iA|bC> integrals:      0.217 (MW) /      1.732 (MB)
	Total:                                     0.945 (MW) /      7.562 (MB)

	Size of irrep 0 of tIjAb amplitudes:       0.017 (MW) /      0.136 (MB)
	Size of irrep 1 of tIjAb amplitudes:       0.000 (MW) /      0.000 (MB)
	Size of irrep 2 of tIjAb amplitudes:       0.000 (MW) /      0.000 (MB)
	Size of irrep 3 of tIjAb amplitudes:       0.007 (MW) /      0.060 (MB)
	Total:                                     0.024 (MW) /      0.195 (MB)

	Nuclear Rep. energy          =      2.85182076531087
	SCF energy                   =    -38.28405444714490
	One-electron energy          =    -12.64690579819539
	Two-electron (AA) energy     =      1.29044130202262
	Two-electron (BB) energy     =      0.38671550110272
	Two-electron (AB) energy     =      3.14457527997359
	Two-electron energy          =      4.82173208309893
	Reference energy             =    -38.28405444714494

*** tstop() called on n412-037.vsc4.prov at Wed Jan 20 18:16:18 2021
Module time:
	user time   =       7.48 seconds =       0.12 minutes
	system time =       3.26 seconds =       0.05 minutes
	total time  =         25 seconds =       0.42 minutes
Total time:
	user time   =      53.67 seconds =       0.89 minutes
	system time =       4.85 seconds =       0.08 minutes
	total time  =         35 seconds =       0.58 minutes
            **************************
            *                        *
            *        CCENERGY        *
            *                        *
            **************************

    Nuclear Rep. energy (wfn)     =    2.851820765310872
    SCF energy          (wfn)     =  -38.284054447144896
    Reference energy    (file100) =  -38.284054447144939

    Input parameters:
    -----------------
    Wave function   =     CCSD_T
    Reference wfn   =     UHF
    Brueckner       =     No
    Memory (Mbytes) =     250000.0
    Maxiter         =     50
    R_Convergence   =     1.0e-07
    E_Convergence   =     1.0e-06
    Restart         =     Yes
    DIIS            =     Yes
    AO Basis        =     NONE
    ABCD            =     NEW
    Cache Level     =     2
    Cache Type      =     LRU
    Print Level     =     1
    Num. of threads =     48
    # Amps to Print =     10
    Print MP2 Amps? =     No
    Analyze T2 Amps =     No
    Print Pair Ener =     No
    Local CC        =     No
    SCS-MP2         =     False
    SCSN-MP2        =     False
    SCS-CCSD        =     False

MP2 correlation energy -0.1093345157486939
                Solving CC Amplitude Equations
                ------------------------------
  Iter             Energy              RMS        T1Diag      D1Diag    New D1Diag    D2Diag
  ----     ---------------------    ---------   ----------  ----------  ----------   --------
     0        -0.109334515748694    0.000e+00    0.000000    0.000000    0.000000    0.000000
     1        -0.123538611732058    4.951e-02    0.008892    0.000000    0.000000    0.000000
     2        -0.130984367452290    2.381e-02    0.014906    0.000000    0.000000    0.000000
     3        -0.131658900906518    8.202e-03    0.017084    0.000000    0.000000    0.000000
     4        -0.131758293074725    3.065e-03    0.017351    0.000000    0.000000    0.000000
     5        -0.131777146801992    1.374e-03    0.017290    0.000000    0.000000    0.000000
     6        -0.131775685626018    5.256e-04    0.017207    0.000000    0.000000    0.000000
     7        -0.131781463306960    1.855e-04    0.017177    0.000000    0.000000    0.000000
     8        -0.131781657438074    5.055e-05    0.017177    0.000000    0.000000    0.000000
     9        -0.131780750933247    1.683e-05    0.017177    0.000000    0.000000    0.000000
    10        -0.131780810931500    6.220e-06    0.017177    0.000000    0.000000    0.000000
    11        -0.131780821214654    2.424e-06    0.017178    0.000000    0.000000    0.000000
    12        -0.131780878707924    8.789e-07    0.017178    0.000000    0.000000    0.000000
    13        -0.131780891336850    3.200e-07    0.017178    0.000000    0.000000    0.000000
    14        -0.131780892645916    1.300e-07    0.017178    0.000000    0.000000    0.000000
    15        -0.131780892228907    5.840e-08    0.017178    0.000000    0.000000    0.000000

    Iterations converged.


    Largest TIA Amplitudes:
              2  93        -0.0094267927
              1  12        -0.0090495505
              2  94        -0.0086449603
              0  12         0.0072818579
              1   4         0.0070603117
              2  96        -0.0057081653
              0   4        -0.0053497871
              0   9         0.0048948138
              2  97         0.0045486931
              1   9        -0.0043632926

    Largest Tia Amplitudes:
              0   6        -0.0109244461
              1   7        -0.0105615566
              0   8        -0.0091682870
              0  10        -0.0084939212
              0   3         0.0073453312
              1  15         0.0070950764
              1   6         0.0068766848
              0  16         0.0059614551
              1   2         0.0058938978
              1   3        -0.0058889588

    Largest TIJAB Amplitudes:
      2   1  96   8         0.0128441829
      2   1  97   8        -0.0119422463
      2   1  94   8         0.0107324945
      2   1  96   7         0.0099944322
      2   1  96  15        -0.0090422255
      2   1  99   8         0.0088435164
      2   1  96   3        -0.0087601944
      2   0  96   6         0.0084413629
      2   1 101   8         0.0079454228
      2   1  94   3        -0.0077386148

    Largest Tijab Amplitudes:
      1   0  98  94        -0.0077493587
      1   0  68  63        -0.0067583971
      1   0   7   6        -0.0060882660
      1   0  68  64        -0.0057479775
      1   0  95  94         0.0053183987
      1   0  98  93        -0.0052762844
      1   0 100  94         0.0051988611
      1   0  15   6         0.0047946089
      1   0 101  94         0.0047148331
      1   0 106  94         0.0046185295

    Largest TIjAb Amplitudes:
      1   1  63  63        -0.0583040337
      1   1  63  64        -0.0469031708
      1   1   8   8        -0.0385099832
      1   1  64  63        -0.0377500492
      0   0  63  63        -0.0359719265
      0   0  63  64        -0.0318952243
      1   1  64  64        -0.0303760064
      0   1  63  63         0.0283354778
      0   0  64  63        -0.0255281486
      1   1  63  67        -0.0247240062

    SCF energy       (wfn)                    =  -38.284054447144896
    Reference energy (file100)                =  -38.284054447144939

    Opposite-spin MP2 correlation energy      =   -0.093759891488738
    Same-spin MP2 correlation energy          =   -0.015574624259956
    Singles MP2 correlation energy            =   -0.000000000000000
    MP2 correlation energy                    =   -0.109334515748694
      * MP2 total energy                      =  -38.393388962893631

    Opposite-spin CCSD correlation energy     =   -0.115510743993055
    Same-spin CCSD correlation energy         =   -0.016270148235852
    Singles CCSD correlation energy           =   -0.000000000000000
    CCSD correlation energy                   =   -0.131780892228907
      * CCSD total energy                     =  -38.415835339373849

            **************************
            *                        *
            *        CCTRIPLES       *
            *                        *
            **************************


    Wave function   =    CCSD_T
    Reference wfn   =      UHF

    Nuclear Rep. energy (wfn)                =    2.851820765310872
    SCF energy          (wfn)                =  -38.284054447144896
    Reference energy    (file100)            =  -38.284054447144939
    CCSD energy         (file100)            =   -0.131780892228907
    Total CCSD energy   (file100)            =  -38.415835339373849

    Number of ijk index combinations:
    Spin Case AAA:                                   1
    Spin Case BBB:                                   0
    Spin Case AAB:                                   6
    Spin Case ABB:                                   3
    AAA (T) energy                             =   -0.000055047680810
    BBB (T) energy                             =    0.000000000000000
    AAB (T) energy                             =   -0.002696898173789
    ABB (T) energy                             =   -0.001010467548533
    (T) energy                                   =   -0.003762413403131
      * CCSD(T) total energy                     =  -38.419597752776980


    Psi4 stopped on: Wednesday, 20 January 2021 06:16PM
    Psi4 wall time for execution: 0:01:01.08

*** Psi4 exiting successfully. Buy a developer a beer!
