
    -----------------------------------------------------------------------
          Psi4: An Open-Source Ab Initio Electronic Structure Package
                               Psi4 1.4a3.dev88 

                         Git: Rev {master} 262e345 


    D. G. A. Smith, L. A. Burns, A. C. Simmonett, R. M. Parrish,
    M. C. Schieber, R. Galvelis, P. Kraus, H. Kruse, R. Di Remigio,
    A. Alenaizan, A. M. James, S. Lehtola, J. P. Misiewicz, M. Scheurer,
    R. A. Shaw, J. B. Schriber, Y. Xie, Z. L. Glick, D. A. Sirianni,
    J. S. O'Brien, J. M. Waldrop, A. Kumar, E. G. Hohenstein,
    B. P. Pritchard, B. R. Brooks, H. F. Schaefer III, A. Yu. Sokolov,
    K. Patkowski, A. E. DePrince III, U. Bozkaya, R. A. King,
    F. A. Evangelista, J. M. Turney, T. D. Crawford, C. D. Sherrill,
    J. Chem. Phys. 152(18) 184108 (2020). https://doi.org/10.1063/5.0006002

                            Additional Code Authors
    E. T. Seidl, C. L. Janssen, E. F. Valeev, M. L. Leininger,
    J. F. Gonthier, R. M. Richard, H. R. McAlexander, M. Saitow, X. Wang,
    P. Verma, and M. H. Lechner

             Previous Authors, Complete List of Code Contributors,
                       and Citations for Specific Modules
    https://github.com/psi4/psi4/blob/master/codemeta.json
    https://github.com/psi4/psi4/graphs/contributors
    http://psicode.org/psi4manual/master/introduction.html#citing-psifour

    -----------------------------------------------------------------------


    Psi4 started on: Wednesday, 20 January 2021 10:14PM

    Process ID: 148295
    Host:       n412-041.vsc4.prov
    PSIDATADIR: /home/fs71337/gallo4/psi4/psi4/build/stage/share/psi4
    Memory:     500.0 MiB
    Threads:    48
    
  ==> Input File <==

--------------------------------------------------------------------------
# Any line starting with the # character is a comment line
memory 250000 mb
molecule molecule{
0 2
C          0.0000000000        0.0000000000       -0.0861964165
H          0.0000000000        0.0000000000        1.0271495913
}

set {
  reference uhf
  basis aug-cc-pv(5+d)z
  scf_type OUT_OF_CORE
  freeze_core true
}

energy('ccsd(t)')
--------------------------------------------------------------------------

  Memory set to 232.831 GiB by Python driver.

Scratch directory: /binfl/lv71337/airmler/temp/

*** tstart() called on n412-041.vsc4.prov
*** at Wed Jan 20 22:14:19 2021

   => Loading Basis Set <=

    Name: AUG-CC-PV(5+D)Z
    Role: ORBITAL
    Keyword: BASIS
    atoms 1 entry C          line   414 file /home/fs71337/gallo4/psi4/psi4/build/stage/share/psi4/basis/aug-cc-pv_5pd_z.gbs 
    atoms 2 entry H          line    69 file /home/fs71337/gallo4/psi4/psi4/build/stage/share/psi4/basis/aug-cc-pv_5pd_z.gbs 


         ---------------------------------------------------------
                                   SCF
               by Justin Turney, Rob Parrish, Andy Simmonett
                          and Daniel G. A. Smith
                              UHF Reference
                       48 Threads, 238418 MiB Core
         ---------------------------------------------------------

  ==> Geometry <==

    Molecular point group: c2v
    Full point group: C_inf_v

    Geometry (in Angstrom), charge = 0, multiplicity = 2:

       Center              X                  Y                   Z               Mass       
    ------------   -----------------  -----------------  -----------------  -----------------
         C            0.000000000000     0.000000000000    -0.086260229778    12.000000000000
         H            0.000000000000     0.000000000000     1.027085778022     1.007825032230

  Running in c2v symmetry.

  Rotational constants: A = ************  B =     14.62765  C =     14.62765 [cm^-1]
  Rotational constants: A = ************  B = 438525.83728  C = 438525.83728 [MHz]
  Nuclear repulsion =    2.851820765310872

  Charge       = 0
  Multiplicity = 2
  Electrons    = 7
  Nalpha       = 4
  Nbeta        = 3

  ==> Algorithm <==

  SCF Algorithm Type is OUT_OF_CORE.
  DIIS enabled.
  MOM disabled.
  Fractional occupation disabled.
  Guess Type is SAD.
  Energy threshold   = 1.00e-08
  Density threshold  = 1.00e-08
  Integral threshold = 1.00e-12

  ==> Primary Basis <==

  Basis Set: AUG-CC-PV(5+D)Z
    Blend: AUG-CC-PV(5+D)Z
    Number of shells: 47
    Number of basis function: 207
    Number of Cartesian functions: 287
    Spherical Harmonics?: true
    Max angular momentum: 5

  ==> Integral Setup <==

  ==> DiskJK: Disk-Based J/K Matrices <==

    J tasked:                  Yes
    K tasked:                  Yes
    wK tasked:                  No
    Memory [MiB]:           178813
    Schwarz Cutoff:          1E-12

  Minimum eigenvalue in the overlap matrix is 1.3531255389E-05.
  Reciprocal condition number of the overlap matrix is 2.0754986851E-06.
    Using symmetric orthogonalization.

  ==> Pre-Iterations <==

  SCF Guess: Superposition of Atomic Densities via on-the-fly atomic UHF (no occupation information).


 WARNING: Atomic UHF is not converging! Try casting from a smaller basis or call Rob at CCMST.

 WARNING: Atomic UHF is not converging! Try casting from a smaller basis or call Rob at CCMST.
   -------------------------
    Irrep   Nso     Nmo    
   -------------------------
     A1        77      77 
     A2        30      30 
     B1        50      50 
     B2        50      50 
   -------------------------
    Total     207     207
   -------------------------

  ==> Iterations <==

                        Total Energy        Delta E     RMS |[F,P]|

   @UHF iter SAD:    64.30898570691379    6.43090e+01   0.00000e+00 
   @UHF iter   1:   -37.55678013345080   -1.01866e+02   1.15660e-02 DIIS
   @UHF iter   2:   -38.24694001816070   -6.90160e-01   2.51826e-03 DIIS
   @UHF iter   3:   -38.28361206203061   -3.66720e-02   2.94177e-04 DIIS
   @UHF iter   4:   -38.28438403348259   -7.71971e-04   6.95875e-05 DIIS
   @UHF iter   5:   -38.28446994386083   -8.59104e-05   1.92436e-05 DIIS
   @UHF iter   6:   -38.28447747227200   -7.52841e-06   5.36822e-06 DIIS
   @UHF iter   7:   -38.28447802543386   -5.53162e-07   1.05220e-06 DIIS
   @UHF iter   8:   -38.28447804644333   -2.10095e-08   3.51361e-07 DIIS
   @UHF iter   9:   -38.28447804975971   -3.31638e-09   1.54195e-07 DIIS
   @UHF iter  10:   -38.28447805052932   -7.69610e-10   4.05676e-08 DIIS
   @UHF iter  11:   -38.28447805057593   -4.66187e-11   1.02937e-08 DIIS
   @UHF iter  12:   -38.28447805057864   -2.70717e-12   2.54355e-09 DIIS
  Energy and wave function converged.


  ==> Post-Iterations <==

   @Spin Contamination Metric:   9.708117733E-03
   @S^2 Expected:                7.500000000E-01
   @S^2 Observed:                7.597081177E-01
   @S   Expected:                5.000000000E-01
   @S   Observed:                5.000000000E-01

    Orbital Energies [Eh]
    ---------------------

    Alpha Occupied:                                                       

       1A1   -11.325120     2A1    -0.881192     3A1    -0.473861  
       1B1    -0.425396  

    Alpha Virtual:                                                        

       1B2     0.017522     4A1     0.022637     2B1     0.065586  
       5A1     0.067187     2B2     0.084659     6A1     0.107666  
       7A1     0.163911     3B1     0.184638     3B2     0.185733  
       1A2     0.209639     8A1     0.209765     9A1     0.249413  
       4B1     0.261004     4B2     0.264925    10A1     0.294628  
      11A1     0.301687     5B1     0.316508     5B2     0.343954  
      12A1     0.415663     6B1     0.498371     6B2     0.502010  
      13A1     0.537981     2A2     0.538003     7B1     0.556769  
       7B2     0.556778    14A1     0.607686     3A2     0.607839  
      15A1     0.642586    16A1     0.659223     8B2     0.662918  
       8B1     0.668677    17A1     0.679554     4A2     0.733798  
      18A1     0.734745     9B1     0.734991     9B2     0.738293  
      19A1     0.769176    10B1     0.955996    20A1     0.975192  
      10B2     0.988720    11B2     1.095691    11B1     1.100085  
      12B1     1.239265    12B2     1.239267    21A1     1.316266  
      22A1     1.329247    23A1     1.389779     5A2     1.389890  
      13B2     1.403763    13B1     1.409198    24A1     1.464036  
       6A2     1.565048    25A1     1.565049     7A2     1.606445  
      26A1     1.606594    14B1     1.637887    14B2     1.637907  
      15B1     1.662755    15B2     1.668163    27A1     1.709465  
       8A2     1.709554    28A1     1.753322    16B2     1.755545  
      16B1     1.766966    17B2     1.794574    17B1     1.794718  
      29A1     1.815397     9A2     1.816152    30A1     1.831421  
      18B2     2.074776    31A1     2.083627    18B1     2.083667  
      32A1     2.360669    19B1     2.549811    19B2     2.555607  
      33A1     2.706701    10A2     2.747553    34A1     2.747572  
      20B2     2.750522    20B1     2.757895    35A1     2.999144  
      11A2     2.999144    36A1     3.036869    21B2     3.172581  
      21B1     3.180711    37A1     3.283537    12A2     3.283840  
      38A1     3.332722    22B2     3.449515    22B1     3.449516  
      23B2     3.486370    23B1     3.486370    24B2     3.530998  
      24B1     3.538461    39A1     3.565523    25B2     3.634304  
      25B1     3.634311    40A1     3.809269    13A2     3.809269  
      41A1     3.936581    14A2     3.959818    42A1     3.960214  
      26B2     4.016748    26B1     4.032796    43A1     4.077293  
      15A2     4.077293    27B2     4.092281    27B1     4.092316  
      44A1     4.117055    16A2     4.117715    28B2     4.150434  
      28B1     4.150456    45A1     4.253687    17A2     4.319858  
      46A1     4.319953    29B2     4.372636    29B1     4.394871  
      30B2     4.470308    30B1     4.487492    47A1     4.689070  
      48A1     4.858806    18A2     4.858958    49A1     4.894677  
      31B2     5.244631    31B1     5.253842    32B2     5.278662  
      32B1     5.278676    50A1     5.620262    19A2     5.903462  
      51A1     5.903505    33B2     6.113694    33B1     6.125568  
      52A1     6.195483    53A1     6.490490    20A2     6.505089  
      54A1     6.505795    34B2     6.892672    34B1     6.907543  
      55A1     7.563786    35B2     7.803297    35B1     7.817838  
      56A1     8.592002    36B2     8.853727    36B1     8.867500  
      37B2     8.927250    37B1     8.927250    57A1     8.997877  
      21A2     8.997877    38B2     9.020009    38B1     9.020022  
      58A1     9.389968    22A2     9.390427    39B2     9.471992  
      39B1     9.499444    59A1     9.835836    40B2    10.082398  
      40B1    10.082400    60A1    10.295759    61A1    10.352436  
      23A2    10.352541    62A1    10.372683    24A2    10.373265  
      41B2    10.401560    41B1    10.426722    42B2    10.472136  
      42B1    10.473089    63A1    10.696325    25A2    10.719713  
      64A1    10.720332    65A1    11.637778    43B2    11.647984  
      43B1    11.673133    26A2    12.017139    66A1    12.017239  
      44B2    12.882323    44B1    12.901774    67A1    13.175677  
      27A2    13.180706    68A1    13.180706    45B2    13.228772  
      45B1    13.228772    46B2    13.674416    46B1    13.674416  
      28A2    14.017796    69A1    14.017814    70A1    14.349213  
      29A2    14.349221    47B2    14.538090    47B1    14.547025  
      71A1    14.751372    48B2    14.898828    48B1    14.909135  
      72A1    15.129027    30A2    15.283019    73A1    15.283099  
      74A1    15.923440    49B2    17.758027    49B1    17.770232  
      50B2    17.904204    50B1    17.912073    75A1    18.971372  
      76A1    20.641132    77A1    38.516910  

    Beta Occupied:                                                        

       1A1   -11.302092     2A1    -0.787422     3A1    -0.435450  

    Beta Virtual:                                                         

       4A1     0.023473     1B2     0.027715     1B1     0.047886  
       5A1     0.067758     2B2     0.092454     6A1     0.111170  
       2B1     0.123028     7A1     0.165457     3B2     0.186141  
       3B1     0.193370     1A2     0.214080     8A1     0.214098  
       9A1     0.250909     4B2     0.265704     4B1     0.271746  
      10A1     0.298232    11A1     0.309258     5B2     0.351278  
       5B1     0.378456    12A1     0.423916     6B2     0.502436  
       6B1     0.513492     2A2     0.542507    13A1     0.542537  
       7B2     0.561049     7B1     0.561062    14A1     0.617050  
       3A2     0.618016    15A1     0.647422     8B2     0.662610  
      16A1     0.664193     8B1     0.671126    17A1     0.689388  
       9B2     0.739408    18A1     0.751786     4A2     0.754499  
       9B1     0.757722    19A1     0.782735    20A1     0.979547  
      10B2     0.998484    10B1     1.036979    11B2     1.095602  
      11B1     1.108868    12B2     1.242380    12B1     1.242387  
      21A1     1.323221    22A1     1.334591     5A2     1.391838  
      23A1     1.391986    13B2     1.404412    13B1     1.414863  
      24A1     1.474179     6A2     1.573120    25A1     1.573121  
       7A2     1.623212    26A1     1.623689    14B2     1.655822  
      14B1     1.655984    15B2     1.673283    15B1     1.706907  
      27A1     1.729357     8A2     1.735698    16B2     1.755418  
      28A1     1.764322    16B1     1.774169    17B2     1.801878  
      17B1     1.802201    29A1     1.824372     9A2     1.841838  
      30A1     1.860636    18B2     2.075838    31A1     2.094414  
      18B1     2.096970    32A1     2.368344    19B2     2.561890  
      19B1     2.596284    33A1     2.714099    20B2     2.754064  
      10A2     2.754720    34A1     2.755131    20B1     2.784066  
      11A2     3.003094    35A1     3.003094    36A1     3.046659  
      21B2     3.173908    21B1     3.191399    37A1     3.286616  
      12A2     3.287100    38A1     3.335939    22B2     3.450310  
      22B1     3.450317    23B2     3.496742    23B1     3.496742  
      24B2     3.536641    24B1     3.572861    39A1     3.577350  
      25B2     3.642651    25B1     3.642667    40A1     3.815812  
      13A2     3.815812    41A1     3.943290    14A2     3.978742  
      42A1     3.980724    26B2     4.017541    26B1     4.046498  
      43A1     4.096536    15A2     4.096545    44A1     4.125764  
      27B2     4.125950    27B1     4.126177    16A2     4.126531  
      28B2     4.162506    28B1     4.162649    45A1     4.258533  
      46A1     4.346301    17A2     4.346827    29B2     4.374632  
      29B1     4.405928    30B2     4.474367    30B1     4.509349  
      47A1     4.699386    48A1     4.884237    18A2     4.887409  
      49A1     4.909675    31B2     5.246481    31B1     5.268942  
      32B2     5.284392    32B1     5.284567    50A1     5.629560  
      19A2     5.905079    51A1     5.905144    33B2     6.116921  
      33B1     6.146457    52A1     6.200499    53A1     6.499199  
      20A2     6.513405    54A1     6.515017    34B2     6.892960  
      34B1     6.914291    55A1     7.567172    35B2     7.804791  
      35B1     7.828501    56A1     8.606925    36B2     8.862554  
      36B1     8.913991    37B2     8.945350    37B1     8.945351  
      57A1     9.012908    21A2     9.012908    38B2     9.032541  
      38B1     9.032579    58A1     9.400467    22A2     9.401303  
      39B2     9.474656    39B1     9.512453    59A1     9.842937  
      40B2    10.113898    40B1    10.113914    60A1    10.309918  
      61A1    10.370602    23A2    10.371241    62A1    10.394040  
      24A2    10.394903    41B2    10.404837    41B1    10.443010  
      42B2    10.493267    42B1    10.495723    63A1    10.708312  
      25A2    10.739256    64A1    10.741040    65A1    11.644254  
      43B2    11.652503    43B1    11.693809    26A2    12.046148  
      66A1    12.046533    44B2    12.887508    44B1    12.925638  
      67A1    13.181070    27A2    13.181070    68A1    13.183510  
      45B2    13.228510    45B1    13.228510    46B2    13.675948  
      46B1    13.675948    28A2    14.019316    69A1    14.019347  
      70A1    14.348537    29A2    14.348545    47B2    14.537670  
      47B1    14.548611    71A1    14.751819    48B2    14.898445  
      48B1    14.911895    72A1    15.128600    30A2    15.285129  
      73A1    15.285237    74A1    15.924242    49B2    17.758315  
      49B1    17.773904    50B2    17.903134    50B1    17.913372  
      75A1    18.973059    76A1    20.641227    77A1    38.525850  

    Final Occupation by Irrep:
             A1    A2    B1    B2 
    DOCC [     3,    0,    0,    0 ]
    SOCC [     0,    0,    1,    0 ]

  @UHF Final Energy:   -38.28447805057864

   => Energetics <=

    Nuclear Repulsion Energy =              2.8518207653108725
    One-Electron Energy =                 -56.6420644466198979
    Two-Electron Energy =                  15.5057656307303802
    Total Energy =                        -38.2844780505786417

  UHF NO Occupations:
  HONO-2 :    2 A1 1.9994640
  HONO-1 :    3 A1 1.9956743
  HONO-0 :    1 B1 1.0000000
  LUNO+0 :    4 A1 0.0043257
  LUNO+1 :    5 A1 0.0005360
  LUNO+2 :    6 A1 0.0000018
  LUNO+3 :    7 A1 0.0000000


Computation Completed


Properties will be evaluated at   0.000000,   0.000000,   0.000000 [a0]

Properties computed using the SCF density matrix

  Nuclear Dipole Moment: [e a0]
     X:     0.0000      Y:     0.0000      Z:     0.9629

  Electronic Dipole Moment: [e a0]
     X:     0.0000      Y:     0.0000      Z:    -0.3365

  Dipole Moment: [e a0]
     X:     0.0000      Y:     0.0000      Z:     0.6264     Total:     0.6264

  Dipole Moment: [D]
     X:     0.0000      Y:     0.0000      Z:     1.5920     Total:     1.5920


*** tstop() called on n412-041.vsc4.prov at Wed Jan 20 22:15:35 2021
Module time:
	user time   =     126.25 seconds =       2.10 minutes
	system time =       6.59 seconds =       0.11 minutes
	total time  =         76 seconds =       1.27 minutes
Total time:
	user time   =     126.25 seconds =       2.10 minutes
	system time =       6.59 seconds =       0.11 minutes
	total time  =         76 seconds =       1.27 minutes

*** tstart() called on n412-041.vsc4.prov
*** at Wed Jan 20 22:15:35 2021


	Wfn Parameters:
	--------------------
	Wavefunction         = CCSD_T
	Number of irreps     = 4
	Number of MOs        = 207
	Number of active MOs = 206
	AO-Basis             = NONE
	Semicanonical        = false
	Reference            = UHF
	Print Level          = 1

	IRREP	# MOs	# FZDC	# DOCC	# SOCC	# VIRT	# FZVR
	-----	-----	------	------	------	------	------
	 A1	   77	    1	    2	    0	    74	    0
	 A2	   30	    0	    0	    0	    30	    0
	 B1	   50	    0	    0	    1	    49	    0
	 B2	   50	    0	    0	    0	    50	    0
	Transforming integrals...
	IWL integrals will be deleted.
	(OO|OO)...
	Presorting SO-basis two-electron integrals.
	Sorting File: SO Ints (nn|nn) nbuckets = 1
	Constructing frozen core operators
	Starting AA/AB first half-transformation.
	Sorting AA/AB half-transformed integrals.
	Starting BB first half-transformation.
	Sorting BB half-transformed integrals.
	First half integral transformation complete.
	Starting AA second half-transformation.
	Starting AB second half-transformation.
	Starting BB second half-transformation.
	Two-electron integral transformation complete.
	(OO|OV)...
	Starting AA second half-transformation.
	Starting AB second half-transformation.
	Starting BB second half-transformation.
	Two-electron integral transformation complete.
	(OO|VV)...
	Starting AA second half-transformation.
	Starting AB second half-transformation.
	Starting BB second half-transformation.
	Two-electron integral transformation complete.
	(OV|OO)...
	Starting AA/AB first half-transformation.
	Sorting AA/AB half-transformed integrals.
	Starting BB first half-transformation.
	Sorting BB half-transformed integrals.
	First half integral transformation complete.
	Starting AA second half-transformation.
	Starting AB second half-transformation.
	Starting BB second half-transformation.
	Two-electron integral transformation complete.
	(OV|OV)...
	Starting AA second half-transformation.
	Starting AB second half-transformation.
	Starting BB second half-transformation.
	Two-electron integral transformation complete.
	(OV|VV)...
	Starting AA second half-transformation.
	Starting AB second half-transformation.
	Starting BB second half-transformation.
	Two-electron integral transformation complete.
	(VV|OO)...
	Starting AA/AB first half-transformation.
	Sorting AA/AB half-transformed integrals.
	Starting BB first half-transformation.
	Sorting BB half-transformed integrals.
	First half integral transformation complete.
	Starting AA second half-transformation.
	Starting AB second half-transformation.
	Starting BB second half-transformation.
	Two-electron integral transformation complete.
	(VV|OV)...
	Starting AA second half-transformation.
	Starting AB second half-transformation.
	Starting BB second half-transformation.
	Two-electron integral transformation complete.
	(VV|VV)...
	Starting AA second half-transformation.
	Starting AB second half-transformation.
	Starting BB second half-transformation.
	Two-electron integral transformation complete.
	Frozen core energy     =    -33.31077079517169

	Size of irrep 0 of <AB|CD> integrals:     30.658 (MW) /    245.267 (MB)
	Size of irrep 1 of <AB|CD> integrals:     21.809 (MW) /    174.471 (MB)
	Size of irrep 2 of <AB|CD> integrals:     26.276 (MW) /    210.207 (MB)
	Size of irrep 3 of <AB|CD> integrals:     26.729 (MW) /    213.831 (MB)
	Total:                                   105.472 (MW) /    843.776 (MB)

	Size of irrep 0 of <ab|cd> integrals:     31.203 (MW) /    249.627 (MB)
	Size of irrep 1 of <ab|cd> integrals:     22.278 (MW) /    178.227 (MB)
	Size of irrep 2 of <ab|cd> integrals:     27.040 (MW) /    216.320 (MB)
	Size of irrep 3 of <ab|cd> integrals:     27.040 (MW) /    216.320 (MB)
	Total:                                   107.562 (MW) /    860.494 (MB)

	Size of irrep 0 of <Ab|Cd> integrals:    128.278 (MW) /   1026.226 (MB)
	Size of irrep 1 of <Ab|Cd> integrals:     88.172 (MW) /    705.377 (MB)
	Size of irrep 2 of <Ab|Cd> integrals:    106.626 (MW) /    853.010 (MB)
	Size of irrep 3 of <Ab|Cd> integrals:    107.537 (MW) /    860.295 (MB)
	Total:                                   430.614 (MW) /   3444.908 (MB)

	Size of irrep 0 of <IA|BC> integrals:      2.222 (MW) /     17.773 (MB)
	Size of irrep 1 of <IA|BC> integrals:      1.027 (MW) /      8.219 (MB)
	Size of irrep 2 of <IA|BC> integrals:      1.763 (MW) /     14.107 (MB)
	Size of irrep 3 of <IA|BC> integrals:      1.344 (MW) /     10.754 (MB)
	Total:                                     6.357 (MW) /     50.852 (MB)

	Size of irrep 0 of <ia|bc> integrals:      1.684 (MW) /     13.469 (MB)
	Size of irrep 1 of <ia|bc> integrals:      0.566 (MW) /      4.531 (MB)
	Size of irrep 2 of <ia|bc> integrals:      1.040 (MW) /      8.320 (MB)
	Size of irrep 3 of <ia|bc> integrals:      1.040 (MW) /      8.320 (MB)
	Total:                                     4.330 (MW) /     34.640 (MB)

	Size of irrep 0 of <Ia|Bc> integrals:      2.243 (MW) /     17.940 (MB)
	Size of irrep 1 of <Ia|Bc> integrals:      1.033 (MW) /      8.263 (MB)
	Size of irrep 2 of <Ia|Bc> integrals:      1.797 (MW) /     14.374 (MB)
	Size of irrep 3 of <Ia|Bc> integrals:      1.348 (MW) /     10.785 (MB)
	Total:                                     6.420 (MW) /     51.362 (MB)

	Size of irrep 0 of <iA|bC> integrals:      1.676 (MW) /     13.410 (MB)
	Size of irrep 1 of <iA|bC> integrals:      0.563 (MW) /      4.507 (MB)
	Size of irrep 2 of <iA|bC> integrals:      1.012 (MW) /      8.096 (MB)
	Size of irrep 3 of <iA|bC> integrals:      1.037 (MW) /      8.296 (MB)
	Total:                                     4.289 (MW) /     34.309 (MB)

	Size of irrep 0 of tIjAb amplitudes:       0.045 (MW) /      0.362 (MB)
	Size of irrep 1 of tIjAb amplitudes:       0.000 (MW) /      0.000 (MB)
	Size of irrep 2 of tIjAb amplitudes:       0.021 (MW) /      0.165 (MB)
	Size of irrep 3 of tIjAb amplitudes:       0.000 (MW) /      0.000 (MB)
	Total:                                     0.066 (MW) /      0.528 (MB)

	Nuclear Rep. energy          =      2.85182076531087
	SCF energy                   =    -38.28447805057864
	One-electron energy          =    -12.64773481141165
	Two-electron (AA) energy     =      1.29060860513772
	Two-electron (BB) energy     =      0.38672744978028
	Two-electron (AB) energy     =      3.14487073577553
	Two-electron energy          =      4.82220679069353
	Reference energy             =    -38.28447805057894

*** tstop() called on n412-041.vsc4.prov at Wed Jan 20 22:18:00 2021
Module time:
	user time   =      44.80 seconds =       0.75 minutes
	system time =      30.56 seconds =       0.51 minutes
	total time  =        145 seconds =       2.42 minutes
Total time:
	user time   =     171.05 seconds =       2.85 minutes
	system time =      37.15 seconds =       0.62 minutes
	total time  =        221 seconds =       3.68 minutes
            **************************
            *                        *
            *        CCENERGY        *
            *                        *
            **************************

    Nuclear Rep. energy (wfn)     =    2.851820765310872
    SCF energy          (wfn)     =  -38.284478050578642
    Reference energy    (file100) =  -38.284478050578940

    Input parameters:
    -----------------
    Wave function   =     CCSD_T
    Reference wfn   =     UHF
    Brueckner       =     No
    Memory (Mbytes) =     250000.0
    Maxiter         =     50
    R_Convergence   =     1.0e-07
    E_Convergence   =     1.0e-06
    Restart         =     Yes
    DIIS            =     Yes
    AO Basis        =     NONE
    ABCD            =     NEW
    Cache Level     =     2
    Cache Type      =     LRU
    Print Level     =     1
    Num. of threads =     48
    # Amps to Print =     10
    Print MP2 Amps? =     No
    Analyze T2 Amps =     No
    Print Pair Ener =     No
    Local CC        =     No
    SCS-MP2         =     False
    SCSN-MP2        =     False
    SCS-CCSD        =     False

MP2 correlation energy -0.1118813755726631
                Solving CC Amplitude Equations
                ------------------------------
  Iter             Energy              RMS        T1Diag      D1Diag    New D1Diag    D2Diag
  ----     ---------------------    ---------   ----------  ----------  ----------   --------
     0        -0.111881375572663    0.000e+00    0.000000    0.000000    0.000000    0.000000
     1        -0.124985988975447    4.919e-02    0.009102    0.000000    0.000000    0.000000
     2        -0.132513044603986    2.377e-02    0.014954    0.000000    0.000000    0.000000
     3        -0.133114865900026    8.218e-03    0.017108    0.000000    0.000000    0.000000
     4        -0.133244990945763    3.210e-03    0.017428    0.000000    0.000000    0.000000
     5        -0.133271014652120    1.391e-03    0.017374    0.000000    0.000000    0.000000
     6        -0.133264798124609    5.560e-04    0.017291    0.000000    0.000000    0.000000
     7        -0.133270650737247    2.019e-04    0.017257    0.000000    0.000000    0.000000
     8        -0.133271832262071    5.368e-05    0.017257    0.000000    0.000000    0.000000
     9        -0.133270684727783    1.915e-05    0.017257    0.000000    0.000000    0.000000
    10        -0.133270741624491    7.383e-06    0.017257    0.000000    0.000000    0.000000
    11        -0.133270766461956    2.684e-06    0.017257    0.000000    0.000000    0.000000
    12        -0.133270837948954    1.046e-06    0.017258    0.000000    0.000000    0.000000
    13        -0.133270862498013    3.965e-07    0.017258    0.000000    0.000000    0.000000
    14        -0.133270867472920    1.696e-07    0.017258    0.000000    0.000000    0.000000
    15        -0.133270867803145    7.808e-08    0.017258    0.000000    0.000000    0.000000

    Iterations converged.


    Largest TIA Amplitudes:
              2 104        -0.0080486972
              2 105        -0.0079990091
              1  10        -0.0069047510
              1  14         0.0068724518
              0  14        -0.0067639952
              2 107        -0.0066479400
              1   4         0.0062389954
              0  10         0.0058472992
              2 108        -0.0058240693
              1  23        -0.0046839503

    Largest Tia Amplitudes:
              0   8         0.0108521632
              0  13        -0.0089123315
              1   6         0.0088684117
              0   7         0.0088513712
              0   3        -0.0069603815
              1  13         0.0064926190
              1  15         0.0063611339
              1   7        -0.0063257065
              1   5        -0.0056529890
              0  12        -0.0051964483

    Largest TIJAB Amplitudes:
      2   1 108   8        -0.0127509642
      2   1 107   8        -0.0102386088
      2   1 111   8         0.0098547889
      2   1 112   8        -0.0095317792
      2   1 105   8        -0.0091790882
      2   1 112  16         0.0082097802
      2   1 117   8        -0.0079200794
      2   1 107   6        -0.0076806974
      2   1 112   6        -0.0075198977
      2   0 112   7        -0.0070205793

    Largest Tijab Amplitudes:
      1   0 112 105        -0.0068806189
      1   0 109 105         0.0068325155
      1   0 159 154         0.0057064117
      1   0 159 155         0.0051360757
      1   0 162 154        -0.0050930026
      1   0 118 105         0.0050517270
      1   0   7   6         0.0048959145
      1   0  13   8        -0.0047954919
      1   0 162 155        -0.0047167665
      1   0 112 108        -0.0045969782

    Largest TIjAb Amplitudes:
      1   1 153 154        -0.0534630380
      1   1 153 155        -0.0463293634
      1   1 154 154        -0.0357093262
      1   1   8   8        -0.0347930491
      0   0 153 154        -0.0329092125
      1   1 154 155        -0.0309566196
      0   0 153 155        -0.0308752713
      1   1 153 158        -0.0266288166
      0   1 153 154         0.0258979128
      0   1 153 155         0.0238523537

    SCF energy       (wfn)                    =  -38.284478050578642
    Reference energy (file100)                =  -38.284478050578940

    Opposite-spin MP2 correlation energy      =   -0.096120538169792
    Same-spin MP2 correlation energy          =   -0.015760837402871
    Singles MP2 correlation energy            =   -0.000000000000000
    MP2 correlation energy                    =   -0.111881375572663
      * MP2 total energy                      =  -38.396359426151605

    Opposite-spin CCSD correlation energy     =   -0.116849764454146
    Same-spin CCSD correlation energy         =   -0.016421103349006
    Singles CCSD correlation energy           =    0.000000000000008
    CCSD correlation energy                   =   -0.133270867803145
      * CCSD total energy                     =  -38.417748918382088

            **************************
            *                        *
            *        CCTRIPLES       *
            *                        *
            **************************


    Wave function   =    CCSD_T
    Reference wfn   =      UHF

    Nuclear Rep. energy (wfn)                =    2.851820765310872
    SCF energy          (wfn)                =  -38.284478050578642
    Reference energy    (file100)            =  -38.284478050578940
    CCSD energy         (file100)            =   -0.133270867803145
    Total CCSD energy   (file100)            =  -38.417748918382088

    Number of ijk index combinations:
    Spin Case AAA:                                   1
    Spin Case BBB:                                   0
    Spin Case AAB:                                   6
    Spin Case ABB:                                   3
    AAA (T) energy                             =   -0.000056764874781
    BBB (T) energy                             =    0.000000000000000
    AAB (T) energy                             =   -0.002769162546870
    ABB (T) energy                             =   -0.001034400521236
    (T) energy                                   =   -0.003860327942887
      * CCSD(T) total energy                     =  -38.421609246324969


    Psi4 stopped on: Wednesday, 20 January 2021 10:20PM
    Psi4 wall time for execution: 0:06:06.52

*** Psi4 exiting successfully. Buy a developer a beer!
