
    -----------------------------------------------------------------------
          Psi4: An Open-Source Ab Initio Electronic Structure Package
                               Psi4 1.2a1.dev939 

                         Git: Rev {HEAD} fa1ec19 dirty


    R. M. Parrish, L. A. Burns, D. G. A. Smith, A. C. Simmonett,
    A. E. DePrince III, E. G. Hohenstein, U. Bozkaya, A. Yu. Sokolov,
    R. Di Remigio, R. M. Richard, J. F. Gonthier, A. M. James,
    H. R. McAlexander, A. Kumar, M. Saitow, X. Wang, B. P. Pritchard,
    P. Verma, H. F. Schaefer III, K. Patkowski, R. A. King, E. F. Valeev,
    F. A. Evangelista, J. M. Turney, T. D. Crawford, and C. D. Sherrill,
    J. Chem. Theory Comput. 13(7) pp 3185--3197 (2017).
    (doi: 10.1021/acs.jctc.7b00174)

    -----------------------------------------------------------------------


    Psi4 started on: Saturday, 31 October 2020 11:50AM

    Process ID: 438379
    PSIDATADIR: /home/fs71337/airmler/src/psi4_uhf/build/stage/usr/local/psi4/share/psi4
    Memory:     500.0 MiB
    Threads:    48
    
  ==> Input File <==

--------------------------------------------------------------------------
# Any line starting with the # character is a comment line
memory 250000 mb
molecule molecule{
-1 3
P          0.0000000000        0.0000000000        0.5283745064
O          0.0000000000        0.0000000000       -1.0228974307
}

set {
  reference uhf
  basis aug-cc-pv(6+d)z
  scf_type OUT_OF_CORE
  freeze_core true
}

energy('ccsd')
--------------------------------------------------------------------------

  Memory set to 232.831 GiB by Python driver.

*** tstart() called on n412-050.vsc4.prov
*** at Sat Oct 31 11:50:32 2020

   => Loading Basis Set <=

    Name: AUG-CC-PV(6+D)Z
    Role: ORBITAL
    Keyword: BASIS
    atoms 1 entry P          line  1025 file /home/fs71337/airmler/src/psi4_uhf/build/stage/usr/local/psi4/share/psi4/basis/aug-cc-pv_6pd_z.gbs 
    atoms 2 entry O          line   459 file /home/fs71337/airmler/src/psi4_uhf/build/stage/usr/local/psi4/share/psi4/basis/aug-cc-pv_6pd_z.gbs 


         ---------------------------------------------------------
                                   SCF
            by Justin Turney, Rob Parrish, Andy Simmonett
                             and Daniel Smith
                              UHF Reference
                       48 Threads, 238418 MiB Core
         ---------------------------------------------------------

  ==> Geometry <==

    Molecular point group: c2v
    Full point group: C_inf_v

    Geometry (in Angstrom), charge = -1, multiplicity = 3:

       Center              X                  Y                   Z               Mass       
    ------------   -----------------  -----------------  -----------------  -----------------
           P          0.000000000000     0.000000000000     0.528276804190    30.973761629000
           O          0.000000000000     0.000000000000    -1.022995132910    15.994914619560

  Running in c2v symmetry.

  Rotational constants: A = ************  B =      0.66413  C =      0.66413 [cm^-1]
  Rotational constants: A = ************  B =  19910.11490  C =  19910.11490 [MHz]
  Nuclear repulsion =   40.934966663234690

  Charge       = -1
  Multiplicity = 3
  Electrons    = 24
  Nalpha       = 13
  Nbeta        = 11

  ==> Algorithm <==

  SCF Algorithm Type is OUT_OF_CORE.
  DIIS enabled.
  MOM disabled.
  Fractional occupation disabled.
  Guess Type is GWH.
  Energy threshold   = 1.00e-08
  Density threshold  = 1.00e-08
  Integral threshold = 0.00e+00

  ==> Primary Basis <==

  Basis Set: AUG-CC-PV(6+D)Z
    Blend: AUG-CC-PV(6+D)Z
    Number of shells: 73
    Number of basis function: 387
    Number of Cartesian functions: 598
    Spherical Harmonics?: true
    Max angular momentum: 6

  ==> Pre-Iterations <==

   -------------------------------------------------------
    Irrep   Nso     Nmo     Nalpha   Nbeta   Ndocc  Nsocc
   -------------------------------------------------------
     A1       136     136       0       0       0       0
     A2        63      63       0       0       0       0
     B1        94      94       0       0       0       0
     B2        94      94       0       0       0       0
   -------------------------------------------------------
    Total     387     387      13      11      11       2
   -------------------------------------------------------

  ==> Integral Setup <==

  ==> DiskJK: Disk-Based J/K Matrices <==

    J tasked:                  Yes
    K tasked:                  Yes
    wK tasked:                  No
    Memory (MB):            178813
    Schwarz Cutoff:          1E-12

  Minimum eigenvalue in the overlap matrix is 5.0959190387E-06.
  Using Symmetric Orthogonalization.

  SCF Guess: Generalized Wolfsberg-Helmholtz.

  ==> Iterations <==

                        Total Energy        Delta E     RMS |[F,P]|

    Occupation by irrep:
             A1    A2    B1    B2 
    DOCC [     7,    0,    2,    2 ]
    SOCC [     1,    0,    0,    1 ]

   @UHF iter   1:  -382.28286749997972   -3.82283e+02   2.22030e-01 
    Occupation by irrep:
             A1    A2    B1    B2 
    DOCC [     7,    0,    2,    2 ]
    SOCC [     1,    1,    0,    0 ]

   @UHF iter   2:  -350.91392802187761    3.13689e+01   1.56649e-01 DIIS
    Occupation by irrep:
             A1    A2    B1    B2 
    DOCC [     7,    0,    2,    2 ]
    SOCC [     0,    0,    1,    1 ]

   @UHF iter   3:  -389.77882214563806   -3.88649e+01   1.69938e-01 DIIS
   @UHF iter   4:  -413.58877033829799   -2.38099e+01   6.19196e-02 DIIS
   @UHF iter   5:  -413.08284878336099    5.05922e-01   4.14016e-02 DIIS
   @UHF iter   6:  -415.44218734780270   -2.35934e+00   1.47241e-02 DIIS
   @UHF iter   7:  -415.65431508728568   -2.12128e-01   1.96292e-03 DIIS
   @UHF iter   8:  -415.66191042454830   -7.59534e-03   6.61604e-04 DIIS
   @UHF iter   9:  -415.66353031300957   -1.61989e-03   2.54931e-04 DIIS
   @UHF iter  10:  -415.66391097717531   -3.80664e-04   1.21949e-04 DIIS
   @UHF iter  11:  -415.66401021297588   -9.92358e-05   6.87635e-05 DIIS
   @UHF iter  12:  -415.66404428847738   -3.40755e-05   2.88690e-05 DIIS
   @UHF iter  13:  -415.66405076352487   -6.47505e-06   1.38282e-05 DIIS
   @UHF iter  14:  -415.66405233621845   -1.57269e-06   5.32090e-06 DIIS
   @UHF iter  15:  -415.66405261339639   -2.77178e-07   1.68468e-06 DIIS
   @UHF iter  16:  -415.66405264348555   -3.00892e-08   9.00762e-07 DIIS
   @UHF iter  17:  -415.66405265128526   -7.79971e-09   3.75896e-07 DIIS
   @UHF iter  18:  -415.66405265296873   -1.68347e-09   1.79114e-07 DIIS
   @UHF iter  19:  -415.66405265342212   -4.53383e-10   1.01840e-07 DIIS
   @UHF iter  20:  -415.66405265358651   -1.64391e-10   5.06114e-08 DIIS
   @UHF iter  21:  -415.66405265361789   -3.13776e-11   1.90499e-08 DIIS
   @UHF iter  22:  -415.66405265362005   -2.16005e-12   6.28909e-09 DIIS

  ==> Post-Iterations <==

   @Spin Contamination Metric:   4.571546156E-02
   @S^2 Expected:                2.000000000E+00
   @S^2 Observed:                2.045715462E+00
   @S   Expected:                1.000000000E+00
   @S   Observed:                1.000000000E+00

    Orbital Energies (a.u.)
    -----------------------

    Alpha Occupied:                                                       

       1A1   -79.733087     2A1   -20.308495     3A1    -7.269768  
       1B2    -5.170328     1B1    -5.170328     4A1    -5.158352  
       5A1    -1.078281     6A1    -0.519623     2B1    -0.320482  
       2B2    -0.320482     7A1    -0.288857     3B1    -0.075520  
       3B2    -0.075520  

    Alpha Virtual:                                                        

       8A1     0.158361     4B2     0.163626     4B1     0.163626  
       9A1     0.163978     5B2     0.223389     5B1     0.223389  
      10A1     0.230336     1A2     0.292444    11A1     0.292444  
      12A1     0.293434     6B2     0.327177     6B1     0.327177  
      13A1     0.332435    14A1     0.340708     7B2     0.389136  
       7B1     0.389136    15A1     0.493619     2A2     0.504933  
      16A1     0.504933     8B2     0.509821     8B1     0.509821  
       9B2     0.535093     9B1     0.535093    17A1     0.535513  
      18A1     0.558768     3A2     0.558768    19A1     0.581497  
      10B1     0.597452    10B2     0.597452    20A1     0.645010  
      11B2     0.647839    11B1     0.647839    21A1     0.650246  
       4A2     0.653293    22A1     0.653293    12B2     0.762706  
      12B1     0.762706    23A1     0.895792     5A2     0.895792  
      13B2     0.902120    13B1     0.902120    24A1     0.917283  
      25A1     0.979831    14B2     0.984652    14B1     0.984652  
       6A2     0.992377    26A1     0.992377    15B2     1.041828  
      15B1     1.041828    27A1     1.052255    16B2     1.111781  
      16B1     1.111781     7A2     1.115501    28A1     1.115501  
      29A1     1.131052     8A2     1.134776    30A1     1.134776  
      17B2     1.175655    17B1     1.175655    18B2     1.207183  
      18B1     1.207183    31A1     1.219439    32A1     1.222667  
       9A2     1.222667    19B2     1.253686    19B1     1.253686  
      33A1     1.272325    20B1     1.367981    20B2     1.367981  
      34A1     1.380132    21B1     1.493224    21B2     1.493224  
      35A1     1.658215    10A2     1.677543    36A1     1.677543  
      37A1     1.834824    22B2     1.841372    22B1     1.841372  
      11A2     1.844408    38A1     1.844408    39A1     1.970792  
      12A2     1.970792    23B2     1.971047    23B1     1.971047  
      24B2     1.988447    24B1     1.988447    40A1     2.010387  
      25B2     2.014984    25B1     2.014984    41A1     2.025810  
      13A2     2.025810    26B2     2.031459    26B1     2.031459  
      42A1     2.088470    14A2     2.175078    43A1     2.175078  
      27B2     2.197162    27B1     2.197162    44A1     2.211816  
      15A2     2.211816    45A1     2.215399    28B1     2.258321  
      28B2     2.258321    46A1     2.270495    29B2     2.367298  
      29B1     2.367298    47A1     2.428456    16A2     2.428456  
      30B2     2.442274    30B1     2.442274    48A1     2.498497  
      17A2     2.498497    49A1     2.577979    31B2     2.631680  
      31B1     2.631680    32B2     2.675710    32B1     2.675710  
      18A2     2.752948    50A1     2.752948    51A1     2.771509  
      33B1     3.016486    33B2     3.016486    19A2     3.049136  
      52A1     3.049136    34B1     3.110079    34B2     3.110079  
      53A1     3.120912    54A1     3.240716    35B1     3.298083  
      35B2     3.298083    55A1     3.344809    36B1     3.533904  
      36B2     3.533904    56A1     3.614514    20A2     3.614514  
      37B2     3.639284    37B1     3.639284    57A1     3.644846  
      21A2     3.644846    22A2     3.822585    58A1     3.822585  
      59A1     3.830599    38B1     3.852977    38B2     3.852977  
      23A2     3.862088    60A1     3.862088    39B2     3.889790  
      39B1     3.889790    40B2     3.954511    40B1     3.954511  
      24A2     3.962259    61A1     3.962259    62A1     3.968710  
      25A2     4.025542    63A1     4.025542    41B1     4.055229  
      41B2     4.055229    42B2     4.178452    42B1     4.178452  
      64A1     4.199896    65A1     4.233025    26A2     4.233025  
      66A1     4.299519    27A2     4.299519    43B1     4.310078  
      43B2     4.310078    44B2     4.331450    44B1     4.331450  
      67A1     4.410560    68A1     4.565743    45B1     4.575198  
      45B2     4.575198    46B2     4.628430    46B1     4.628430  
      69A1     4.729699    28A2     4.729699    47B2     4.816403  
      47B1     4.816403    70A1     4.933856    71A1     5.178627  
      29A2     5.178627    30A2     5.334745    72A1     5.334745  
      48B2     5.347679    48B1     5.347679    73A1     5.354687  
      49B1     5.616531    49B2     5.616531    50B1     5.648629  
      50B2     5.648629    51B1     5.794224    51B2     5.794224  
      74A1     5.805453    31A2     5.805453    75A1     5.815547  
      32A2     5.815547    76A1     5.835812    77A1     5.891499  
      52B1     6.039003    52B2     6.039003    33A2     6.192911  
      78A1     6.192911    53B1     6.212356    53B2     6.212356  
      79A1     6.426730    54B1     6.434897    54B2     6.434897  
      34A2     6.608719    80A1     6.608719    55B1     6.823851  
      55B2     6.823851    81A1     7.095312    82A1     7.197903  
      56B2     7.280525    56B1     7.280525    83A1     7.357776  
      35A2     7.357776    57B2     7.393778    57B1     7.393778  
      84A1     7.422761    36A2     7.422761    58B1     7.587962  
      58B2     7.587962    37A2     7.722763    85A1     7.722763  
      38A2     7.754030    86A1     7.754030    59B2     7.766545  
      59B1     7.766545    39A2     7.807713    87A1     7.807713  
      88A1     7.816626    60B2     7.999796    60B1     7.999796  
      89A1     8.098801    61B2     8.102705    61B1     8.102705  
      62B1     8.134634    62B2     8.134634    90A1     8.158307  
      40A2     8.158307    41A2     8.244225    91A1     8.244225  
      63B2     8.258149    63B1     8.258149    92A1     8.300427  
      64B2     8.372610    64B1     8.372610    93A1     8.554002  
      94A1     9.004914    42A2     9.004914    65B1     9.015133  
      65B2     9.015133    95A1     9.243298    66B1     9.287373  
      66B2     9.287373    96A1     9.392444    43A2     9.392444  
      67B1     9.667278    67B2     9.667278    44A2     9.669231  
      97A1     9.669231    68B1     9.714229    68B2     9.714229  
      98A1     9.759049    99A1     9.799876    45A2     9.799876  
      69B1     9.831205    69B2     9.831205    46A2    10.081592  
     100A1    10.081592    70B1    10.941874    70B2    10.941874  
      71B1    10.981298    71B2    10.981298   101A1    11.007756  
      72B2    11.149537    72B1    11.149537   102A1    11.359833  
      47A2    11.410744   103A1    11.410744   104A1    11.598378  
     105A1    11.703986    48A2    11.703986    73B1    11.831713  
      73B2    11.831713    74B1    11.852411    74B2    11.852411  
      49A2    11.875197   106A1    11.875197   107A1    12.009138  
      75B1    12.341467    75B2    12.341467    76B1    12.797864  
      76B2    12.797864   108A1    13.112490   109A1    13.355880  
      50A2    13.355880   110A1    13.504437    51A2    13.504437  
      77B2    13.677405    77B1    13.677405    52A2    14.184815  
     111A1    14.184815    78B1    14.496762    78B2    14.496762  
      79B1    14.626408    79B2    14.626408   112A1    14.835547  
     113A1    15.157514   114A1    15.502487    53A2    15.502487  
      80B1    16.545880    80B2    16.545880   115A1    17.141101  
     116A1    21.970684    54A2    23.043782   117A1    23.043782  
      81B1    23.062781    81B2    23.062781   118A1    23.204781  
      55A2    23.204781    82B1    23.543521    82B2    23.543521  
      83B1    23.635353    83B2    23.635353   119A1    23.783414  
      56A2    23.783414   120A1    23.805863    84B1    23.870971  
      84B2    23.870971   121A1    24.799005   122A1    26.203267  
      57A2    26.203267    85B2    26.627309    85B1    26.627309  
     123A1    26.779782    86B2    27.138435    86B1    27.138435  
     124A1    27.263227    58A2    27.263227    87B2    27.341094  
      87B1    27.341094    88B2    27.490691    88B1    27.490691  
     125A1    27.534660    59A2    27.534660    89B1    27.699719  
      89B2    27.699719   126A1    27.798943    90B1    28.900568  
      90B2    28.900568   127A1    29.343256    60A2    29.343256  
     128A1    29.851405    91B1    30.214592    91B2    30.214592  
     129A1    31.821284    61A2    31.821284    92B2    32.001594  
      92B1    32.001594   130A1    32.464153    62A2    32.464153  
      93B1    32.548516    93B2    32.548516   131A1    32.648810  
     132A1    32.987386   133A1    35.253247    63A2    35.253247  
      94B1    36.129183    94B2    36.129183   134A1    36.699751  
     135A1   103.303163   136A1   215.264582  

    Beta Occupied:                                                        

       1A1   -79.723956     2A1   -20.282581     3A1    -7.260181  
       4A1    -5.156158     1B1    -5.145275     1B2    -5.145275  
       5A1    -1.008855     6A1    -0.415367     7A1    -0.218173  
       2B2    -0.205660     2B1    -0.205660  

    Beta Virtual:                                                         

       3B2     0.160171     3B1     0.160171     8A1     0.160490  
       9A1     0.164755     4B2     0.223838     4B1     0.223838  
      10A1     0.233593     5B2     0.288701     5B1     0.288701  
      11A1     0.298666    12A1     0.304610     1A2     0.304610  
      13A1     0.334874     6B2     0.337323     6B1     0.337323  
      14A1     0.353150     7B1     0.438079     7B2     0.438079  
      15A1     0.504214    16A1     0.513697     2A2     0.513697  
       8B1     0.518328     8B2     0.518328    17A1     0.540819  
       9B2     0.547393     9B1     0.547393    18A1     0.591466  
       3A2     0.591466    19A1     0.596609    10B2     0.607137  
      10B1     0.607137    20A1     0.650654    21A1     0.661753  
      11B2     0.664939    11B1     0.664939     4A2     0.680843  
      22A1     0.680843    12B1     0.792521    12B2     0.792521  
       5A2     0.904392    23A1     0.904392    13B2     0.907289  
      13B1     0.907289    24A1     0.932798    25A1     0.982710  
      14B2     0.990951    14B1     0.990951     6A2     1.003090  
      26A1     1.003090    27A1     1.057055    15B2     1.085923  
      15B1     1.085923    28A1     1.129172     7A2     1.129172  
      16B1     1.132246    16B2     1.132246    29A1     1.135020  
       8A2     1.176784    30A1     1.176784    17B2     1.185067  
      17B1     1.185067    18B1     1.218050    18B2     1.218050  
      31A1     1.226711    32A1     1.231999     9A2     1.231999  
      19B1     1.263351    19B2     1.263351    33A1     1.290624  
      34A1     1.390730    20B2     1.393395    20B1     1.393395  
      21B2     1.505443    21B1     1.505443    35A1     1.670019  
      10A2     1.690877    36A1     1.690877    11A2     1.851921  
      37A1     1.851921    22B1     1.853684    22B2     1.853684  
      38A1     1.856036    23B2     1.983686    23B1     1.983686  
      39A1     1.993460    12A2     1.993460    24B2     1.997550  
      24B1     1.997550    40A1     2.016158    25B2     2.022694  
      25B1     2.022694    41A1     2.037613    13A2     2.037613  
      26B2     2.039599    26B1     2.039599    42A1     2.096505  
      14A2     2.190015    43A1     2.190015    27B2     2.209488  
      27B1     2.209488    44A1     2.218755    45A1     2.230913  
      15A2     2.230913    46A1     2.277374    28B2     2.298201  
      28B1     2.298201    29B2     2.387096    29B1     2.387096  
      47A1     2.444071    16A2     2.444071    30B2     2.471976  
      30B1     2.471976    17A2     2.498918    48A1     2.498918  
      49A1     2.584737    31B1     2.635197    31B2     2.635197  
      32B2     2.681878    32B1     2.681878    18A2     2.756352  
      50A1     2.756352    51A1     2.775178    33B1     3.019212  
      33B2     3.019212    19A2     3.077392    52A1     3.077392  
      34B2     3.127350    34B1     3.127350    53A1     3.139521  
      54A1     3.249444    35B2     3.316185    35B1     3.316185  
      55A1     3.360557    36B2     3.543057    36B1     3.543057  
      56A1     3.626284    20A2     3.626284    37B2     3.649506  
      37B1     3.649506    57A1     3.659954    21A2     3.659954  
      22A2     3.829199    58A1     3.829199    59A1     3.841549  
      38B1     3.869579    38B2     3.869579    23A2     3.889637  
      60A1     3.889637    39B2     3.904387    39B1     3.904387  
      40B2     3.976188    40B1     3.976188    61A1     3.977000  
      24A2     3.978915    62A1     3.978915    25A2     4.036730  
      63A1     4.036730    41B1     4.068074    41B2     4.068074  
      42B2     4.186774    42B1     4.186774    64A1     4.205719  
      65A1     4.243482    26A2     4.243482    27A2     4.310559  
      66A1     4.310559    43B1     4.319938    43B2     4.319938  
      44B2     4.339083    44B1     4.339083    67A1     4.421474  
      68A1     4.572020    45B1     4.599533    45B2     4.599533  
      46B2     4.643123    46B1     4.643123    28A2     4.746118  
      69A1     4.746118    47B1     4.816984    47B2     4.816984  
      70A1     4.942869    71A1     5.190344    29A2     5.190344  
      30A2     5.336605    72A1     5.336605    48B2     5.357085  
      48B1     5.357085    73A1     5.366720    49B2     5.632066  
      49B1     5.632066    50B1     5.659499    50B2     5.659499  
      51B1     5.797394    51B2     5.797394    74A1     5.810851  
      31A2     5.810851    75A1     5.821920    32A2     5.821920  
      76A1     5.839888    77A1     5.899182    52B1     6.046697  
      52B2     6.046697    33A2     6.212735    78A1     6.212735  
      53B2     6.224414    53B1     6.224414    79A1     6.437055  
      54B1     6.442275    54B2     6.442275    34A2     6.625869  
      80A1     6.625869    55B2     6.839467    55B1     6.839467  
      81A1     7.106977    82A1     7.203526    56B2     7.291682  
      56B1     7.291682    83A1     7.377139    35A2     7.377139  
      57B2     7.405048    57B1     7.405048    84A1     7.433249  
      36A2     7.433249    58B2     7.606856    58B1     7.606856  
      37A2     7.734298    85A1     7.734298    38A2     7.772351  
      86A1     7.772351    59B2     7.780180    59B1     7.780180  
      39A2     7.816614    87A1     7.816614    88A1     7.822632  
      60B2     8.005412    60B1     8.005412    61B2     8.110372  
      61B1     8.110372    89A1     8.111571    62B1     8.154549  
      62B2     8.154549    90A1     8.173418    40A2     8.173418  
      41A2     8.252899    91A1     8.252899    63B2     8.269430  
      63B1     8.269430    92A1     8.307714    64B2     8.382090  
      64B1     8.382090    93A1     8.564945    94A1     9.014431  
      42A2     9.014431    65B2     9.028158    65B1     9.028158  
      95A1     9.249432    66B1     9.297022    66B2     9.297022  
      43A2     9.401280    96A1     9.401280    44A2     9.671689  
      97A1     9.671689    67B2     9.680786    67B1     9.680786  
      68B1     9.715873    68B2     9.715873    98A1     9.764919  
      99A1     9.808801    45A2     9.808801    69B2     9.837539  
      69B1     9.837539    46A2    10.083671   100A1    10.083671  
      70B1    10.944756    70B2    10.944756    71B2    10.987830  
      71B1    10.987830   101A1    11.017091    72B2    11.157370  
      72B1    11.157370   102A1    11.366712    47A2    11.417035  
     103A1    11.417035   104A1    11.603193   105A1    11.707365  
      48A2    11.707365    73B1    11.834535    73B2    11.834535  
      74B1    11.858639    74B2    11.858639    49A2    11.880796  
     106A1    11.880796   107A1    12.014472    75B1    12.347817  
      75B2    12.347817    76B1    12.822856    76B2    12.822856  
     108A1    13.120599   109A1    13.373162    50A2    13.373162  
     110A1    13.521517    51A2    13.521517    77B2    13.690850  
      77B1    13.690850    52A2    14.203097   111A1    14.203097  
      78B1    14.510930    78B2    14.510930    79B1    14.636731  
      79B2    14.636731   112A1    14.845567   113A1    15.168765  
     114A1    15.525833    53A2    15.525833    80B1    16.561046  
      80B2    16.561046   115A1    17.150780   116A1    21.986668  
      54A2    23.053532   117A1    23.053532    81B1    23.071012  
      81B2    23.071012   118A1    23.211847    55A2    23.211847  
      82B2    23.549638    82B1    23.549638    83B1    23.655693  
      83B2    23.655693   119A1    23.788739    56A2    23.788739  
     120A1    23.810730    84B1    23.876708    84B2    23.876708  
     121A1    24.808992   122A1    26.217357    57A2    26.217357  
      85B2    26.635170    85B1    26.635170   123A1    26.785669  
      86B2    27.153798    86B1    27.153798   124A1    27.276038  
      58A2    27.276038    87B2    27.354060    87B1    27.354060  
      88B2    27.501487    88B1    27.501487    59A2    27.543961  
     125A1    27.543961    89B1    27.708026    89B2    27.708026  
     126A1    27.806605    90B1    28.923470    90B2    28.923470  
     127A1    29.360365    60A2    29.360365   128A1    29.860077  
      91B1    30.227985    91B2    30.227985   129A1    31.840703  
      61A2    31.840703    92B2    32.017248    92B1    32.017248  
     130A1    32.477251    62A2    32.477251    93B1    32.559921  
      93B2    32.559921   131A1    32.659599   132A1    32.992352  
     133A1    35.273070    63A2    35.273070    94B1    36.141764  
      94B2    36.141764   134A1    36.709148   135A1   103.310199  
     136A1   215.268043  

    Final Occupation by Irrep:
             A1    A2    B1    B2 
    DOCC [     7,    0,    2,    2 ]
    SOCC [     0,    0,    1,    1 ]

  Energy converged.

  @UHF Final Energy:  -415.66405265362005

   => Energetics <=

    Nuclear Repulsion Energy =             40.9349666632346896
    One-Electron Energy =                -662.9417725244760504
    Two-Electron Energy =                 206.3427532076212856
    PCM Polarization Energy =               0.0000000000000000
    Total Energy =                       -415.6640526536200468

    Alert: EFP and PCM quantities not currently incorporated into SCF psivars.
  UHF NO Occupations:
  HONO-2 :    7 A1 1.9906848
  HONO-1 :    3 B2 1.0000000
  HONO-0 :    3 B1 1.0000000
  LUNO+0 :    8 A1 0.0093152
  LUNO+1 :    4 B1 0.0064182
  LUNO+2 :    4 B2 0.0064182
  LUNO+3 :    9 A1 0.0005474



Properties will be evaluated at   0.000000,   0.000000,   0.000000 Bohr

Properties computed using the SCF density matrix

  Nuclear Dipole Moment: (a.u.)
     X:     0.0000      Y:     0.0000      Z:    -0.4910

  Electronic Dipole Moment: (a.u.)
     X:     0.0000      Y:     0.0000      Z:     0.7424

  Dipole Moment: (a.u.)
     X:     0.0000      Y:     0.0000      Z:     0.2515     Total:     0.2515

  Dipole Moment: (Debye)
     X:     0.0000      Y:     0.0000      Z:     0.6392     Total:     0.6392


*** tstop() called on n412-050.vsc4.prov at Sat Oct 31 12:19:10 2020
Module time:
	user time   =    1542.51 seconds =      25.71 minutes
	system time =     142.87 seconds =       2.38 minutes
	total time  =       1718 seconds =      28.63 minutes
Total time:
	user time   =    1542.51 seconds =      25.71 minutes
	system time =     142.87 seconds =       2.38 minutes
	total time  =       1718 seconds =      28.63 minutes

*** tstart() called on n412-050.vsc4.prov
*** at Sat Oct 31 12:19:10 2020


	Wfn Parameters:
	--------------------
	Wavefunction         = CCSD
	Number of irreps     = 4
	Number of MOs        = 387
	Number of active MOs = 381
	AO-Basis             = NONE
	Semicanonical        = false
	Reference            = UHF
	Print Level          = 1

	IRREP	# MOs	# FZDC	# DOCC	# SOCC	# VIRT	# FZVR
	-----	-----	------	------	------	------	------
	 A1	   136	    4	    3	    0	    129	    0
	 A2	   63	    0	    0	    0	    63	    0
	 B1	   94	    1	    1	    1	    91	    0
	 B2	   94	    1	    1	    1	    91	    0
	Transforming integrals...
	IWL integrals will be deleted.
	(OO|OO)...
	Presorting SO-basis two-electron integrals.
	Sorting File: SO Ints (nn|nn) nbuckets = 1
	Transforming the one-electron integrals and constructing Fock matrices
	Starting AA/AB first half-transformation.
	Sorting AA/AB half-transformed integrals.
	Starting BB first half-transformation.
	Sorting BB half-transformed integrals.
	First half integral transformation complete.
	Starting AA second half-transformation.
	Starting AB second half-transformation.
	Starting BB second half-transformation.
	Two-electron integral transformation complete.
	(OO|OV)...
	Starting AA second half-transformation.
	Starting AB second half-transformation.
	Starting BB second half-transformation.
	Two-electron integral transformation complete.
	(OO|VV)...
	Starting AA second half-transformation.
	Starting AB second half-transformation.
	Starting BB second half-transformation.
	Two-electron integral transformation complete.
	(OV|OO)...
	Starting AA/AB first half-transformation.
	Sorting AA/AB half-transformed integrals.
	Starting BB first half-transformation.
	Sorting BB half-transformed integrals.
	First half integral transformation complete.
	Starting AA second half-transformation.
	Starting AB second half-transformation.
	Starting BB second half-transformation.
	Two-electron integral transformation complete.
	(OV|OV)...
	Starting AA second half-transformation.
	Starting AB second half-transformation.
	Starting BB second half-transformation.
	Two-electron integral transformation complete.
	(OV|VV)...
	Starting AA second half-transformation.
	Starting AB second half-transformation.
	Starting BB second half-transformation.
	Two-electron integral transformation complete.
	(VV|OO)...
	Starting AA/AB first half-transformation.
	Sorting AA/AB half-transformed integrals.
	Starting BB first half-transformation.
	Sorting BB half-transformed integrals.
	First half integral transformation complete.
	Starting AA second half-transformation.
	Starting AB second half-transformation.
	Starting BB second half-transformation.
	Two-electron integral transformation complete.
	(VV|OV)...
	Starting AA second half-transformation.
	Starting AB second half-transformation.
	Starting BB second half-transformation.
	Two-electron integral transformation complete.
	(VV|VV)...
	Starting AA second half-transformation.
	Starting AB second half-transformation.
	Starting BB second half-transformation.
	Two-electron integral transformation complete.
	Frozen core energy     =   -424.17324741330560

	Size of irrep 0 of <AB|CD> integrals:    338.523 (MW) /   2708.186 (MB)
	Size of irrep 1 of <AB|CD> integrals:    269.222 (MW) /   2153.780 (MB)
	Size of irrep 2 of <AB|CD> integrals:    305.271 (MW) /   2442.166 (MB)
	Size of irrep 3 of <AB|CD> integrals:    305.271 (MW) /   2442.166 (MB)
	Total:                                  1218.287 (MW) /   9746.298 (MB)

	Size of irrep 0 of <ab|cd> integrals:    345.254 (MW) /   2762.028 (MB)
	Size of irrep 1 of <ab|cd> integrals:    275.261 (MW) /   2202.090 (MB)
	Size of irrep 2 of <ab|cd> integrals:    312.017 (MW) /   2496.135 (MB)
	Size of irrep 3 of <ab|cd> integrals:    312.017 (MW) /   2496.135 (MB)
	Total:                                  1244.549 (MW) /   9956.389 (MB)

	Size of irrep 0 of <Ab|Cd> integrals:   1395.321 (MW) /  11162.571 (MB)
	Size of irrep 1 of <Ab|Cd> integrals:   1088.868 (MW) /   8710.944 (MB)
	Size of irrep 2 of <Ab|Cd> integrals:   1234.538 (MW) /   9876.308 (MB)
	Size of irrep 3 of <Ab|Cd> integrals:   1234.538 (MW) /   9876.308 (MB)
	Total:                                  4953.266 (MW) /  39626.130 (MB)

	Size of irrep 0 of <IA|BC> integrals:     27.916 (MW) /    223.329 (MB)
	Size of irrep 1 of <IA|BC> integrals:     18.147 (MW) /    145.178 (MB)
	Size of irrep 2 of <IA|BC> integrals:     22.958 (MW) /    183.666 (MB)
	Size of irrep 3 of <IA|BC> integrals:     22.958 (MW) /    183.666 (MB)
	Total:                                    91.980 (MW) /    735.839 (MB)

	Size of irrep 0 of <ia|bc> integrals:     21.434 (MW) /    171.474 (MB)
	Size of irrep 1 of <ia|bc> integrals:     12.377 (MW) /     99.015 (MB)
	Size of irrep 2 of <ia|bc> integrals:     16.534 (MW) /    132.268 (MB)
	Size of irrep 3 of <ia|bc> integrals:     16.534 (MW) /    132.268 (MB)
	Total:                                    66.878 (MW) /    535.025 (MB)

	Size of irrep 0 of <Ia|Bc> integrals:     28.202 (MW) /    225.618 (MB)
	Size of irrep 1 of <Ia|Bc> integrals:     18.380 (MW) /    147.039 (MB)
	Size of irrep 2 of <Ia|Bc> integrals:     23.190 (MW) /    185.518 (MB)
	Size of irrep 3 of <Ia|Bc> integrals:     23.190 (MW) /    185.518 (MB)
	Total:                                    92.962 (MW) /    743.693 (MB)

	Size of irrep 0 of <iA|bC> integrals:     21.254 (MW) /    170.035 (MB)
	Size of irrep 1 of <iA|bC> integrals:     12.242 (MW) /     97.938 (MB)
	Size of irrep 2 of <iA|bC> integrals:     16.338 (MW) /    130.706 (MB)
	Size of irrep 3 of <iA|bC> integrals:     16.338 (MW) /    130.706 (MB)
	Total:                                    66.173 (MW) /    529.385 (MB)

	Size of irrep 0 of tIjAb amplitudes:       0.486 (MW) /      3.885 (MB)
	Size of irrep 1 of tIjAb amplitudes:       0.132 (MW) /      1.056 (MB)
	Size of irrep 2 of tIjAb amplitudes:       0.316 (MW) /      2.530 (MB)
	Size of irrep 3 of tIjAb amplitudes:       0.316 (MW) /      2.530 (MB)
	Total:                                     1.250 (MW) /     10.000 (MB)

	Nuclear Rep. energy          =     40.93496666323469
	SCF energy                   =   -415.66405265362005
	One-electron energy          =    -60.11906234239884
	Two-electron (AA) energy     =      7.65153464410984
	Two-electron (BB) energy     =      4.13094462553977
	Two-electron (AB) energy     =     15.91081116920375
	Two-electron energy          =     27.69329043885336
	Reference energy             =   -415.66405265361635

*** tstop() called on n412-050.vsc4.prov at Sat Oct 31 12:43:23 2020
Module time:
	user time   =    5986.64 seconds =      99.78 minutes
	system time =     414.49 seconds =       6.91 minutes
	total time  =       1453 seconds =      24.22 minutes
Total time:
	user time   =    7529.17 seconds =     125.49 minutes
	system time =     557.36 seconds =       9.29 minutes
	total time  =       3171 seconds =      52.85 minutes

*** tstart() called on n412-050.vsc4.prov
*** at Sat Oct 31 12:43:23 2020

            **************************
            *                        *
            *        CCENERGY        *
            *                        *
            **************************

    Nuclear Rep. energy (wfn)     =   40.934966663234690
    SCF energy          (wfn)     = -415.664052653620047
    Reference energy    (file100) = -415.664052653616352

    Input parameters:
    -----------------
    Wave function   =     CCSD
    Reference wfn   =     UHF
    Brueckner       =     No
    Memory (Mbytes) =     250000.0
    Maxiter         =     50
    R_Convergence   =     1.0e-07
    E_Convergence   =     1.0e-06
    Restart         =     Yes
    DIIS            =     Yes
    AO Basis        =     NONE
    ABCD            =     NEW
    Cache Level     =     2
    Cache Type      =     LRU
    Print Level     =     1
    Num. of threads =     48
    # Amps to Print =     10
    Print MP2 Amps? =     No
    Analyze T2 Amps =     No
    Print Pair Ener =     No
    Local CC        =     No
    SCS-MP2         =     False
    SCSN-MP2        =     False
    SCS-CCSD        =     False

MP2 correlation energy -0.4140600856972194
                Solving CC Amplitude Equations
                ------------------------------
  Iter             Energy              RMS        T1Diag      D1Diag    New D1Diag    D2Diag
  ----     ---------------------    ---------   ----------  ----------  ----------   --------
     0        -0.414060085697240    0.000e+00    0.000000    0.000000    0.000000    0.000000
     1        -0.396446421140364    1.083e-01    0.024595    0.000000    0.000000    0.000000
     2        -0.409650465096085    4.278e-02    0.023259    0.000000    0.000000    0.000000
     3        -0.413775882223429    2.375e-02    0.029432    0.000000    0.000000    0.000000
     4        -0.413685124645795    8.592e-03    0.032529    0.000000    0.000000    0.000000
     5        -0.413532714854366    4.704e-03    0.033743    0.000000    0.000000    0.000000
     6        -0.413610134512353    1.919e-03    0.034399    0.000000    0.000000    0.000000
     7        -0.413616492961232    9.804e-04    0.034546    0.000000    0.000000    0.000000
     8        -0.413607154130549    3.622e-04    0.034566    0.000000    0.000000    0.000000
     9        -0.413615902682737    2.066e-04    0.034584    0.000000    0.000000    0.000000
    10        -0.413613382225796    9.508e-05    0.034592    0.000000    0.000000    0.000000
    11        -0.413611725918924    4.236e-05    0.034588    0.000000    0.000000    0.000000
    12        -0.413611951094999    2.191e-05    0.034591    0.000000    0.000000    0.000000
    13        -0.413611266749287    8.039e-06    0.034590    0.000000    0.000000    0.000000
    14        -0.413611278977369    3.492e-06    0.034590    0.000000    0.000000    0.000000
    15        -0.413611332734199    1.485e-06    0.034590    0.000000    0.000000    0.000000
    16        -0.413611326450866    6.935e-07    0.034590    0.000000    0.000000    0.000000
    17        -0.413611331502881    3.169e-07    0.034590    0.000000    0.000000    0.000000
    18        -0.413611331525736    1.556e-07    0.034590    0.000000    0.000000    0.000000
    19        -0.413611329559439    7.973e-08    0.034590    0.000000    0.000000    0.000000
    19        -0.413611329559439    7.973e-08    0.034590    0.000000    0.000000    0.000000

    Iterations converged.


    CCSD corr. energy   =   -0.413611329559439
    PPL corr. energy    =    0.104502174215887
    OS PPL corr. energy =    0.085449199167599
    SS PPL corr. energy =    0.019052975048290
    Largest TIA Amplitudes:
              4 192        -0.0241211082
              6 283        -0.0241208782
              2   7        -0.0203321497
              5 290         0.0193537190
              3 199         0.0193536179
              5 285         0.0184622169
              3 194         0.0184621215
              2   6        -0.0160521286
              2   4         0.0147201262
              5 291        -0.0144403303

    Largest Tia Amplitudes:
              3 194        -0.0385072533
              4 286        -0.0385056111
              3 196         0.0259610491
              4 288         0.0259601335
              2   7        -0.0155256534
              1  11         0.0154823867
              1   6         0.0154260087
              2   3        -0.0151204386
              4 301         0.0141992158
              3 209         0.0141990251

    Largest TIJAB Amplitudes:
      6   4 131  10        -0.0242372023
      6   4 286 195        -0.0219391816
      6   4 129   3        -0.0170626007
      6   4 129  10        -0.0164721771
      6   4 131   3        -0.0164721771
      6   4 286 192         0.0162752856
      6   4 283 195         0.0162752744
      6   4 283 192        -0.0144678378
      6   4 131  14        -0.0138762876
      6   4 132  10        -0.0138762876

    Largest Tijab Amplitudes:
      4   3 286 194        -0.0332224113
      4   3 288 194         0.0209328611
      4   3 286 196         0.0209328577
      3   2 194   7         0.0186121435
      4   2 286   7         0.0186120576
      4   3 287 194        -0.0170514822
      4   3 286 195        -0.0170514597
      4   3 288 196        -0.0160322570
      3   2 194  11        -0.0147215587
      4   2 286  11        -0.0147214910

    Largest TIjAb Amplitudes:
      2   2   7   7         0.0283472702
      4   2 131 286        -0.0270963972
      6   2  10 286         0.0270963928
      4   2  10 194        -0.0270963802
      6   2 131 194        -0.0270963758
      4   3 199 194         0.0211523146
      6   4 290 286         0.0211522156
      4   2 129 286        -0.0185175626
      6   2   3 286         0.0185175618
      4   2   3 194        -0.0185175444

    SCF energy       (wfn)                    = -415.664052653620047
    Reference energy (file100)                = -415.664052653616352

    Opposite-spin MP2 correlation energy      =   -0.309147742559126
    Same-spin MP2 correlation energy          =   -0.104912343137783
    MP2 correlation energy                    =   -0.414060085697219
      * MP2 total energy                      = -416.078112739313553

    Opposite-spin CCSD correlation energy     =   -0.319965314967339
    Same-spin CCSD correlation energy         =   -0.093645993527519
    CCSD correlation energy                   =   -0.413611329559439
      * CCSD total energy                     = -416.077663983175796


*** tstop() called on n412-050.vsc4.prov at Sat Oct 31 13:22:17 2020
Module time:
	user time   =   14112.68 seconds =     235.21 minutes
	system time =     942.11 seconds =      15.70 minutes
	total time  =       2334 seconds =      38.90 minutes
Total time:
	user time   =   21641.85 seconds =     360.70 minutes
	system time =    1499.47 seconds =      24.99 minutes
	total time  =       5505 seconds =      91.75 minutes

*** Psi4 exiting successfully. Buy a developer a beer!
