
    -----------------------------------------------------------------------
          Psi4: An Open-Source Ab Initio Electronic Structure Package
                               Psi4 1.2a1.dev938 

                         Git: Rev {HEAD} fc51d9a dirty


    R. M. Parrish, L. A. Burns, D. G. A. Smith, A. C. Simmonett,
    A. E. DePrince III, E. G. Hohenstein, U. Bozkaya, A. Yu. Sokolov,
    R. Di Remigio, R. M. Richard, J. F. Gonthier, A. M. James,
    H. R. McAlexander, A. Kumar, M. Saitow, X. Wang, B. P. Pritchard,
    P. Verma, H. F. Schaefer III, K. Patkowski, R. A. King, E. F. Valeev,
    F. A. Evangelista, J. M. Turney, T. D. Crawford, and C. D. Sherrill,
    J. Chem. Theory Comput. 13(7) pp 3185--3197 (2017).
    (doi: 10.1021/acs.jctc.7b00174)

    -----------------------------------------------------------------------


    Psi4 started on: Thursday, 20 August 2020 07:55PM

    Process ID: 422788
    PSIDATADIR: /home/irmler/Programs/psi4/beforeGrueneis3/stage/usr/local/psi4/share/psi4
    Memory:     500.0 MiB
    Threads:    4
    
  ==> Input File <==

--------------------------------------------------------------------------
# Any line starting with the # character is a comment line
memory 250000 mb
molecule molecule{
-1 3
P          0.0000000000        0.0000000000        0.5283745064
O          0.0000000000        0.0000000000       -1.0228974307
}

set {
  reference uhf
  basis aug-cc-pv(d+d)z
  scf_type OUT_OF_CORE
  freeze_core true
}

energy('ccsd')
--------------------------------------------------------------------------

  Memory set to 232.831 GiB by Python driver.

*** tstart() called on cqc05
*** at Thu Aug 20 19:55:21 2020

   => Loading Basis Set <=

    Name: AUG-CC-PV(D+D)Z
    Role: ORBITAL
    Keyword: BASIS
    atoms 1 entry P          line   656 file /home/irmler/Programs/psi4/beforeGrueneis3/stage/usr/local/psi4/share/psi4/basis/aug-cc-pv_dpd_z.gbs 
    atoms 2 entry O          line   270 file /home/irmler/Programs/psi4/beforeGrueneis3/stage/usr/local/psi4/share/psi4/basis/aug-cc-pv_dpd_z.gbs 


         ---------------------------------------------------------
                                   SCF
            by Justin Turney, Rob Parrish, Andy Simmonett
                             and Daniel Smith
                              UHF Reference
                        4 Threads, 238418 MiB Core
         ---------------------------------------------------------

  ==> Geometry <==

    Molecular point group: c2v
    Full point group: C_inf_v

    Geometry (in Angstrom), charge = -1, multiplicity = 3:

       Center              X                  Y                   Z               Mass       
    ------------   -----------------  -----------------  -----------------  -----------------
           P          0.000000000000     0.000000000000     0.528276804190    30.973761629000
           O          0.000000000000     0.000000000000    -1.022995132910    15.994914619560

  Running in c2v symmetry.

  Rotational constants: A = ************  B =      0.66413  C =      0.66413 [cm^-1]
  Rotational constants: A = ************  B =  19910.11490  C =  19910.11490 [MHz]
  Nuclear repulsion =   40.934966663234697

  Charge       = -1
  Multiplicity = 3
  Electrons    = 24
  Nalpha       = 13
  Nbeta        = 11

  ==> Algorithm <==

  SCF Algorithm Type is OUT_OF_CORE.
  DIIS enabled.
  MOM disabled.
  Fractional occupation disabled.
  Guess Type is GWH.
  Energy threshold   = 1.00e-08
  Density threshold  = 1.00e-08
  Integral threshold = 0.00e+00

  ==> Primary Basis <==

  Basis Set: AUG-CC-PV(D+D)Z
    Blend: AUG-CC-PV(D+D)Z
    Number of shells: 21
    Number of basis function: 55
    Number of Cartesian functions: 60
    Spherical Harmonics?: true
    Max angular momentum: 2

  ==> Pre-Iterations <==

   -------------------------------------------------------
    Irrep   Nso     Nmo     Nalpha   Nbeta   Ndocc  Nsocc
   -------------------------------------------------------
     A1        26      26       0       0       0       0
     A2         5       5       0       0       0       0
     B1        12      12       0       0       0       0
     B2        12      12       0       0       0       0
   -------------------------------------------------------
    Total      55      55      13      11      11       2
   -------------------------------------------------------

  ==> Integral Setup <==

  ==> DiskJK: Disk-Based J/K Matrices <==

    J tasked:                  Yes
    K tasked:                  Yes
    wK tasked:                  No
    Memory (MB):            178813
    Schwarz Cutoff:          1E-12

  Minimum eigenvalue in the overlap matrix is 3.2898841632E-03.
  Using Symmetric Orthogonalization.

  SCF Guess: Generalized Wolfsberg-Helmholtz.

  ==> Iterations <==

                        Total Energy        Delta E     RMS |[F,P]|

    Occupation by irrep:
             A1    A2    B1    B2 
    DOCC [     7,    0,    2,    2 ]
    SOCC [     0,    0,    1,    1 ]

   @UHF iter   1:  -389.41994012367553   -3.89420e+02   3.54929e-01 
    Occupation by irrep:
             A1    A2    B1    B2 
    DOCC [     7,    0,    2,    2 ]
    SOCC [     1,    0,    1,    0 ]

   @UHF iter   2:  -407.81603075431576   -1.83961e+01   1.69105e-01 DIIS
    Occupation by irrep:
             A1    A2    B1    B2 
    DOCC [     7,    0,    2,    2 ]
    SOCC [     0,    0,    1,    1 ]

   @UHF iter   3:  -408.02552735418084   -2.09497e-01   1.16924e-01 DIIS
   @UHF iter   4:  -413.68875367868975   -5.66323e+00   8.39072e-02 DIIS
   @UHF iter   5:  -415.25627710618829   -1.56752e+00   3.25836e-02 DIIS
   @UHF iter   6:  -415.58404568495223   -3.27769e-01   9.35355e-03 DIIS
   @UHF iter   7:  -415.61773163756777   -3.36860e-02   1.19272e-03 DIIS
   @UHF iter   8:  -415.61889009228986   -1.15845e-03   7.94181e-04 DIIS
   @UHF iter   9:  -415.61958608029397   -6.95988e-04   4.11087e-04 DIIS
   @UHF iter  10:  -415.61992648013575   -3.40400e-04   1.67315e-04 DIIS
   @UHF iter  11:  -415.61997160400222   -4.51239e-05   4.09025e-05 DIIS
   @UHF iter  12:  -415.61997404210825   -2.43811e-06   1.95036e-05 DIIS
   @UHF iter  13:  -415.61997437942938   -3.37321e-07   5.88162e-06 DIIS
   @UHF iter  14:  -415.61997442340851   -4.39791e-08   1.75681e-06 DIIS
   @UHF iter  15:  -415.61997442817318   -4.76467e-09   9.46649e-07 DIIS
   @UHF iter  16:  -415.61997442896791   -7.94728e-10   3.58317e-07 DIIS
   @UHF iter  17:  -415.61997442913923   -1.71326e-10   1.22563e-07 DIIS
   @UHF iter  18:  -415.61997442916817   -2.89333e-11   7.62144e-08 DIIS
   @UHF iter  19:  -415.61997442917993   -1.17666e-11   3.82466e-08 DIIS
   @UHF iter  20:  -415.61997442918397   -4.03588e-12   1.41384e-08 DIIS
   @UHF iter  21:  -415.61997442918454   -5.68434e-13   4.37791e-09 DIIS

  ==> Post-Iterations <==

   @Spin Contamination Metric:   4.177656698E-02
   @S^2 Expected:                2.000000000E+00
   @S^2 Observed:                2.041776567E+00
   @S   Expected:                1.000000000E+00
   @S   Observed:                1.000000000E+00

    Orbital Energies (a.u.)
    -----------------------

    Alpha Occupied:                                                       

       1A1   -79.744321     2A1   -20.323290     3A1    -7.279261  
       1B1    -5.178409     1B2    -5.178409     4A1    -5.168931  
       5A1    -1.085383     6A1    -0.522945     2B1    -0.321931  
       2B2    -0.321931     7A1    -0.289207     3B1    -0.073954  
       3B2    -0.073954  

    Alpha Virtual:                                                        

       8A1     0.220480     9A1     0.243621     4B1     0.249211  
       4B2     0.249211    10A1     0.381326     5B1     0.421368  
       5B2     0.421368    11A1     0.436680    12A1     0.471769  
       1A2     0.471769    13A1     0.590893     6B1     0.599855  
       6B2     0.599855    14A1     0.730534     7B1     0.912315  
       7B2     0.912315    15A1     0.955509    16A1     1.061773  
       2A2     1.061773    17A1     1.102364     8B1     1.106778  
       8B2     1.106778    18A1     1.273586     3A2     1.273586  
      19A1     1.362097     9B1     1.499640     9B2     1.499640  
      20A1     1.700128    10B2     1.779635    10B1     1.779635  
      21A1     1.954067    22A1     3.051277     4A2     3.835207  
      23A1     3.835207    11B2     3.910053    11B1     3.910053  
      24A1     3.935382    25A1     4.565997     5A2     4.565997  
      12B2     4.646789    12B1     4.646789    26A1     4.685802  

    Beta Occupied:                                                        

       1A1   -79.736222     2A1   -20.296619     3A1    -7.269889  
       4A1    -5.166602     1B2    -5.155318     1B1    -5.155318  
       5A1    -1.015208     6A1    -0.418916     7A1    -0.217328  
       2B1    -0.205021     2B2    -0.205021  

    Beta Virtual:                                                         

       8A1     0.222793     3B1     0.223880     3B2     0.223880  
       9A1     0.256015     4B2     0.351140     4B1     0.351140  
      10A1     0.389776     5B1     0.433028     5B2     0.433028  
      11A1     0.453821     1A2     0.530646    12A1     0.530646  
      13A1     0.600702     6B1     0.642416     6B2     0.642416  
      14A1     0.762780     7B2     0.966785     7B1     0.966785  
      15A1     0.968151    16A1     1.107366    17A1     1.124605  
       2A2     1.124605     8B2     1.139574     8B1     1.139574  
      18A1     1.288758     3A2     1.288758    19A1     1.390976  
       9B1     1.527800     9B2     1.527800    20A1     1.715825  
      10B1     1.826320    10B2     1.826320    21A1     1.971265  
      22A1     3.066734    23A1     3.889805     4A2     3.889805  
      11B1     3.941963    11B2     3.941963    24A1     3.963757  
       5A2     4.576519    25A1     4.576519    12B2     4.653132  
      12B1     4.653132    26A1     4.690531  

    Final Occupation by Irrep:
             A1    A2    B1    B2 
    DOCC [     7,    0,    2,    2 ]
    SOCC [     0,    0,    1,    1 ]

  Energy converged.

  @UHF Final Energy:  -415.61997442918454

   => Energetics <=

    Nuclear Repulsion Energy =             40.9349666632346967
    One-Electron Energy =                -662.7064937865792444
    Two-Electron Energy =                 206.1515526941599887
    PCM Polarization Energy =               0.0000000000000000
    Total Energy =                       -415.6199744291845377

    Alert: EFP and PCM quantities not currently incorporated into SCF psivars.
  UHF NO Occupations:
  HONO-2 :    7 A1 1.9923037
  HONO-1 :    3 B1 1.0000000
  HONO-0 :    3 B2 1.0000000
  LUNO+0 :    8 A1 0.0076963
  LUNO+1 :    4 B2 0.0062624
  LUNO+2 :    4 B1 0.0062624
  LUNO+3 :    9 A1 0.0005303



Properties will be evaluated at   0.000000,   0.000000,   0.000000 Bohr

Properties computed using the SCF density matrix

  Nuclear Dipole Moment: (a.u.)
     X:     0.0000      Y:     0.0000      Z:    -0.4910

  Electronic Dipole Moment: (a.u.)
     X:     0.0000      Y:     0.0000      Z:     0.7640

  Dipole Moment: (a.u.)
     X:     0.0000      Y:     0.0000      Z:     0.2730     Total:     0.2730

  Dipole Moment: (Debye)
     X:     0.0000      Y:     0.0000      Z:     0.6940     Total:     0.6940


*** tstop() called on cqc05 at Thu Aug 20 19:55:21 2020
Module time:
	user time   =       1.38 seconds =       0.02 minutes
	system time =       0.04 seconds =       0.00 minutes
	total time  =          0 seconds =       0.00 minutes
Total time:
	user time   =       1.38 seconds =       0.02 minutes
	system time =       0.04 seconds =       0.00 minutes
	total time  =          0 seconds =       0.00 minutes

*** tstart() called on cqc05
*** at Thu Aug 20 19:55:21 2020


	Wfn Parameters:
	--------------------
	Wavefunction         = CCSD
	Number of irreps     = 4
	Number of MOs        = 55
	Number of active MOs = 49
	AO-Basis             = NONE
	Semicanonical        = false
	Reference            = UHF
	Print Level          = 1

	IRREP	# MOs	# FZDC	# DOCC	# SOCC	# VIRT	# FZVR
	-----	-----	------	------	------	------	------
	 A1	   26	    4	    3	    0	    19	    0
	 A2	   5	    0	    0	    0	    5	    0
	 B1	   12	    1	    1	    1	    9	    0
	 B2	   12	    1	    1	    1	    9	    0
	Transforming integrals...
	IWL integrals will be deleted.
	(OO|OO)...
	Presorting SO-basis two-electron integrals.
	Sorting File: SO Ints (nn|nn) nbuckets = 1
	Transforming the one-electron integrals and constructing Fock matrices
	Starting AA/AB first half-transformation.
	Sorting AA/AB half-transformed integrals.
	Starting BB first half-transformation.
	Sorting BB half-transformed integrals.
	First half integral transformation complete.
	Starting AA second half-transformation.
	Starting AB second half-transformation.
	Starting BB second half-transformation.
	Two-electron integral transformation complete.
	(OO|OV)...
	Starting AA second half-transformation.
	Starting AB second half-transformation.
	Starting BB second half-transformation.
	Two-electron integral transformation complete.
	(OO|VV)...
	Starting AA second half-transformation.
	Starting AB second half-transformation.
	Starting BB second half-transformation.
	Two-electron integral transformation complete.
	(OV|OO)...
	Starting AA/AB first half-transformation.
	Sorting AA/AB half-transformed integrals.
	Starting BB first half-transformation.
	Sorting BB half-transformed integrals.
	First half integral transformation complete.
	Starting AA second half-transformation.
	Starting AB second half-transformation.
	Starting BB second half-transformation.
	Two-electron integral transformation complete.
	(OV|OV)...
	Starting AA second half-transformation.
	Starting AB second half-transformation.
	Starting BB second half-transformation.
	Two-electron integral transformation complete.
	(OV|VV)...
	Starting AA second half-transformation.
	Starting AB second half-transformation.
	Starting BB second half-transformation.
	Two-electron integral transformation complete.
	(VV|OO)...
	Starting AA/AB first half-transformation.
	Sorting AA/AB half-transformed integrals.
	Starting BB first half-transformation.
	Sorting BB half-transformed integrals.
	First half integral transformation complete.
	Starting AA second half-transformation.
	Starting AB second half-transformation.
	Starting BB second half-transformation.
	Two-electron integral transformation complete.
	(VV|OV)...
	Starting AA second half-transformation.
	Starting AB second half-transformation.
	Starting BB second half-transformation.
	Two-electron integral transformation complete.
	(VV|VV)...
	Starting AA second half-transformation.
	Starting AB second half-transformation.
	Starting BB second half-transformation.
	Two-electron integral transformation complete.
	Frozen core energy     =   -424.16554616006050

	Size of irrep 0 of <AB|CD> integrals:      0.064 (MW) /      0.512 (MB)
	Size of irrep 1 of <AB|CD> integrals:      0.031 (MW) /      0.248 (MB)
	Size of irrep 2 of <AB|CD> integrals:      0.047 (MW) /      0.373 (MB)
	Size of irrep 3 of <AB|CD> integrals:      0.047 (MW) /      0.373 (MB)
	Total:                                     0.188 (MW) /      1.506 (MB)

	Size of irrep 0 of <ab|cd> integrals:      0.073 (MW) /      0.588 (MB)
	Size of irrep 1 of <ab|cd> integrals:      0.038 (MW) /      0.304 (MB)
	Size of irrep 2 of <ab|cd> integrals:      0.058 (MW) /      0.461 (MB)
	Size of irrep 3 of <ab|cd> integrals:      0.058 (MW) /      0.461 (MB)
	Total:                                     0.227 (MW) /      1.813 (MB)

	Size of irrep 0 of <Ab|Cd> integrals:      0.320 (MW) /      2.563 (MB)
	Size of irrep 1 of <Ab|Cd> integrals:      0.137 (MW) /      1.095 (MB)
	Size of irrep 2 of <Ab|Cd> integrals:      0.208 (MW) /      1.663 (MB)
	Size of irrep 3 of <Ab|Cd> integrals:      0.208 (MW) /      1.663 (MB)
	Total:                                     0.873 (MW) /      6.985 (MB)

	Size of irrep 0 of <IA|BC> integrals:      0.051 (MW) /      0.408 (MB)
	Size of irrep 1 of <IA|BC> integrals:      0.018 (MW) /      0.144 (MB)
	Size of irrep 2 of <IA|BC> integrals:      0.032 (MW) /      0.259 (MB)
	Size of irrep 3 of <IA|BC> integrals:      0.032 (MW) /      0.259 (MB)
	Total:                                     0.134 (MW) /      1.070 (MB)

	Size of irrep 0 of <ia|bc> integrals:      0.045 (MW) /      0.361 (MB)
	Size of irrep 1 of <ia|bc> integrals:      0.014 (MW) /      0.109 (MB)
	Size of irrep 2 of <ia|bc> integrals:      0.026 (MW) /      0.207 (MB)
	Size of irrep 3 of <ia|bc> integrals:      0.026 (MW) /      0.207 (MB)
	Total:                                     0.111 (MW) /      0.885 (MB)

	Size of irrep 0 of <Ia|Bc> integrals:      0.055 (MW) /      0.439 (MB)
	Size of irrep 1 of <Ia|Bc> integrals:      0.020 (MW) /      0.163 (MB)
	Size of irrep 2 of <Ia|Bc> integrals:      0.036 (MW) /      0.285 (MB)
	Size of irrep 3 of <Ia|Bc> integrals:      0.036 (MW) /      0.285 (MB)
	Total:                                     0.146 (MW) /      1.171 (MB)

	Size of irrep 0 of <iA|bC> integrals:      0.042 (MW) /      0.340 (MB)
	Size of irrep 1 of <iA|bC> integrals:      0.012 (MW) /      0.098 (MB)
	Size of irrep 2 of <iA|bC> integrals:      0.023 (MW) /      0.186 (MB)
	Size of irrep 3 of <iA|bC> integrals:      0.023 (MW) /      0.186 (MB)
	Total:                                     0.101 (MW) /      0.809 (MB)

	Size of irrep 0 of tIjAb amplitudes:       0.007 (MW) /      0.059 (MB)
	Size of irrep 1 of tIjAb amplitudes:       0.001 (MW) /      0.012 (MB)
	Size of irrep 2 of tIjAb amplitudes:       0.004 (MW) /      0.033 (MB)
	Size of irrep 3 of tIjAb amplitudes:       0.004 (MW) /      0.033 (MB)
	Total:                                     0.017 (MW) /      0.136 (MB)

	Nuclear Rep. energy          =     40.93496666323470
	SCF energy                   =   -415.61997442918454
	One-electron energy          =    -60.02799118050919
	Two-electron (AA) energy     =      7.64561755155791
	Two-electron (BB) energy     =      4.11585666522412
	Two-electron (AB) energy     =     15.87712203136798
	Two-electron energy          =     27.63859624815002
	Reference energy             =   -415.61997442918499

*** tstop() called on cqc05 at Thu Aug 20 19:55:22 2020
Module time:
	user time   =       0.19 seconds =       0.00 minutes
	system time =       0.12 seconds =       0.00 minutes
	total time  =          1 seconds =       0.02 minutes
Total time:
	user time   =       1.57 seconds =       0.03 minutes
	system time =       0.16 seconds =       0.00 minutes
	total time  =          1 seconds =       0.02 minutes

*** tstart() called on cqc05
*** at Thu Aug 20 19:55:22 2020

            **************************
            *                        *
            *        CCENERGY        *
            *                        *
            **************************

    Nuclear Rep. energy (wfn)     =   40.934966663234697
    SCF energy          (wfn)     = -415.619974429184538
    Reference energy    (file100) = -415.619974429184992

    Input parameters:
    -----------------
    Wave function   =     CCSD
    Reference wfn   =     UHF
    Brueckner       =     No
    Memory (Mbytes) =     250000.0
    Maxiter         =     50
    R_Convergence   =     1.0e-07
    E_Convergence   =     1.0e-06
    Restart         =     Yes
    DIIS            =     Yes
    AO Basis        =     NONE
    ABCD            =     NEW
    Cache Level     =     2
    Cache Type      =     LRU
    Print Level     =     1
    Num. of threads =     4
    # Amps to Print =     10
    Print MP2 Amps? =     No
    Analyze T2 Amps =     No
    Print Pair Ener =     No
    Local CC        =     No
    SCS-MP2         =     False
    SCSN-MP2        =     False
    SCS-CCSD        =     False

MP2 correlation energy -0.3071352561598654
                Solving CC Amplitude Equations
                ------------------------------
  Iter             Energy              RMS        T1Diag      D1Diag    New D1Diag    D2Diag
  ----     ---------------------    ---------   ----------  ----------  ----------   --------
     0        -0.307135256159868    0.000e+00    0.000000    0.000000    0.000000    0.000000
     1        -0.303102103337738    1.131e-01    0.026785    0.000000    0.000000    0.000000
     2        -0.314607280551799    4.143e-02    0.025669    0.000000    0.000000    0.000000
     3        -0.318637120007102    2.439e-02    0.032945    0.000000    0.000000    0.000000
     4        -0.318606424226833    7.814e-03    0.035665    0.000000    0.000000    0.000000
     5        -0.318527839449146    4.074e-03    0.036864    0.000000    0.000000    0.000000
     6        -0.318570529420110    1.491e-03    0.037308    0.000000    0.000000    0.000000
     7        -0.318557682027949    7.294e-04    0.037422    0.000000    0.000000    0.000000
     8        -0.318556007031650    2.431e-04    0.037441    0.000000    0.000000    0.000000
     9        -0.318561600152197    1.107e-04    0.037455    0.000000    0.000000    0.000000
    10        -0.318558118179681    4.679e-05    0.037458    0.000000    0.000000    0.000000
    11        -0.318557597678903    1.835e-05    0.037456    0.000000    0.000000    0.000000
    12        -0.318557517248193    8.848e-06    0.037457    0.000000    0.000000    0.000000
    13        -0.318557433899537    3.122e-06    0.037457    0.000000    0.000000    0.000000
    14        -0.318557497207361    1.611e-06    0.037457    0.000000    0.000000    0.000000
    15        -0.318557512701997    5.817e-07    0.037457    0.000000    0.000000    0.000000
    16        -0.318557500453784    2.261e-07    0.037457    0.000000    0.000000    0.000000
    17        -0.318557502714798    9.251e-08    0.037457    0.000000    0.000000    0.000000
    17        -0.318557502714798    9.251e-08    0.037457    0.000000    0.000000    0.000000

    Iterations converged.


    CCSD corr. energy   =   -0.318557502714798
    PPL corr. energy    =    0.068931402158432
    OS PPL corr. energy =    0.054124185807948
    SS PPL corr. energy =    0.014807216350485
    Largest TIA Amplitudes:
              6  33        -0.0373735241
              4  24        -0.0373731992
              3  25        -0.0287250575
              5  34        -0.0287249924
              3  26        -0.0267454782
              5  35        -0.0267454200
              2   3         0.0216362332
              2   2         0.0212195735
              2   5        -0.0191032822
              2   1         0.0111751575

    Largest Tia Amplitudes:
              4  35         0.0429871399
              3  25         0.0429864581
              4  34        -0.0290579526
              3  24        -0.0290574467
              2   3        -0.0217924587
              1   3         0.0195648627
              3  31        -0.0170605772
              4  41        -0.0170605081
              1   5        -0.0164168177
              2   0         0.0115985433

    Largest TIJAB Amplitudes:
      6   4  19   4        -0.0435084846
      6   4  33  24        -0.0346950362
      6   4  35  26        -0.0239212482
      4   2  26   3        -0.0193738426
      6   2  35   3        -0.0193738413
      6   4  33  27         0.0172846113
      6   4  36  24         0.0172845921
      6   4  36  27        -0.0167155384
      6   4  19   8        -0.0162640218
      6   4  20   4        -0.0162640218

    Largest Tijab Amplitudes:
      4   3  35  25        -0.0369447348
      4   2  35   3        -0.0235608703
      3   2  25   3        -0.0235608234
      4   3  35  24         0.0222599854
      4   3  34  25         0.0222599852
      4   3  35  27         0.0190348203
      4   3  37  25         0.0190347969
      4   3  35  26         0.0184444825
      4   3  36  25         0.0184444638
      4   3  36  26        -0.0184142873

    Largest TIjAb Amplitudes:
      2   2   3   3        -0.0400840910
      6   2  19  25         0.0396986137
      6   2   4  35        -0.0396986086
      4   2   4  25         0.0396986083
      4   2  19  35         0.0396986032
      6   1  19  25        -0.0294685096
      4   1   4  25        -0.0294685053
      6   1   4  35         0.0294685034
      4   1  19  35        -0.0294684991
      2   2   7   7        -0.0287831012

    SCF energy       (wfn)                    = -415.619974429184538
    Reference energy (file100)                = -415.619974429184992

    Opposite-spin MP2 correlation energy      =   -0.220052336912836
    Same-spin MP2 correlation energy          =   -0.087082919246991
    MP2 correlation energy                    =   -0.307135256159865
      * MP2 total energy                      = -415.927109685344874

    Opposite-spin CCSD correlation energy     =   -0.241204920663545
    Same-spin CCSD correlation energy         =   -0.077352579785498
    CCSD correlation energy                   =   -0.318557502714798
      * CCSD total energy                     = -415.938531931899774


*** tstop() called on cqc05 at Thu Aug 20 19:55:24 2020
Module time:
	user time   =       0.49 seconds =       0.01 minutes
	system time =       0.32 seconds =       0.01 minutes
	total time  =          2 seconds =       0.03 minutes
Total time:
	user time   =       2.06 seconds =       0.03 minutes
	system time =       0.48 seconds =       0.01 minutes
	total time  =          3 seconds =       0.05 minutes

*** Psi4 exiting successfully. Buy a developer a beer!
