
    -----------------------------------------------------------------------
          Psi4: An Open-Source Ab Initio Electronic Structure Package
                               Psi4 1.4a3.dev88 

                         Git: Rev {master} 262e345 


    D. G. A. Smith, L. A. Burns, A. C. Simmonett, R. M. Parrish,
    M. C. Schieber, R. Galvelis, P. Kraus, H. Kruse, R. Di Remigio,
    A. Alenaizan, A. M. James, S. Lehtola, J. P. Misiewicz, M. Scheurer,
    R. A. Shaw, J. B. Schriber, Y. Xie, Z. L. Glick, D. A. Sirianni,
    J. S. O'Brien, J. M. Waldrop, A. Kumar, E. G. Hohenstein,
    B. P. Pritchard, B. R. Brooks, H. F. Schaefer III, A. Yu. Sokolov,
    K. Patkowski, A. E. DePrince III, U. Bozkaya, R. A. King,
    F. A. Evangelista, J. M. Turney, T. D. Crawford, C. D. Sherrill,
    J. Chem. Phys. 152(18) 184108 (2020). https://doi.org/10.1063/5.0006002

                            Additional Code Authors
    E. T. Seidl, C. L. Janssen, E. F. Valeev, M. L. Leininger,
    J. F. Gonthier, R. M. Richard, H. R. McAlexander, M. Saitow, X. Wang,
    P. Verma, and M. H. Lechner

             Previous Authors, Complete List of Code Contributors,
                       and Citations for Specific Modules
    https://github.com/psi4/psi4/blob/master/codemeta.json
    https://github.com/psi4/psi4/graphs/contributors
    http://psicode.org/psi4manual/master/introduction.html#citing-psifour

    -----------------------------------------------------------------------


    Psi4 started on: Wednesday, 20 January 2021 07:49PM

    Process ID: 184034
    Host:       n412-037.vsc4.prov
    PSIDATADIR: /home/fs71337/gallo4/psi4/psi4/build/stage/share/psi4
    Memory:     500.0 MiB
    Threads:    48
    
  ==> Input File <==

--------------------------------------------------------------------------
# Any line starting with the # character is a comment line
memory 250000 mb
molecule molecule{
0 1
Cl         0.0000000000        0.0000000000       -0.0351730808
H          0.0000000000        0.0000000000        1.2371681191
}

set {
  reference rhf
  basis aug-cc-pv(q+d)z
  scf_type OUT_OF_CORE
  freeze_core true
}

energy('ccsd(t)')
--------------------------------------------------------------------------

  Memory set to 232.831 GiB by Python driver.

Scratch directory: /binfl/lv71337/airmler/temp/

*** tstart() called on n412-037.vsc4.prov
*** at Wed Jan 20 19:49:24 2021

   => Loading Basis Set <=

    Name: AUG-CC-PV(Q+D)Z
    Role: ORBITAL
    Keyword: BASIS
    atoms 1 entry CL         line  1262 file /home/fs71337/gallo4/psi4/psi4/build/stage/share/psi4/basis/aug-cc-pv_qpd_z.gbs 
    atoms 2 entry H          line    68 file /home/fs71337/gallo4/psi4/psi4/build/stage/share/psi4/basis/aug-cc-pv_qpd_z.gbs 


         ---------------------------------------------------------
                                   SCF
               by Justin Turney, Rob Parrish, Andy Simmonett
                          and Daniel G. A. Smith
                              RHF Reference
                       48 Threads, 238418 MiB Core
         ---------------------------------------------------------

  ==> Geometry <==

    Molecular point group: c2v
    Full point group: C_inf_v

    Geometry (in Angstrom), charge = 0, multiplicity = 1:

       Center              X                  Y                   Z               Mass       
    ------------   -----------------  -----------------  -----------------  -----------------
         CL           0.000000000000     0.000000000000    -0.035642460401    34.968852682000
         H            0.000000000000     0.000000000000     1.236698739499     1.007825032230

  Running in c2v symmetry.

  Rotational constants: A = ************  B =     10.63026  C =     10.63026 [cm^-1]
  Rotational constants: A = ************  B = 318687.14808  C = 318687.14808 [MHz]
  Nuclear repulsion =    7.070440367801534

  Charge       = 0
  Multiplicity = 1
  Electrons    = 18
  Nalpha       = 9
  Nbeta        = 9

  ==> Algorithm <==

  SCF Algorithm Type is OUT_OF_CORE.
  DIIS enabled.
  MOM disabled.
  Fractional occupation disabled.
  Guess Type is SAD.
  Energy threshold   = 1.00e-08
  Density threshold  = 1.00e-08
  Integral threshold = 1.00e-12

  ==> Primary Basis <==

  Basis Set: AUG-CC-PV(Q+D)Z
    Blend: AUG-CC-PV(Q+D)Z
    Number of shells: 37
    Number of basis function: 135
    Number of Cartesian functions: 170
    Spherical Harmonics?: true
    Max angular momentum: 4

  ==> Integral Setup <==

  ==> DiskJK: Disk-Based J/K Matrices <==

    J tasked:                  Yes
    K tasked:                  Yes
    wK tasked:                  No
    Memory [MiB]:           178813
    Schwarz Cutoff:          1E-12

  Minimum eigenvalue in the overlap matrix is 9.3825844411E-05.
  Reciprocal condition number of the overlap matrix is 1.6197885550E-05.
    Using symmetric orthogonalization.

  ==> Pre-Iterations <==

  SCF Guess: Superposition of Atomic Densities via on-the-fly atomic UHF (no occupation information).


 WARNING: Atomic UHF is not converging! Try casting from a smaller basis or call Rob at CCMST.

 WARNING: Atomic UHF is not converging! Try casting from a smaller basis or call Rob at CCMST.
   -------------------------
    Irrep   Nso     Nmo    
   -------------------------
     A1        54      54 
     A2        17      17 
     B1        32      32 
     B2        32      32 
   -------------------------
    Total     135     135
   -------------------------

  ==> Iterations <==

                        Total Energy        Delta E     RMS |[F,P]|

   @RHF iter SAD:  -278.28201262475835   -2.78282e+02   0.00000e+00 
    Occupation by irrep:
             A1    A2    B1    B2 
    DOCC [     6,    0,    1,    2 ]

   @RHF iter   1:  -446.95249535191783   -1.68670e+02   1.13309e-01 DIIS
    Occupation by irrep:
             A1    A2    B1    B2 
    DOCC [     5,    0,    2,    2 ]

   @RHF iter   2:  -451.48600663139541   -4.53351e+00   5.00647e-02 DIIS
   @RHF iter   3:  -459.06603336588205   -7.58003e+00   2.18322e-02 DIIS
   @RHF iter   4:  -460.09202252944021   -1.02599e+00   2.61903e-03 DIIS
   @RHF iter   5:  -460.11116821477674   -1.91457e-02   7.99134e-04 DIIS
   @RHF iter   6:  -460.11195602729043   -7.87813e-04   1.88661e-04 DIIS
   @RHF iter   7:  -460.11203937524874   -8.33480e-05   2.45629e-05 DIIS
   @RHF iter   8:  -460.11204376472847   -4.38948e-06   6.05868e-06 DIIS
   @RHF iter   9:  -460.11204407484144   -3.10113e-07   9.44003e-07 DIIS
   @RHF iter  10:  -460.11204408154100   -6.69957e-09   2.09144e-07 DIIS
   @RHF iter  11:  -460.11204408181936   -2.78362e-10   2.36595e-08 DIIS
   @RHF iter  12:  -460.11204408182311   -3.75167e-12   3.00293e-09 DIIS
  Energy and wave function converged.


  ==> Post-Iterations <==

    Orbital Energies [Eh]
    ---------------------

    Doubly Occupied:                                                      

       1A1  -104.848406     2A1   -10.574178     3A1    -8.041524  
       1B2    -8.039553     1B1    -8.039553     4A1    -1.117386  
       5A1    -0.626502     2B2    -0.477102     2B1    -0.477102  

    Virtual:                                                              

       6A1     0.025779     7A1     0.089216     3B2     0.097064  
       3B1     0.097064     8A1     0.122019     9A1     0.169662  
       4B1     0.201319     4B2     0.201319     1A2     0.258791  
      10A1     0.258791    11A1     0.275376     5B2     0.323912  
       5B1     0.323912    12A1     0.344074    13A1     0.429052  
       6B2     0.473759     6B1     0.473759    14A1     0.489232  
       7B2     0.577970     7B1     0.577970     2A2     0.619933  
      15A1     0.619933     3A2     0.687311    16A1     0.687311  
      17A1     0.688919     8B2     0.731610     8B1     0.731610  
       9B1     0.823152     9B2     0.823152    18A1     0.832709  
      19A1     0.928221    10B2     0.935529    10B1     0.935529  
       4A2     0.965009    20A1     0.965009    21A1     1.104291  
      11B2     1.301917    11B1     1.301917    22A1     1.366592  
      23A1     1.560208    12B2     1.566446    12B1     1.566446  
       5A2     1.605803    24A1     1.605803    13B1     1.608420  
      13B2     1.608420    25A1     1.706878    14B2     1.799736  
      14B1     1.799736    26A1     1.867525     6A2     1.867525  
      27A1     1.871363     7A2     1.871363    15B2     1.888177  
      15B1     1.888177    28A1     1.892132     8A2     1.972650  
      29A1     1.972650    16B1     2.055782    16B2     2.055782  
      17B1     2.098229    17B2     2.098229    18B2     2.109931  
      18B1     2.109931    30A1     2.146624     9A2     2.155657  
      31A1     2.155657    19B2     2.512388    19B1     2.512388  
      32A1     2.552567    33A1     2.789290    34A1     3.089430  
      20B2     3.151939    20B1     3.151939    10A2     3.158964  
      35A1     3.158964    36A1     3.444658    21B1     3.545710  
      21B2     3.545710    37A1     3.767422    11A2     3.767422  
      38A1     3.900036    22B1     4.156845    22B2     4.156845  
      39A1     4.219634    12A2     4.635360    40A1     4.635360  
      23B1     4.697804    23B2     4.697804    41A1     4.716820  
      13A2     4.716820    24B1     4.721212    24B2     4.721212  
      25B1     4.726718    25B2     4.726718    14A2     4.848230  
      42A1     4.848230    43A1     5.022661    26B1     5.292860  
      26B2     5.292860    44A1     5.328770    27B1     6.255373  
      27B2     6.255373    28B1     6.580779    28B2     6.580779  
      15A2     7.073401    45A1     7.073401    46A1     7.279978  
      29B1     7.667697    29B2     7.667697    47A1     7.789536  
      48A1     8.269057    16A2     8.686347    49A1     8.686347  
      30B1     8.849740    30B2     8.849740    31B2     9.374512  
      31B1     9.374512    50A1     9.702372    51A1    11.128577  
      52A1    11.381053    17A2    11.381053    32B1    11.596756  
      32B2    11.596756    53A1    12.332772    54A1    25.913892  

    Final Occupation by Irrep:
             A1    A2    B1    B2 
    DOCC [     5,    0,    2,    2 ]

  @RHF Final Energy:  -460.11204408182311

   => Energetics <=

    Nuclear Repulsion Energy =              7.0704403678015337
    One-Electron Energy =                -649.8823599063056236
    Two-Electron Energy =                 182.6998754566809851
    Total Energy =                       -460.1120440818231145

Computation Completed


Properties will be evaluated at   0.000000,   0.000000,   0.000000 [a0]

Properties computed using the SCF density matrix

  Nuclear Dipole Moment: [e a0]
     X:     0.0000      Y:     0.0000      Z:     1.1920

  Electronic Dipole Moment: [e a0]
     X:     0.0000      Y:     0.0000      Z:    -0.7284

  Dipole Moment: [e a0]
     X:     0.0000      Y:     0.0000      Z:     0.4636     Total:     0.4636

  Dipole Moment: [D]
     X:     0.0000      Y:     0.0000      Z:     1.1784     Total:     1.1784


*** tstop() called on n412-037.vsc4.prov at Wed Jan 20 19:49:40 2021
Module time:
	user time   =      52.60 seconds =       0.88 minutes
	system time =       2.86 seconds =       0.05 minutes
	total time  =         16 seconds =       0.27 minutes
Total time:
	user time   =      52.60 seconds =       0.88 minutes
	system time =       2.86 seconds =       0.05 minutes
	total time  =         16 seconds =       0.27 minutes

*** tstart() called on n412-037.vsc4.prov
*** at Wed Jan 20 19:49:40 2021


	Wfn Parameters:
	--------------------
	Wavefunction         = CCSD_T
	Number of irreps     = 4
	Number of MOs        = 135
	Number of active MOs = 130
	AO-Basis             = NONE
	Semicanonical        = false
	Reference            = RHF
	Print Level          = 1

	IRREP	# MOs	# FZDC	# DOCC	# SOCC	# VIRT	# FZVR
	-----	-----	------	------	------	------	------
	 A1	   54	    3	    2	    0	    49	    0
	 A2	   17	    0	    0	    0	    17	    0
	 B1	   32	    1	    1	    0	    30	    0
	 B2	   32	    1	    1	    0	    30	    0
	Transforming integrals...
	IWL integrals will be deleted.
	(OO|OO)...
	Presorting SO-basis two-electron integrals.
	Sorting File: SO Ints (nn|nn) nbuckets = 1
	Constructing frozen core operators
	Starting first half-transformation.
	Sorting half-transformed integrals.
	First half integral transformation complete.
	Starting second half-transformation.
	Two-electron integral transformation complete.
	(OO|OV)...
	Starting second half-transformation.
	Two-electron integral transformation complete.
	(OO|VV)...
	Starting second half-transformation.
	Two-electron integral transformation complete.
	(OV|OO)...
	Starting first half-transformation.
	Sorting half-transformed integrals.
	First half integral transformation complete.
	Starting second half-transformation.
	Two-electron integral transformation complete.
	(OV|OV)...
	Starting second half-transformation.
	Two-electron integral transformation complete.
	(OV|VV)...
	Starting second half-transformation.
	Two-electron integral transformation complete.
	(VV|OO)...
	Starting first half-transformation.
	Sorting half-transformed integrals.
	First half integral transformation complete.
	Starting second half-transformation.
	Two-electron integral transformation complete.
	(VV|OV)...
	Starting second half-transformation.
	Two-electron integral transformation complete.
	(VV|VV)...
	Starting second half-transformation.
	Two-electron integral transformation complete.
	Frozen core energy     =   -448.90611935015409

	Size of irrep 0 of <ab|cd> integrals:     20.160 (MW) /    161.281 (MB)
	Size of irrep 1 of <ab|cd> integrals:     12.013 (MW) /     96.105 (MB)
	Size of irrep 2 of <ab|cd> integrals:     15.682 (MW) /    125.453 (MB)
	Size of irrep 3 of <ab|cd> integrals:     15.682 (MW) /    125.453 (MB)
	Total:                                    63.536 (MW) /    508.292 (MB)

	Size of irrep 0 of <ia|bc> integrals:      0.709 (MW) /      5.675 (MB)
	Size of irrep 1 of <ia|bc> integrals:      0.326 (MW) /      2.606 (MB)
	Size of irrep 2 of <ia|bc> integrals:      0.499 (MW) /      3.992 (MB)
	Size of irrep 3 of <ia|bc> integrals:      0.499 (MW) /      3.992 (MB)
	Total:                                     2.033 (MW) /     16.265 (MB)

	Size of irrep 0 of tijab amplitudes:       0.027 (MW) /      0.216 (MB)
	Size of irrep 1 of tijab amplitudes:       0.007 (MW) /      0.055 (MB)
	Size of irrep 2 of tijab amplitudes:       0.016 (MW) /      0.127 (MB)
	Size of irrep 3 of tijab amplitudes:       0.016 (MW) /      0.127 (MB)
	Total:                                     0.066 (MW) /      0.524 (MB)

	Nuclear Rep. energy          =      7.07044036780153
	SCF energy                   =   -460.11204408182311
	One-electron energy          =    -31.15654969570392
	Two-electron energy          =     12.88018459623397
	Reference energy             =   -460.11204408182249

*** tstop() called on n412-037.vsc4.prov at Wed Jan 20 19:49:56 2021
Module time:
	user time   =       4.49 seconds =       0.07 minutes
	system time =       1.98 seconds =       0.03 minutes
	total time  =         16 seconds =       0.27 minutes
Total time:
	user time   =      57.10 seconds =       0.95 minutes
	system time =       4.84 seconds =       0.08 minutes
	total time  =         32 seconds =       0.53 minutes
            **************************
            *                        *
            *        CCENERGY        *
            *                        *
            **************************

    Nuclear Rep. energy (wfn)     =    7.070440367801534
    SCF energy          (wfn)     = -460.112044081823115
    Reference energy    (file100) = -460.112044081822489

    Input parameters:
    -----------------
    Wave function   =     CCSD_T
    Reference wfn   =     RHF
    Brueckner       =     No
    Memory (Mbytes) =     250000.0
    Maxiter         =     50
    R_Convergence   =     1.0e-07
    E_Convergence   =     1.0e-06
    Restart         =     Yes
    DIIS            =     Yes
    AO Basis        =     NONE
    ABCD            =     NEW
    Cache Level     =     2
    Cache Type      =     LOW
    Print Level     =     1
    Num. of threads =     48
    # Amps to Print =     10
    Print MP2 Amps? =     No
    Analyze T2 Amps =     No
    Print Pair Ener =     No
    Local CC        =     No
    SCS-MP2         =     False
    SCSN-MP2        =     False
    SCS-CCSD        =     False

MP2 correlation energy -0.2252550464227310
                Solving CC Amplitude Equations
                ------------------------------
  Iter             Energy              RMS        T1Diag      D1Diag    New D1Diag    D2Diag
  ----     ---------------------    ---------   ----------  ----------  ----------   --------
     0        -0.225255046422731    0.000e+00    0.000000    0.000000    0.000000    0.128832
     1        -0.238536327886968    3.569e-02    0.004718    0.007775    0.007775    0.139578
     2        -0.243662221373229    1.108e-02    0.005765    0.010220    0.010220    0.144717
     3        -0.243881431250769    2.572e-03    0.006222    0.011065    0.011065    0.145367
     4        -0.243862397497428    7.541e-04    0.006363    0.011403    0.011403    0.145583
     5        -0.243863620185836    1.729e-04    0.006396    0.011470    0.011470    0.145603
     6        -0.243862283657565    5.091e-05    0.006408    0.011494    0.011494    0.145594
     7        -0.243862177706357    1.498e-05    0.006411    0.011502    0.011502    0.145590
     8        -0.243862302518827    4.451e-06    0.006412    0.011504    0.011504    0.145589
     9        -0.243862258508848    1.200e-06    0.006412    0.011504    0.011504    0.145589
    10        -0.243862244810678    3.343e-07    0.006412    0.011504    0.011504    0.145589
    11        -0.243862253009258    8.735e-08    0.006412    0.011504    0.011504    0.145589

    Iterations converged.


    Largest TIA Amplitudes:
              2  70         0.0051121868
              3 100         0.0051121867
              3  97        -0.0049211447
              2  67        -0.0049211447
              1   3         0.0048397531
              1  12        -0.0044820095
              1  11        -0.0043865690
              1   8        -0.0043134309
              1   5         0.0040495127
              2  68         0.0040092823

    Largest TIjAb Amplitudes:
      1   1   8   8        -0.0201724963
      1   1   3   3        -0.0194309313
      2   2  69  69        -0.0192668002
      3   3  99  99        -0.0192667989
      1   1   5   5        -0.0191886306
      1   1   3   8         0.0183714967
      1   1   8   3         0.0183714967
      1   1   2   2        -0.0178649154
      1   1   3   5        -0.0176243308
      1   1   5   3        -0.0176243308

    SCF energy       (wfn)                    = -460.112044081823115
    Reference energy (file100)                = -460.112044081822489

    Opposite-spin MP2 correlation energy      =   -0.175465321390571
    Same-spin MP2 correlation energy          =   -0.049789725032160
    Singles MP2 correlation energy            =   -0.000000000000000
    MP2 correlation energy                    =   -0.225255046422731
      * MP2 total energy                      = -460.337299128245206

    Opposite-spin CCSD correlation energy     =   -0.195751697316497
    Same-spin CCSD correlation energy         =   -0.048110555692757
    Singles CCSD correlation energy           =    0.000000000000000
    CCSD correlation energy                   =   -0.243862253009258
      * CCSD total energy                     = -460.355906334831730

            **************************
            *                        *
            *        CCTRIPLES       *
            *                        *
            **************************


    Wave function   =    CCSD_T
    Reference wfn   =      RHF

    Nuclear Rep. energy (wfn)                =    7.070440367801534
    SCF energy          (wfn)                = -460.112044081823115
    Reference energy    (file100)            = -460.112044081822489
    CCSD energy         (file100)            =   -0.243862253009258
    Total CCSD energy   (file100)            = -460.355906334831730

    Number of ijk index combinations:               20
    Memory available in words        :     31250000000
    ~Words needed per explicit thread:          470596
    Number of threads for explicit ijk threading:   48

    (T) energy                                =   -0.009913380090536
      * CCSD(T) total energy                  = -460.365819714922281


    Psi4 stopped on: Wednesday, 20 January 2021 07:50PM
    Psi4 wall time for execution: 0:00:41.38

*** Psi4 exiting successfully. Buy a developer a beer!
