
    -----------------------------------------------------------------------
          Psi4: An Open-Source Ab Initio Electronic Structure Package
                               Psi4 1.4a3.dev88 

                         Git: Rev {master} 262e345 


    D. G. A. Smith, L. A. Burns, A. C. Simmonett, R. M. Parrish,
    M. C. Schieber, R. Galvelis, P. Kraus, H. Kruse, R. Di Remigio,
    A. Alenaizan, A. M. James, S. Lehtola, J. P. Misiewicz, M. Scheurer,
    R. A. Shaw, J. B. Schriber, Y. Xie, Z. L. Glick, D. A. Sirianni,
    J. S. O'Brien, J. M. Waldrop, A. Kumar, E. G. Hohenstein,
    B. P. Pritchard, B. R. Brooks, H. F. Schaefer III, A. Yu. Sokolov,
    K. Patkowski, A. E. DePrince III, U. Bozkaya, R. A. King,
    F. A. Evangelista, J. M. Turney, T. D. Crawford, C. D. Sherrill,
    J. Chem. Phys. 152(18) 184108 (2020). https://doi.org/10.1063/5.0006002

                            Additional Code Authors
    E. T. Seidl, C. L. Janssen, E. F. Valeev, M. L. Leininger,
    J. F. Gonthier, R. M. Richard, H. R. McAlexander, M. Saitow, X. Wang,
    P. Verma, and M. H. Lechner

             Previous Authors, Complete List of Code Contributors,
                       and Citations for Specific Modules
    https://github.com/psi4/psi4/blob/master/codemeta.json
    https://github.com/psi4/psi4/graphs/contributors
    http://psicode.org/psi4manual/master/introduction.html#citing-psifour

    -----------------------------------------------------------------------


    Psi4 started on: Tuesday, 26 January 2021 06:19PM

    Process ID: 403994
    Host:       n412-039.vsc4.prov
    PSIDATADIR: /home/fs71337/gallo4/psi4/eri-6/psi4/build/stage/share/psi4
    Memory:     500.0 MiB
    Threads:    48
    
  ==> Input File <==

--------------------------------------------------------------------------
# Any line starting with the # character is a comment line
memory 250000 mb
molecule molecule{
0 1
Cl         0.0000000000        0.0000000000       -0.0351730808
H          0.0000000000        0.0000000000        1.2371681191
}

set {
  reference rhf
  basis aug-cc-pV(d+d)Z
  scf_type OUT_OF_CORE
  freeze_core true
}

energy('ccsd(t)')
--------------------------------------------------------------------------

  Memory set to 232.831 GiB by Python driver.

Scratch directory: /binfl/lv71337/airmler/temp/

*** tstart() called on n412-039.vsc4.prov
*** at Tue Jan 26 18:19:03 2021

   => Loading Basis Set <=

    Name: AUG-CC-PV(D+D)Z
    Role: ORBITAL
    Keyword: BASIS
    atoms 1 entry CL         line   808 file /home/fs71337/gallo4/psi4/eri-6/psi4/build/stage/share/psi4/basis/aug-cc-pv_dpd_z.gbs 
    atoms 2 entry H          line    68 file /home/fs71337/gallo4/psi4/eri-6/psi4/build/stage/share/psi4/basis/aug-cc-pv_dpd_z.gbs 


         ---------------------------------------------------------
                                   SCF
               by Justin Turney, Rob Parrish, Andy Simmonett
                          and Daniel G. A. Smith
                              RHF Reference
                       48 Threads, 238418 MiB Core
         ---------------------------------------------------------

  ==> Geometry <==

    Molecular point group: c2v
    Full point group: C_inf_v

    Geometry (in Angstrom), charge = 0, multiplicity = 1:

       Center              X                  Y                   Z               Mass       
    ------------   -----------------  -----------------  -----------------  -----------------
         CL           0.000000000000     0.000000000000    -0.035642460401    34.968852682000
         H            0.000000000000     0.000000000000     1.236698739499     1.007825032230

  Running in c2v symmetry.

  Rotational constants: A = ************  B =     10.63026  C =     10.63026 [cm^-1]
  Rotational constants: A = ************  B = 318687.14808  C = 318687.14808 [MHz]
  Nuclear repulsion =    7.070440367801534

  Charge       = 0
  Multiplicity = 1
  Electrons    = 18
  Nalpha       = 9
  Nbeta        = 9

  ==> Algorithm <==

  SCF Algorithm Type is OUT_OF_CORE.
  DIIS enabled.
  MOM disabled.
  Fractional occupation disabled.
  Guess Type is SAD.
  Energy threshold   = 1.00e-08
  Density threshold  = 1.00e-08
  Integral threshold = 1.00e-12

  ==> Primary Basis <==

  Basis Set: AUG-CC-PV(D+D)Z
    Blend: AUG-CC-PV(D+D)Z
    Number of shells: 17
    Number of basis function: 41
    Number of Cartesian functions: 44
    Spherical Harmonics?: true
    Max angular momentum: 2

  ==> Integral Setup <==

  ==> DiskJK: Disk-Based J/K Matrices <==

    J tasked:                  Yes
    K tasked:                  Yes
    wK tasked:                  No
    Memory [MiB]:           178813
    Schwarz Cutoff:          1E-12

  Minimum eigenvalue in the overlap matrix is 2.2545458537E-03.
  Reciprocal condition number of the overlap matrix is 5.5038404590E-04.
    Using symmetric orthogonalization.

  ==> Pre-Iterations <==

  SCF Guess: Superposition of Atomic Densities via on-the-fly atomic UHF (no occupation information).


 WARNING: Atomic UHF is not converging! Try casting from a smaller basis or call Rob at CCMST.
   -------------------------
    Irrep   Nso     Nmo    
   -------------------------
     A1        20      20 
     A2         3       3 
     B1         9       9 
     B2         9       9 
   -------------------------
    Total      41      41
   -------------------------

  ==> Iterations <==

                        Total Energy        Delta E     RMS |[F,P]|

   @RHF iter SAD:  -457.46962352685824   -4.57470e+02   0.00000e+00 
   @RHF iter   1:  -459.95911834684244   -2.48949e+00   1.99879e-02 DIIS
   @RHF iter   2:  -460.08113725262541   -1.22019e-01   6.96861e-03 DIIS
   @RHF iter   3:  -460.09444728745342   -1.33100e-02   6.80091e-04 DIIS
   @RHF iter   4:  -460.09471050866307   -2.63221e-04   2.36227e-04 DIIS
   @RHF iter   5:  -460.09475195152629   -4.14429e-05   7.04342e-05 DIIS
   @RHF iter   6:  -460.09475650030811   -4.54878e-06   9.64727e-06 DIIS
   @RHF iter   7:  -460.09475658371639   -8.34083e-08   8.63533e-07 DIIS
   @RHF iter   8:  -460.09475658431808   -6.01688e-10   1.77982e-07 DIIS
   @RHF iter   9:  -460.09475658434542   -2.73417e-11   2.42447e-08 DIIS
   @RHF iter  10:  -460.09475658434570   -2.84217e-13   3.27321e-09 DIIS
  Energy and wave function converged.


  ==> Post-Iterations <==

    Orbital Energies [Eh]
    ---------------------

    Doubly Occupied:                                                      

       1A1  -104.850162     2A1   -10.575977     3A1    -8.043989  
       1B1    -8.040408     1B2    -8.040408     4A1    -1.119449  
       5A1    -0.628237     2B2    -0.477287     2B1    -0.477287  

    Virtual:                                                              

       6A1     0.035527     7A1     0.125291     3B2     0.138132  
       3B1     0.138132     8A1     0.182401     9A1     0.213454  
       4B2     0.315938     4B1     0.315938     1A2     0.459463  
      10A1     0.459463    11A1     0.481799    12A1     0.574238  
       5B1     0.595493     5B2     0.595493    13A1     0.898175  
       6B2     0.922710     6B1     0.922710    14A1     1.034100  
       2A2     1.284683    15A1     1.284683     7B1     1.308608  
       7B2     1.308608    16A1     1.352336    17A1     1.792702  
       8B2     1.833312     8B1     1.833312    18A1     2.416564  
       3A2     5.958441    19A1     5.958441     9B1     6.008254  
       9B2     6.008254    20A1     6.105072  

    Final Occupation by Irrep:
             A1    A2    B1    B2 
    DOCC [     5,    0,    2,    2 ]

  @RHF Final Energy:  -460.09475658434570

   => Energetics <=

    Nuclear Repulsion Energy =              7.0704403678015337
    One-Electron Energy =                -649.8239878806452907
    Two-Electron Energy =                 182.6587909284980071
    Total Energy =                       -460.0947565843457596

Computation Completed


Properties will be evaluated at   0.000000,   0.000000,   0.000000 [a0]

Properties computed using the SCF density matrix

  Nuclear Dipole Moment: [e a0]
     X:     0.0000      Y:     0.0000      Z:     1.1920

  Electronic Dipole Moment: [e a0]
     X:     0.0000      Y:     0.0000      Z:    -0.7156

  Dipole Moment: [e a0]
     X:     0.0000      Y:     0.0000      Z:     0.4764     Total:     0.4764

  Dipole Moment: [D]
     X:     0.0000      Y:     0.0000      Z:     1.2108     Total:     1.2108


*** tstop() called on n412-039.vsc4.prov at Tue Jan 26 18:19:05 2021
Module time:
	user time   =      14.99 seconds =       0.25 minutes
	system time =       1.54 seconds =       0.03 minutes
	total time  =          2 seconds =       0.03 minutes
Total time:
	user time   =      14.99 seconds =       0.25 minutes
	system time =       1.54 seconds =       0.03 minutes
	total time  =          2 seconds =       0.03 minutes

*** tstart() called on n412-039.vsc4.prov
*** at Tue Jan 26 18:19:05 2021


	Wfn Parameters:
	--------------------
	Wavefunction         = CCSD_T
	Number of irreps     = 4
	Number of MOs        = 41
	Number of active MOs = 36
	AO-Basis             = NONE
	Semicanonical        = false
	Reference            = RHF
	Print Level          = 1

	IRREP	# MOs	# FZDC	# DOCC	# SOCC	# VIRT	# FZVR
	-----	-----	------	------	------	------	------
	 A1	   20	    3	    2	    0	    15	    0
	 A2	   3	    0	    0	    0	    3	    0
	 B1	   9	    1	    1	    0	    7	    0
	 B2	   9	    1	    1	    0	    7	    0
	Transforming integrals...
	IWL integrals will be deleted.
	(OO|OO)...
	Presorting SO-basis two-electron integrals.
	Sorting File: SO Ints (nn|nn) nbuckets = 1
	Constructing frozen core operators
	Starting first half-transformation.
	Sorting half-transformed integrals.
	First half integral transformation complete.
	Starting second half-transformation.
	Two-electron integral transformation complete.
	(OO|OV)...
	Starting second half-transformation.
	Two-electron integral transformation complete.
	(OO|VV)...
	Starting second half-transformation.
	Two-electron integral transformation complete.
	(OV|OO)...
	Starting first half-transformation.
	Sorting half-transformed integrals.
	First half integral transformation complete.
	Starting second half-transformation.
	Two-electron integral transformation complete.
	(OV|OV)...
	Starting second half-transformation.
	Two-electron integral transformation complete.
	(OV|VV)...
	Starting second half-transformation.
	Two-electron integral transformation complete.
	(VV|OO)...
	Starting first half-transformation.
	Sorting half-transformed integrals.
	First half integral transformation complete.
	Starting second half-transformation.
	Two-electron integral transformation complete.
	(VV|OV)...
	Starting second half-transformation.
	Two-electron integral transformation complete.
	(VV|VV)...
	Starting second half-transformation.
	Two-electron integral transformation complete.
	Frozen core energy     =   -448.89595765149102

	Size of irrep 0 of <ab|cd> integrals:      0.110 (MW) /      0.882 (MB)
	Size of irrep 1 of <ab|cd> integrals:      0.035 (MW) /      0.283 (MB)
	Size of irrep 2 of <ab|cd> integrals:      0.064 (MW) /      0.508 (MB)
	Size of irrep 3 of <ab|cd> integrals:      0.064 (MW) /      0.508 (MB)
	Total:                                     0.273 (MW) /      2.181 (MB)

	Size of irrep 0 of <ia|bc> integrals:      0.015 (MW) /      0.117 (MB)
	Size of irrep 1 of <ia|bc> integrals:      0.004 (MW) /      0.030 (MB)
	Size of irrep 2 of <ia|bc> integrals:      0.008 (MW) /      0.065 (MB)
	Size of irrep 3 of <ia|bc> integrals:      0.008 (MW) /      0.065 (MB)
	Total:                                     0.034 (MW) /      0.276 (MB)

	Size of irrep 0 of tijab amplitudes:       0.002 (MW) /      0.016 (MB)
	Size of irrep 1 of tijab amplitudes:       0.000 (MW) /      0.003 (MB)
	Size of irrep 2 of tijab amplitudes:       0.001 (MW) /      0.008 (MB)
	Size of irrep 3 of tijab amplitudes:       0.001 (MW) /      0.008 (MB)
	Total:                                     0.004 (MW) /      0.035 (MB)

	Nuclear Rep. energy          =      7.07044036780153
	SCF energy                   =   -460.09475658434570
	One-electron energy          =    -31.13395944909056
	Two-electron energy          =     12.86472014843466
	Reference energy             =   -460.09475658434536

*** tstop() called on n412-039.vsc4.prov at Tue Jan 26 18:19:06 2021
Module time:
	user time   =       0.06 seconds =       0.00 minutes
	system time =       0.09 seconds =       0.00 minutes
	total time  =          1 seconds =       0.02 minutes
Total time:
	user time   =      15.05 seconds =       0.25 minutes
	system time =       1.63 seconds =       0.03 minutes
	total time  =          3 seconds =       0.05 minutes
            **************************
            *                        *
            *        CCENERGY        *
            *                        *
            **************************

    Nuclear Rep. energy (wfn)     =    7.070440367801534
    SCF energy          (wfn)     = -460.094756584345703
    Reference energy    (file100) = -460.094756584345362

    Input parameters:
    -----------------
    Wave function   =     CCSD_T
    Reference wfn   =     RHF
    Brueckner       =     No
    Memory (Mbytes) =     250000.0
    Maxiter         =     50
    R_Convergence   =     1.0e-07
    E_Convergence   =     1.0e-06
    Restart         =     Yes
    DIIS            =     Yes
    AO Basis        =     NONE
    ABCD            =     NEW
    Cache Level     =     2
    Cache Type      =     LOW
    Print Level     =     1
    Num. of threads =     48
    # Amps to Print =     10
    Print MP2 Amps? =     No
    Analyze T2 Amps =     No
    Print Pair Ener =     No
    Local CC        =     No
    SCS-MP2         =     False
    SCSN-MP2        =     False
    SCS-CCSD        =     False

MP2 correlation energy -0.1624076907019900
                Solving CC Amplitude Equations
                ------------------------------
  Iter             Energy              RMS        T1Diag      D1Diag    New D1Diag    D2Diag
  ----     ---------------------    ---------   ----------  ----------  ----------   --------
     0        -0.162407690701990    0.000e+00    0.000000    0.000000    0.000000    0.119532
     1        -0.176312029052067    3.486e-02    0.004786    0.009006    0.009006    0.133012
     2        -0.180155695864864    1.086e-02    0.006282    0.012371    0.012371    0.139198
     3        -0.180403273060717    2.282e-03    0.006768    0.013200    0.013200    0.140130
     4        -0.180410309592205    5.670e-04    0.006852    0.013387    0.013387    0.140351
     5        -0.180404188714526    1.086e-04    0.006866    0.013416    0.013416    0.140354
     6        -0.180403708705447    2.784e-05    0.006870    0.013423    0.013423    0.140351
     7        -0.180403999792987    8.504e-06    0.006871    0.013426    0.013426    0.140350
     8        -0.180404002300489    2.172e-06    0.006871    0.013426    0.013426    0.140349
     9        -0.180403975875185    6.207e-07    0.006871    0.013426    0.013426    0.140349
    10        -0.180403975598995    1.730e-07    0.006871    0.013426    0.013426    0.140349
    11        -0.180403978791460    4.498e-08    0.006871    0.013426    0.013426    0.140349

    Iterations converged.


    Largest TIA Amplitudes:
              1   5         0.0080404473
              3  26         0.0074200930
              2  19         0.0074200918
              1  10         0.0065478617
              3  25         0.0053454571
              2  18         0.0053454569
              1   8         0.0052699712
              1   3         0.0034399859
              1   1         0.0034149544
              0  11         0.0027666330

    Largest TIjAb Amplitudes:
      1   1   2   2        -0.0450606037
      2   2   4   4        -0.0324938309
      2   2  15  15        -0.0324938308
      3   3  15  15        -0.0324938307
      3   3   4   4        -0.0324938306
      3   3  28  28        -0.0276840585
      2   2  21  21        -0.0276840584
      1   1   7   7        -0.0237982213
      1   1   5   5        -0.0236695992
      1   1   2   7        -0.0226020380

    SCF energy       (wfn)                    = -460.094756584345703
    Reference energy (file100)                = -460.094756584345362

    Opposite-spin MP2 correlation energy      =   -0.121567905646234
    Same-spin MP2 correlation energy          =   -0.040839785055756
    Singles MP2 correlation energy            =   -0.000000000000000
    MP2 correlation energy                    =   -0.162407690701990
      * MP2 total energy                      = -460.257164275047330

    Opposite-spin CCSD correlation energy     =   -0.140872507594572
    Same-spin CCSD correlation energy         =   -0.039531471196888
    Singles CCSD correlation energy           =    0.000000000000000
    CCSD correlation energy                   =   -0.180403978791460
      * CCSD total energy                     = -460.275160563136808

            **************************
            *                        *
            *        CCTRIPLES       *
            *                        *
            **************************


    Wave function   =    CCSD_T
    Reference wfn   =      RHF

    Nuclear Rep. energy (wfn)                =    7.070440367801534
    SCF energy          (wfn)                = -460.094756584345703
    Reference energy    (file100)            = -460.094756584345362
    CCSD energy         (file100)            =   -0.180403978791460
    Total CCSD energy   (file100)            = -460.275160563136808

    Number of ijk index combinations:               20
    Memory available in words        :     31250000000
    ~Words needed per explicit thread:           13500
    Number of threads for explicit ijk threading:   48

    (T) energy                                =   -0.004343322066252
      * CCSD(T) total energy                  = -460.279503885203098


    Psi4 stopped on: Tuesday, 26 January 2021 06:19PM
    Psi4 wall time for execution: 0:00:04.82

*** Psi4 exiting successfully. Buy a developer a beer!
