
    -----------------------------------------------------------------------
          Psi4: An Open-Source Ab Initio Electronic Structure Package
                               Psi4 1.4a3.dev88 

                         Git: Rev {master} 262e345 


    D. G. A. Smith, L. A. Burns, A. C. Simmonett, R. M. Parrish,
    M. C. Schieber, R. Galvelis, P. Kraus, H. Kruse, R. Di Remigio,
    A. Alenaizan, A. M. James, S. Lehtola, J. P. Misiewicz, M. Scheurer,
    R. A. Shaw, J. B. Schriber, Y. Xie, Z. L. Glick, D. A. Sirianni,
    J. S. O'Brien, J. M. Waldrop, A. Kumar, E. G. Hohenstein,
    B. P. Pritchard, B. R. Brooks, H. F. Schaefer III, A. Yu. Sokolov,
    K. Patkowski, A. E. DePrince III, U. Bozkaya, R. A. King,
    F. A. Evangelista, J. M. Turney, T. D. Crawford, C. D. Sherrill,
    J. Chem. Phys. 152(18) 184108 (2020). https://doi.org/10.1063/5.0006002

                            Additional Code Authors
    E. T. Seidl, C. L. Janssen, E. F. Valeev, M. L. Leininger,
    J. F. Gonthier, R. M. Richard, H. R. McAlexander, M. Saitow, X. Wang,
    P. Verma, and M. H. Lechner

             Previous Authors, Complete List of Code Contributors,
                       and Citations for Specific Modules
    https://github.com/psi4/psi4/blob/master/codemeta.json
    https://github.com/psi4/psi4/graphs/contributors
    http://psicode.org/psi4manual/master/introduction.html#citing-psifour

    -----------------------------------------------------------------------


    Psi4 started on: Thursday, 21 January 2021 05:46PM

    Process ID: 444867
    Host:       n412-045.vsc4.prov
    PSIDATADIR: /home/fs71337/gallo4/psi4/psi4/build/stage/share/psi4
    Memory:     500.0 MiB
    Threads:    48
    
  ==> Input File <==

--------------------------------------------------------------------------
# Any line starting with the # character is a comment line
memory 250000 mb
molecule molecule{
0 1
Cl         0.0000000000        0.0000000000       -0.0351730808
H          0.0000000000        0.0000000000        1.2371681191
}

set {
  reference rhf
  basis aug-cc-pV(5+d)Z
  scf_type OUT_OF_CORE
  freeze_core true
}

energy('ccsd(t)')
--------------------------------------------------------------------------

  Memory set to 232.831 GiB by Python driver.

Scratch directory: /binfl/lv71337/airmler/temp/

*** tstart() called on n412-045.vsc4.prov
*** at Thu Jan 21 17:46:20 2021

   => Loading Basis Set <=

    Name: AUG-CC-PV(5+D)Z
    Role: ORBITAL
    Keyword: BASIS
    atoms 1 entry CL         line  1572 file /home/fs71337/gallo4/psi4/psi4/build/stage/share/psi4/basis/aug-cc-pv_5pd_z.gbs 
    atoms 2 entry H          line    69 file /home/fs71337/gallo4/psi4/psi4/build/stage/share/psi4/basis/aug-cc-pv_5pd_z.gbs 


         ---------------------------------------------------------
                                   SCF
               by Justin Turney, Rob Parrish, Andy Simmonett
                          and Daniel G. A. Smith
                              RHF Reference
                       48 Threads, 238418 MiB Core
         ---------------------------------------------------------

  ==> Geometry <==

    Molecular point group: c2v
    Full point group: C_inf_v

    Geometry (in Angstrom), charge = 0, multiplicity = 1:

       Center              X                  Y                   Z               Mass       
    ------------   -----------------  -----------------  -----------------  -----------------
         CL           0.000000000000     0.000000000000    -0.035642460401    34.968852682000
         H            0.000000000000     0.000000000000     1.236698739499     1.007825032230

  Running in c2v symmetry.

  Rotational constants: A = ************  B =     10.63026  C =     10.63026 [cm^-1]
  Rotational constants: A = ************  B = 318687.14808  C = 318687.14808 [MHz]
  Nuclear repulsion =    7.070440367801534

  Charge       = 0
  Multiplicity = 1
  Electrons    = 18
  Nalpha       = 9
  Nbeta        = 9

  ==> Algorithm <==

  SCF Algorithm Type is OUT_OF_CORE.
  DIIS enabled.
  MOM disabled.
  Fractional occupation disabled.
  Guess Type is SAD.
  Energy threshold   = 1.00e-08
  Density threshold  = 1.00e-08
  Integral threshold = 1.00e-12

  ==> Primary Basis <==

  Basis Set: AUG-CC-PV(5+D)Z
    Blend: AUG-CC-PV(5+D)Z
    Number of shells: 50
    Number of basis function: 216
    Number of Cartesian functions: 297
    Spherical Harmonics?: true
    Max angular momentum: 5

  ==> Integral Setup <==

  ==> DiskJK: Disk-Based J/K Matrices <==

    J tasked:                  Yes
    K tasked:                  Yes
    wK tasked:                  No
    Memory [MiB]:           178813
    Schwarz Cutoff:          1E-12

  Minimum eigenvalue in the overlap matrix is 2.8931244645E-05.
  Reciprocal condition number of the overlap matrix is 4.3893672769E-06.
    Using symmetric orthogonalization.

  ==> Pre-Iterations <==

  SCF Guess: Superposition of Atomic Densities via on-the-fly atomic UHF (no occupation information).


 WARNING: Atomic UHF is not converging! Try casting from a smaller basis or call Rob at CCMST.

 WARNING: Atomic UHF is not converging! Try casting from a smaller basis or call Rob at CCMST.
   -------------------------
    Irrep   Nso     Nmo    
   -------------------------
     A1        81      81 
     A2        31      31 
     B1        52      52 
     B2        52      52 
   -------------------------
    Total     216     216
   -------------------------

  ==> Iterations <==

                        Total Energy        Delta E     RMS |[F,P]|

   @RHF iter SAD:   151.63578423765861    1.51636e+02   0.00000e+00 
    Occupation by irrep:
             A1    A2    B1    B2 
    DOCC [     6,    0,    1,    2 ]

   @RHF iter   1:  -450.34464666427050   -6.01980e+02   8.22364e-02 DIIS
    Occupation by irrep:
             A1    A2    B1    B2 
    DOCC [     5,    0,    2,    2 ]

   @RHF iter   2:  -453.11824845094537   -2.77360e+00   3.29312e-02 DIIS
   @RHF iter   3:  -459.28584689298935   -6.16760e+00   1.28124e-02 DIIS
   @RHF iter   4:  -460.10419068400114   -8.18344e-01   1.25290e-03 DIIS
   @RHF iter   5:  -460.11204755273042   -7.85687e-03   4.26910e-04 DIIS
   @RHF iter   6:  -460.11260340917113   -5.55856e-04   8.28491e-05 DIIS
   @RHF iter   7:  -460.11265190346933   -4.84943e-05   1.36175e-05 DIIS
   @RHF iter   8:  -460.11265516896151   -3.26549e-06   3.30319e-06 DIIS
   @RHF iter   9:  -460.11265536076070   -1.91799e-07   6.05440e-07 DIIS
   @RHF iter  10:  -460.11265536847583   -7.71513e-09   1.35970e-07 DIIS
   @RHF iter  11:  -460.11265536873168   -2.55852e-10   1.35828e-08 DIIS
   @RHF iter  12:  -460.11265536873327   -1.59162e-12   2.21973e-09 DIIS
  Energy and wave function converged.


  ==> Post-Iterations <==

    Orbital Energies [Eh]
    ---------------------

    Doubly Occupied:                                                      

       1A1  -104.848861     2A1   -10.574211     3A1    -8.041447  
       1B2    -8.039660     1B1    -8.039660     4A1    -1.117309  
       5A1    -0.626494     2B2    -0.477082     2B1    -0.477082  

    Virtual:                                                              

       6A1     0.022504     7A1     0.078453     3B2     0.086378  
       3B1     0.086378     8A1     0.108769     9A1     0.147465  
       4B2     0.173099     4B1     0.173099    10A1     0.238887  
       1A2     0.238887    11A1     0.243436     5B1     0.294689  
       5B2     0.294689    12A1     0.298814    13A1     0.342676  
       6B2     0.399384     6B1     0.399384    14A1     0.410577  
       7B2     0.489270     7B1     0.489270    15A1     0.509178  
       2A2     0.509178    16A1     0.577329    17A1     0.608772  
       3A2     0.608772     8B1     0.620482     8B2     0.620482  
       9B2     0.642591     9B1     0.642591    18A1     0.706230  
      10B2     0.723644    10B1     0.723644    19A1     0.735331  
       4A2     0.744852    20A1     0.744852    21A1     0.831676  
      11B2     1.080690    11B1     1.080690    22A1     1.097135  
      12B1     1.223699    12B2     1.223699    13B2     1.251110  
      13B1     1.251110    23A1     1.264146    24A1     1.296443  
       5A2     1.296443    25A1     1.352456     6A2     1.352456  
      26A1     1.373976    14B2     1.407695    14B1     1.407695  
       7A2     1.419914    27A1     1.419914    15B2     1.481348  
      15B1     1.481348    28A1     1.500569     8A2     1.508517  
      29A1     1.508517    16B2     1.527069    16B1     1.527069  
      17B1     1.565047    17B2     1.565047    18B2     1.585872  
      18B1     1.585872     9A2     1.619481    30A1     1.619481  
      31A1     1.627679    32A1     1.782647    19B2     1.943384  
      19B1     1.943384    33A1     2.012315    34A1     2.379155  
      35A1     2.485419    10A2     2.485419    20B2     2.489850  
      20B1     2.489850    36A1     2.701212    21B2     2.813106  
      21B1     2.813106    37A1     2.929318    11A2     2.929318  
      38A1     2.939117    12A2     3.106593    39A1     3.106593  
      40A1     3.157714    22B1     3.217923    22B2     3.217923  
      23B1     3.223862    23B2     3.223862    24B2     3.276753  
      24B1     3.276753    13A2     3.294745    41A1     3.294745  
      14A2     3.313694    42A1     3.313694    25B1     3.331149  
      25B2     3.331149    15A2     3.439809    43A1     3.439809  
      26B1     3.439823    26B2     3.439823    27B1     3.450201  
      27B2     3.450201    28B1     3.467559    28B2     3.467559  
      44A1     3.496106    16A2     3.519729    45A1     3.519729  
      46A1     3.599670    17A2     3.672387    47A1     3.672387  
      29B2     3.723814    29B1     3.723814    48A1     3.957650  
      30B1     4.062232    30B2     4.062232    49A1     4.155611  
      18A2     4.220244    50A1     4.220244    31B1     4.486968  
      31B2     4.486968    51A1     4.712011    32B1     4.772990  
      32B2     4.772990    33B2     4.787601    33B1     4.787601  
      52A1     5.507087    19A2     5.570637    53A1     5.570637  
      34B2     5.763628    34B1     5.763628    54A1     5.944936  
      20A2     5.944936    55A1     6.012603    35B1     6.171982  
      35B2     6.171982    56A1     6.590996    36B2     6.622094  
      36B1     6.622094    21A2     6.816266    57A1     6.816266  
      37B1     6.849584    37B2     6.849584    38B1     6.945522  
      38B2     6.945522    58A1     6.956527    59A1     7.056147  
      22A2     7.363337    60A1     7.363337    23A2     7.447971  
      61A1     7.447971    39B1     7.481846    39B2     7.481846  
      24A2     7.524898    62A1     7.524898    63A1     7.590587  
      40B2     7.727142    40B1     7.727142    64A1     7.763767  
      25A2     7.763767    41B1     7.851629    41B2     7.851629  
      42B1     8.060096    42B2     8.060096    43B1     8.139348  
      43B2     8.139348    26A2     8.226783    65A1     8.226783  
      66A1     8.248993    67A1     8.891077    44B1     9.031066  
      44B2     9.031066    68A1    10.398808    45B1    12.973108  
      45B2    12.973108    27A2    13.087351    69A1    13.087351  
      46B2    13.270877    46B1    13.270877    28A2    13.492674  
      70A1    13.492674    47B1    13.839716    47B2    13.839716  
      71A1    13.999968    29A2    13.999968    72A1    14.032371  
      48B2    14.305033    48B1    14.305033    73A1    14.341708  
      30A2    14.415656    74A1    14.415656    75A1    14.560107  
      49B1    15.860665    49B2    15.860665    76A1    17.427972  
      50B2    17.566489    50B1    17.566489    77A1    19.025516  
      31A2    20.581304    78A1    20.581304    51B1    21.027155  
      51B2    21.027155    79A1    21.435606    52B1    38.699787  
      52B2    38.699787    80A1    40.720955    81A1    87.473756  

    Final Occupation by Irrep:
             A1    A2    B1    B2 
    DOCC [     5,    0,    2,    2 ]

  @RHF Final Energy:  -460.11265536873327

   => Energetics <=

    Nuclear Repulsion Energy =              7.0704403678015337
    One-Electron Energy =                -649.8825768344941025
    Two-Electron Energy =                 182.6994810979593069
    Total Energy =                       -460.1126553687332716

Computation Completed


Properties will be evaluated at   0.000000,   0.000000,   0.000000 [a0]

Properties computed using the SCF density matrix

  Nuclear Dipole Moment: [e a0]
     X:     0.0000      Y:     0.0000      Z:     1.1920

  Electronic Dipole Moment: [e a0]
     X:     0.0000      Y:     0.0000      Z:    -0.7288

  Dipole Moment: [e a0]
     X:     0.0000      Y:     0.0000      Z:     0.4632     Total:     0.4632

  Dipole Moment: [D]
     X:     0.0000      Y:     0.0000      Z:     1.1773     Total:     1.1773


*** tstop() called on n412-045.vsc4.prov at Thu Jan 21 17:47:45 2021
Module time:
	user time   =     134.18 seconds =       2.24 minutes
	system time =      11.16 seconds =       0.19 minutes
	total time  =         85 seconds =       1.42 minutes
Total time:
	user time   =     134.18 seconds =       2.24 minutes
	system time =      11.16 seconds =       0.19 minutes
	total time  =         85 seconds =       1.42 minutes

*** tstart() called on n412-045.vsc4.prov
*** at Thu Jan 21 17:47:45 2021


	Wfn Parameters:
	--------------------
	Wavefunction         = CCSD_T
	Number of irreps     = 4
	Number of MOs        = 216
	Number of active MOs = 211
	AO-Basis             = NONE
	Semicanonical        = false
	Reference            = RHF
	Print Level          = 1

	IRREP	# MOs	# FZDC	# DOCC	# SOCC	# VIRT	# FZVR
	-----	-----	------	------	------	------	------
	 A1	   81	    3	    2	    0	    76	    0
	 A2	   31	    0	    0	    0	    31	    0
	 B1	   52	    1	    1	    0	    50	    0
	 B2	   52	    1	    1	    0	    50	    0
	Transforming integrals...
	IWL integrals will be deleted.
	(OO|OO)...
	Presorting SO-basis two-electron integrals.
	Sorting File: SO Ints (nn|nn) nbuckets = 1
	Constructing frozen core operators
	Starting first half-transformation.
	Sorting half-transformed integrals.
	First half integral transformation complete.
	Starting second half-transformation.
	Two-electron integral transformation complete.
	(OO|OV)...
	Starting second half-transformation.
	Two-electron integral transformation complete.
	(OO|VV)...
	Starting second half-transformation.
	Two-electron integral transformation complete.
	(OV|OO)...
	Starting first half-transformation.
	Sorting half-transformed integrals.
	First half integral transformation complete.
	Starting second half-transformation.
	Two-electron integral transformation complete.
	(OV|OV)...
	Starting second half-transformation.
	Two-electron integral transformation complete.
	(OV|VV)...
	Starting second half-transformation.
	Two-electron integral transformation complete.
	(VV|OO)...
	Starting first half-transformation.
	Sorting half-transformed integrals.
	First half integral transformation complete.
	Starting second half-transformation.
	Two-electron integral transformation complete.
	(VV|OV)...
	Starting second half-transformation.
	Two-electron integral transformation complete.
	(VV|VV)...
	Starting second half-transformation.
	Two-electron integral transformation complete.
	Frozen core energy     =   -448.90649033335615

	Size of irrep 0 of <ab|cd> integrals:    137.757 (MW) /   1102.057 (MB)
	Size of irrep 1 of <ab|cd> integrals:     94.323 (MW) /    754.584 (MB)
	Size of irrep 2 of <ab|cd> integrals:    114.490 (MW) /    915.920 (MB)
	Size of irrep 3 of <ab|cd> integrals:    114.490 (MW) /    915.920 (MB)
	Total:                                   461.060 (MW) /   3688.481 (MB)

	Size of irrep 0 of <ia|bc> integrals:      2.958 (MW) /     23.662 (MB)
	Size of irrep 1 of <ia|bc> integrals:      1.573 (MW) /     12.587 (MB)
	Size of irrep 2 of <ia|bc> integrals:      2.215 (MW) /     17.719 (MB)
	Size of irrep 3 of <ia|bc> integrals:      2.215 (MW) /     17.719 (MB)
	Total:                                     8.961 (MW) /     71.687 (MB)

	Size of irrep 0 of tijab amplitudes:       0.070 (MW) /      0.563 (MB)
	Size of irrep 1 of tijab amplitudes:       0.019 (MW) /      0.155 (MB)
	Size of irrep 2 of tijab amplitudes:       0.043 (MW) /      0.342 (MB)
	Size of irrep 3 of tijab amplitudes:       0.043 (MW) /      0.342 (MB)
	Total:                                     0.175 (MW) /      1.404 (MB)

	Nuclear Rep. energy          =      7.07044036780153
	SCF energy                   =   -460.11265536873327
	One-electron energy          =    -31.15727558690030
	Two-electron energy          =     12.88067018372155
	Reference energy             =   -460.11265536873339

*** tstop() called on n412-045.vsc4.prov at Thu Jan 21 17:49:10 2021
Module time:
	user time   =      24.17 seconds =       0.40 minutes
	system time =      19.35 seconds =       0.32 minutes
	total time  =         85 seconds =       1.42 minutes
Total time:
	user time   =     158.35 seconds =       2.64 minutes
	system time =      30.51 seconds =       0.51 minutes
	total time  =        170 seconds =       2.83 minutes
            **************************
            *                        *
            *        CCENERGY        *
            *                        *
            **************************

    Nuclear Rep. energy (wfn)     =    7.070440367801534
    SCF energy          (wfn)     = -460.112655368733272
    Reference energy    (file100) = -460.112655368733385

    Input parameters:
    -----------------
    Wave function   =     CCSD_T
    Reference wfn   =     RHF
    Brueckner       =     No
    Memory (Mbytes) =     250000.0
    Maxiter         =     50
    R_Convergence   =     1.0e-07
    E_Convergence   =     1.0e-06
    Restart         =     Yes
    DIIS            =     Yes
    AO Basis        =     NONE
    ABCD            =     NEW
    Cache Level     =     2
    Cache Type      =     LOW
    Print Level     =     1
    Num. of threads =     48
    # Amps to Print =     10
    Print MP2 Amps? =     No
    Analyze T2 Amps =     No
    Print Pair Ener =     No
    Local CC        =     No
    SCS-MP2         =     False
    SCSN-MP2        =     False
    SCS-CCSD        =     False

MP2 correlation energy -0.2327183557206859
                Solving CC Amplitude Equations
                ------------------------------
  Iter             Energy              RMS        T1Diag      D1Diag    New D1Diag    D2Diag
  ----     ---------------------    ---------   ----------  ----------  ----------   --------
     0        -0.232718355720686    0.000e+00    0.000000    0.000000    0.000000    0.129529
     1        -0.243619469959200    3.499e-02    0.004932    0.008003    0.008003    0.139183
     2        -0.248751590450273    1.108e-02    0.005910    0.010269    0.010269    0.144304
     3        -0.248972337654308    2.669e-03    0.006394    0.011157    0.011157    0.145019
     4        -0.248946469052839    7.550e-04    0.006534    0.011491    0.011491    0.145255
     5        -0.248950054145110    1.855e-04    0.006568    0.011561    0.011561    0.145279
     6        -0.248948785597122    5.385e-05    0.006581    0.011588    0.011588    0.145269
     7        -0.248948396825327    1.600e-05    0.006585    0.011596    0.011596    0.145265
     8        -0.248948535356911    4.950e-06    0.006586    0.011598    0.011598    0.145265
     9        -0.248948513592508    1.300e-06    0.006586    0.011599    0.011599    0.145264
    10        -0.248948489977839    3.686e-07    0.006586    0.011599    0.011599    0.145264
    11        -0.248948496374966    1.041e-07    0.006586    0.011599    0.011599    0.145264
    12        -0.248948498397169    2.704e-08    0.006586    0.011599    0.011599    0.145264

    Iterations converged.


    Largest TIA Amplitudes:
              2 111        -0.0047173743
              3 161        -0.0047173741
              1  10         0.0047137396
              1   5        -0.0046775986
              2 109         0.0046448546
              3 159         0.0046448543
              1   3        -0.0043938367
              3 158         0.0039139548
              2 108         0.0039139548
              0  13        -0.0037798727

    Largest TIjAb Amplitudes:
      1   1   5   5        -0.0249833681
      2   2  11  11        -0.0226445029
      3   3  78  78        -0.0226445028
      2   2  78  78        -0.0226445026
      3   3  11  11        -0.0226445025
      3   3 163 163        -0.0183583298
      2   2 113 113        -0.0183583296
      1   1   3   5        -0.0177600124
      1   1   5   3        -0.0177600124
      2   2 110 110        -0.0169507994

    SCF energy       (wfn)                    = -460.112655368733272
    Reference energy (file100)                = -460.112655368733385

    Opposite-spin MP2 correlation energy      =   -0.182323803743476
    Same-spin MP2 correlation energy          =   -0.050394551977210
    Singles MP2 correlation energy            =   -0.000000000000000
    MP2 correlation energy                    =   -0.232718355720686
      * MP2 total energy                      = -460.345373724454078

    Opposite-spin CCSD correlation energy     =   -0.200360957955975
    Same-spin CCSD correlation energy         =   -0.048587540441189
    Singles CCSD correlation energy           =    0.000000000000000
    CCSD correlation energy                   =   -0.248948498397169
      * CCSD total energy                     = -460.361603867130555

            **************************
            *                        *
            *        CCTRIPLES       *
            *                        *
            **************************


    Wave function   =    CCSD_T
    Reference wfn   =      RHF

    Nuclear Rep. energy (wfn)                =    7.070440367801534
    SCF energy          (wfn)                = -460.112655368733272
    Reference energy    (file100)            = -460.112655368733385
    CCSD energy         (file100)            =   -0.248948498397169
    Total CCSD energy   (file100)            = -460.361603867130555

    Number of ijk index combinations:               20
    Memory available in words        :     31250000000
    ~Words needed per explicit thread:         1755904
    Number of threads for explicit ijk threading:   48

    (T) energy                                =   -0.010349793312158
      * CCSD(T) total energy                  = -460.371953660442728


    Psi4 stopped on: Thursday, 21 January 2021 05:49PM
    Psi4 wall time for execution: 0:03:36.90

*** Psi4 exiting successfully. Buy a developer a beer!
