
    -----------------------------------------------------------------------
          Psi4: An Open-Source Ab Initio Electronic Structure Package
                               Psi4 1.2a1.dev938 

                         Git: Rev {HEAD} fc51d9a dirty


    R. M. Parrish, L. A. Burns, D. G. A. Smith, A. C. Simmonett,
    A. E. DePrince III, E. G. Hohenstein, U. Bozkaya, A. Yu. Sokolov,
    R. Di Remigio, R. M. Richard, J. F. Gonthier, A. M. James,
    H. R. McAlexander, A. Kumar, M. Saitow, X. Wang, B. P. Pritchard,
    P. Verma, H. F. Schaefer III, K. Patkowski, R. A. King, E. F. Valeev,
    F. A. Evangelista, J. M. Turney, T. D. Crawford, and C. D. Sherrill,
    J. Chem. Theory Comput. 13(7) pp 3185--3197 (2017).
    (doi: 10.1021/acs.jctc.7b00174)

    -----------------------------------------------------------------------


    Psi4 started on: Thursday, 20 August 2020 07:59PM

    Process ID: 423378
    PSIDATADIR: /home/irmler/Programs/psi4/beforeGrueneis3/stage/usr/local/psi4/share/psi4
    Memory:     500.0 MiB
    Threads:    4
    
  ==> Input File <==

--------------------------------------------------------------------------
# Any line starting with the # character is a comment line
memory 250000 mb
molecule molecule{
0 2
C          0.0000000000        0.0000000000        0.6422282651
N          0.0000000000        0.0000000000       -0.5507224180
}

set {
  reference uhf
  basis aug-cc-pv(t+d)z
  scf_type OUT_OF_CORE
  freeze_core true
}

energy('ccsd')
--------------------------------------------------------------------------

  Memory set to 232.831 GiB by Python driver.

*** tstart() called on cqc05
*** at Thu Aug 20 19:59:45 2020

   => Loading Basis Set <=

    Name: AUG-CC-PV(T+D)Z
    Role: ORBITAL
    Keyword: BASIS
    atoms 1 entry C          line   255 file /home/irmler/Programs/psi4/beforeGrueneis3/stage/usr/local/psi4/share/psi4/basis/aug-cc-pv_tpd_z.gbs 
    atoms 2 entry N          line   301 file /home/irmler/Programs/psi4/beforeGrueneis3/stage/usr/local/psi4/share/psi4/basis/aug-cc-pv_tpd_z.gbs 


         ---------------------------------------------------------
                                   SCF
            by Justin Turney, Rob Parrish, Andy Simmonett
                             and Daniel Smith
                              UHF Reference
                        4 Threads, 238418 MiB Core
         ---------------------------------------------------------

  ==> Geometry <==

    Molecular point group: c2v
    Full point group: C_inf_v

    Geometry (in Angstrom), charge = 0, multiplicity = 2:

       Center              X                  Y                   Z               Mass       
    ------------   -----------------  -----------------  -----------------  -----------------
           C          0.000000000000     0.000000000000     0.642423149526    12.000000000000
           N          0.000000000000     0.000000000000    -0.550527533574    14.003074004780

  Running in c2v symmetry.

  Rotational constants: A = ************  B =      1.83304  C =      1.83304 [cm^-1]
  Rotational constants: A = ************  B =  54953.11022  C =  54953.11022 [MHz]
  Nuclear repulsion =   18.630646744779920

  Charge       = 0
  Multiplicity = 2
  Electrons    = 13
  Nalpha       = 7
  Nbeta        = 6

  ==> Algorithm <==

  SCF Algorithm Type is OUT_OF_CORE.
  DIIS enabled.
  MOM disabled.
  Fractional occupation disabled.
  Guess Type is GWH.
  Energy threshold   = 1.00e-08
  Density threshold  = 1.00e-08
  Integral threshold = 0.00e+00

  ==> Primary Basis <==

  Basis Set: AUG-CC-PV(T+D)Z
    Blend: AUG-CC-PV(T+D)Z
    Number of shells: 28
    Number of basis function: 92
    Number of Cartesian functions: 110
    Spherical Harmonics?: true
    Max angular momentum: 3

  ==> Pre-Iterations <==

   -------------------------------------------------------
    Irrep   Nso     Nmo     Nalpha   Nbeta   Ndocc  Nsocc
   -------------------------------------------------------
     A1        38      38       0       0       0       0
     A2        10      10       0       0       0       0
     B1        22      22       0       0       0       0
     B2        22      22       0       0       0       0
   -------------------------------------------------------
    Total      92      92       7       6       6       1
   -------------------------------------------------------

  ==> Integral Setup <==

  ==> DiskJK: Disk-Based J/K Matrices <==

    J tasked:                  Yes
    K tasked:                  Yes
    wK tasked:                  No
    Memory (MB):            178813
    Schwarz Cutoff:          1E-12

  Minimum eigenvalue in the overlap matrix is 2.6165118244E-04.
  Using Symmetric Orthogonalization.

  SCF Guess: Generalized Wolfsberg-Helmholtz.

  ==> Iterations <==

                        Total Energy        Delta E     RMS |[F,P]|

    Occupation by irrep:
             A1    A2    B1    B2 
    DOCC [     4,    0,    1,    1 ]
    SOCC [     1,    0,    0,    0 ]

   @UHF iter   1:   -88.69637855972653   -8.86964e+01   1.41814e-01 
   @UHF iter   2:   -88.62446916463841    7.19094e-02   6.61844e-02 DIIS
   @UHF iter   3:   -89.99643686698306   -1.37197e+00   7.52119e-02 DIIS
   @UHF iter   4:   -91.83398715985241   -1.83755e+00   2.87307e-02 DIIS
   @UHF iter   5:   -92.18354634993329   -3.49559e-01   8.50847e-03 DIIS
   @UHF iter   6:   -92.22065650661122   -3.71102e-02   9.14323e-04 DIIS
   @UHF iter   7:   -92.22231403621582   -1.65753e-03   7.08146e-04 DIIS
   @UHF iter   8:   -92.22400307552836   -1.68904e-03   7.08722e-04 DIIS
   @UHF iter   9:   -92.22553189010932   -1.52881e-03   6.72689e-04 DIIS
   @UHF iter  10:   -92.23242691888211   -6.89503e-03   3.89797e-04 DIIS
   @UHF iter  11:   -92.23319048901445   -7.63570e-04   2.31233e-04 DIIS
   @UHF iter  12:   -92.23342575249586   -2.35263e-04   1.76503e-04 DIIS
   @UHF iter  13:   -92.23340226185439    2.34906e-05   1.57699e-04 DIIS
   @UHF iter  14:   -92.23357884450297   -1.76583e-04   2.70969e-05 DIIS
   @UHF iter  15:   -92.23358372585423   -4.88135e-06   2.38364e-06 DIIS
   @UHF iter  16:   -92.23358373343881   -7.58457e-09   1.67753e-06 DIIS
   @UHF iter  17:   -92.23358373443504   -9.96238e-10   1.51816e-06 DIIS
   @UHF iter  18:   -92.23358374832658   -1.38915e-08   3.39555e-07 DIIS
   @UHF iter  19:   -92.23358374901497   -6.88388e-10   1.26098e-07 DIIS
   @UHF iter  20:   -92.23358374909660   -8.16271e-11   3.08620e-08 DIIS
   @UHF iter  21:   -92.23358374910067   -4.07852e-12   1.27660e-08 DIIS
   @UHF iter  22:   -92.23358374910175   -1.08002e-12   2.01969e-09 DIIS

  ==> Post-Iterations <==

   @Spin Contamination Metric:   4.940745115E-01
   @S^2 Expected:                7.500000000E-01
   @S^2 Observed:                1.244074511E+00
   @S   Expected:                5.000000000E-01
   @S   Observed:                5.000000000E-01

    Orbital Energies (a.u.)
    -----------------------

    Alpha Occupied:                                                       

       1A1   -15.609328     2A1   -11.361877     3A1    -1.231161  
       4A1    -0.746065     5A1    -0.564942     1B1    -0.515699  
       1B2    -0.515699  

    Alpha Virtual:                                                        

       6A1     0.068319     7A1     0.073026     2B2     0.080411  
       2B1     0.080411     3B1     0.127443     3B2     0.127443  
       8A1     0.154727     4B2     0.203365     4B1     0.203365  
       9A1     0.255620    10A1     0.288812     1A2     0.288812  
      11A1     0.354235     5B2     0.402742     5B1     0.402742  
       6B2     0.464491     6B1     0.464491    12A1     0.467881  
      13A1     0.537143    14A1     0.558841     2A2     0.558841  
       7B1     0.654683     7B2     0.654683    15A1     0.696066  
      16A1     0.920362    17A1     0.984765     3A2     0.984765  
       8B2     1.029943     8B1     1.029943     9B2     1.064622  
       9B1     1.064622    10B2     1.102696    10B1     1.102696  
      18A1     1.116768    19A1     1.206507     4A2     1.206507  
      20A1     1.229182    21A1     1.336983    11B2     1.427387  
      11B1     1.427387    12B1     1.638285    12B2     1.638285  
      22A1     1.681004     5A2     1.681004    23A1     1.861164  
      13B1     1.869633    13B2     1.869633    14B1     2.080971  
      14B2     2.080971    24A1     2.095120     6A2     2.095120  
      25A1     2.206555    26A1     2.486811    15B2     2.786782  
      15B1     2.786782    27A1     3.238269    28A1     3.338532  
       7A2     3.338532    16B1     3.401694    16B2     3.401694  
      17B2     3.414599    17B1     3.414599    29A1     3.532759  
       8A2     3.532759    18B1     3.630896    18B2     3.630896  
      30A1     3.640714    31A1     3.670086    19B1     4.412090  
      19B2     4.412090    32A1     4.503949    20B2     4.964820  
      20B1     4.964820    33A1     5.186174     9A2     5.186174  
      34A1     5.336681    10A2     5.336681    21B1     5.551819  
      21B2     5.551819    22B1     5.923812    22B2     5.923812  
      35A1     5.935283    36A1     6.013109    37A1    10.969183  
      38A1    14.921130  

    Beta Occupied:                                                        

       1A1   -15.637722     2A1   -11.304362     3A1    -1.249025  
       4A1    -0.623728     1B2    -0.538825     1B1    -0.538825  

    Beta Virtual:                                                         

       5A1    -0.036655     6A1     0.073025     2B2     0.075135  
       2B1     0.075135     7A1     0.101841     3B1     0.156869  
       3B2     0.156869     8A1     0.162915     4B2     0.213450  
       4B1     0.213450     9A1     0.260612     1A2     0.299214  
      10A1     0.299214    11A1     0.367717     5B2     0.396679  
       5B1     0.396679     6B1     0.498102     6B2     0.498102  
      12A1     0.510592    13A1     0.546242     2A2     0.548566  
      14A1     0.548566     7B1     0.681587     7B2     0.681587  
      15A1     0.765963    16A1     0.973136     8B2     1.001341  
       8B1     1.001341     3A2     1.050911    17A1     1.050911  
       9B2     1.080506     9B1     1.080506    18A1     1.118971  
      10B2     1.144843    10B1     1.144843     4A2     1.212180  
      19A1     1.212180    20A1     1.243845    21A1     1.354051  
      11B2     1.433325    11B1     1.433325    12B1     1.626349  
      12B2     1.626349     5A2     1.641531    22A1     1.641531  
      23A1     1.874313    13B2     1.876119    13B1     1.876119  
       6A2     2.079590    24A1     2.079590    14B1     2.104726  
      14B2     2.104726    25A1     2.234462    26A1     2.543477  
      15B2     2.812843    15B1     2.812843    27A1     3.310050  
       7A2     3.420797    28A1     3.420797    16B1     3.454847  
      16B2     3.454847    17B2     3.503541    17B1     3.503541  
       8A2     3.586095    29A1     3.586095    18B2     3.614992  
      18B1     3.614992    30A1     3.651243    31A1     3.711207  
      19B1     4.407473    19B2     4.407473    32A1     4.506780  
      20B2     4.918111    20B1     4.918111     9A2     5.124956  
      33A1     5.124956    10A2     5.299279    34A1     5.299279  
      21B1     5.521670    21B2     5.521670    22B1     5.925023  
      22B2     5.925023    35A1     5.934365    36A1     6.019637  
      37A1    10.989090    38A1    14.920184  

    Final Occupation by Irrep:
             A1    A2    B1    B2 
    DOCC [     4,    0,    1,    1 ]
    SOCC [     1,    0,    0,    0 ]

  Energy converged.

  @UHF Final Energy:   -92.23358374910175

   => Energetics <=

    Nuclear Repulsion Energy =             18.6306467447799200
    One-Electron Energy =                -161.2912027554922361
    Two-Electron Energy =                  50.4269722616105724
    PCM Polarization Energy =               0.0000000000000000
    Total Energy =                        -92.2335837491017543

    Alert: EFP and PCM quantities not currently incorporated into SCF psivars.
  UHF NO Occupations:
  HONO-2 :    1 B1 1.8693218
  HONO-1 :    1 B2 1.8693217
  HONO-0 :    5 A1 1.0000000
  LUNO+0 :    2 B2 0.1306783
  LUNO+1 :    2 B1 0.1306782
  LUNO+2 :    6 A1 0.0020849
  LUNO+3 :    7 A1 0.0006737



Properties will be evaluated at   0.000000,   0.000000,   0.000000 Bohr

Properties computed using the SCF density matrix

  Nuclear Dipole Moment: (a.u.)
     X:     0.0000      Y:     0.0000      Z:     0.0016

  Electronic Dipole Moment: (a.u.)
     X:     0.0000      Y:     0.0000      Z:     0.8401

  Dipole Moment: (a.u.)
     X:     0.0000      Y:     0.0000      Z:     0.8417     Total:     0.8417

  Dipole Moment: (Debye)
     X:     0.0000      Y:     0.0000      Z:     2.1394     Total:     2.1394


*** tstop() called on cqc05 at Thu Aug 20 19:59:47 2020
Module time:
	user time   =       2.83 seconds =       0.05 minutes
	system time =       0.16 seconds =       0.00 minutes
	total time  =          2 seconds =       0.03 minutes
Total time:
	user time   =       2.83 seconds =       0.05 minutes
	system time =       0.16 seconds =       0.00 minutes
	total time  =          2 seconds =       0.03 minutes

*** tstart() called on cqc05
*** at Thu Aug 20 19:59:47 2020


	Wfn Parameters:
	--------------------
	Wavefunction         = CCSD
	Number of irreps     = 4
	Number of MOs        = 92
	Number of active MOs = 90
	AO-Basis             = NONE
	Semicanonical        = false
	Reference            = UHF
	Print Level          = 1

	IRREP	# MOs	# FZDC	# DOCC	# SOCC	# VIRT	# FZVR
	-----	-----	------	------	------	------	------
	 A1	   38	    2	    2	    1	    33	    0
	 A2	   10	    0	    0	    0	    10	    0
	 B1	   22	    0	    1	    0	    21	    0
	 B2	   22	    0	    1	    0	    21	    0
	Transforming integrals...
	IWL integrals will be deleted.
	(OO|OO)...
	Presorting SO-basis two-electron integrals.
	Sorting File: SO Ints (nn|nn) nbuckets = 1
	Transforming the one-electron integrals and constructing Fock matrices
	Starting AA/AB first half-transformation.
	Sorting AA/AB half-transformed integrals.
	Starting BB first half-transformation.
	Sorting BB half-transformed integrals.
	First half integral transformation complete.
	Starting AA second half-transformation.
	Starting AB second half-transformation.
	Starting BB second half-transformation.
	Two-electron integral transformation complete.
	(OO|OV)...
	Starting AA second half-transformation.
	Starting AB second half-transformation.
	Starting BB second half-transformation.
	Two-electron integral transformation complete.
	(OO|VV)...
	Starting AA second half-transformation.
	Starting AB second half-transformation.
	Starting BB second half-transformation.
	Two-electron integral transformation complete.
	(OV|OO)...
	Starting AA/AB first half-transformation.
	Sorting AA/AB half-transformed integrals.
	Starting BB first half-transformation.
	Sorting BB half-transformed integrals.
	First half integral transformation complete.
	Starting AA second half-transformation.
	Starting AB second half-transformation.
	Starting BB second half-transformation.
	Two-electron integral transformation complete.
	(OV|OV)...
	Starting AA second half-transformation.
	Starting AB second half-transformation.
	Starting BB second half-transformation.
	Two-electron integral transformation complete.
	(OV|VV)...
	Starting AA second half-transformation.
	Starting AB second half-transformation.
	Starting BB second half-transformation.
	Two-electron integral transformation complete.
	(VV|OO)...
	Starting AA/AB first half-transformation.
	Sorting AA/AB half-transformed integrals.
	Starting BB first half-transformation.
	Sorting BB half-transformed integrals.
	First half integral transformation complete.
	Starting AA second half-transformation.
	Starting AB second half-transformation.
	Starting BB second half-transformation.
	Two-electron integral transformation complete.
	(VV|OV)...
	Starting AA second half-transformation.
	Starting AB second half-transformation.
	Starting BB second half-transformation.
	Two-electron integral transformation complete.
	(VV|VV)...
	Starting AA second half-transformation.
	Starting AB second half-transformation.
	Starting BB second half-transformation.
	Two-electron integral transformation complete.
	Frozen core energy     =    -86.85030356003205

	Size of irrep 0 of <AB|CD> integrals:      0.986 (MW) /      7.888 (MB)
	Size of irrep 1 of <AB|CD> integrals:      0.594 (MW) /      4.756 (MB)
	Size of irrep 2 of <AB|CD> integrals:      0.815 (MW) /      6.523 (MB)
	Size of irrep 3 of <AB|CD> integrals:      0.815 (MW) /      6.523 (MB)
	Total:                                     3.211 (MW) /     25.690 (MB)

	Size of irrep 0 of <ab|cd> integrals:      1.053 (MW) /      8.421 (MB)
	Size of irrep 1 of <ab|cd> integrals:      0.610 (MW) /      4.880 (MB)
	Size of irrep 2 of <ab|cd> integrals:      0.854 (MW) /      6.830 (MB)
	Size of irrep 3 of <ab|cd> integrals:      0.854 (MW) /      6.830 (MB)
	Total:                                     3.370 (MW) /     26.962 (MB)

	Size of irrep 0 of <Ab|Cd> integrals:      4.427 (MW) /     35.415 (MB)
	Size of irrep 1 of <Ab|Cd> integrals:      2.409 (MW) /     19.270 (MB)
	Size of irrep 2 of <Ab|Cd> integrals:      3.338 (MW) /     26.703 (MB)
	Size of irrep 3 of <Ab|Cd> integrals:      3.338 (MW) /     26.703 (MB)
	Total:                                    13.511 (MW) /    108.091 (MB)

	Size of irrep 0 of <IA|BC> integrals:      0.292 (MW) /      2.336 (MB)
	Size of irrep 1 of <IA|BC> integrals:      0.111 (MW) /      0.888 (MB)
	Size of irrep 2 of <IA|BC> integrals:      0.191 (MW) /      1.531 (MB)
	Size of irrep 3 of <IA|BC> integrals:      0.191 (MW) /      1.531 (MB)
	Total:                                     0.786 (MW) /      6.287 (MB)

	Size of irrep 0 of <ia|bc> integrals:      0.235 (MW) /      1.881 (MB)
	Size of irrep 1 of <ia|bc> integrals:      0.097 (MW) /      0.775 (MB)
	Size of irrep 2 of <ia|bc> integrals:      0.159 (MW) /      1.271 (MB)
	Size of irrep 3 of <ia|bc> integrals:      0.159 (MW) /      1.271 (MB)
	Total:                                     0.650 (MW) /      5.199 (MB)

	Size of irrep 0 of <Ia|Bc> integrals:      0.303 (MW) /      2.424 (MB)
	Size of irrep 1 of <Ia|Bc> integrals:      0.112 (MW) /      0.894 (MB)
	Size of irrep 2 of <Ia|Bc> integrals:      0.195 (MW) /      1.564 (MB)
	Size of irrep 3 of <Ia|Bc> integrals:      0.195 (MW) /      1.564 (MB)
	Total:                                     0.806 (MW) /      6.446 (MB)

	Size of irrep 0 of <iA|bC> integrals:      0.227 (MW) /      1.818 (MB)
	Size of irrep 1 of <iA|bC> integrals:      0.096 (MW) /      0.770 (MB)
	Size of irrep 2 of <iA|bC> integrals:      0.155 (MW) /      1.242 (MB)
	Size of irrep 3 of <iA|bC> integrals:      0.155 (MW) /      1.242 (MB)
	Total:                                     0.634 (MW) /      5.072 (MB)

	Size of irrep 0 of tIjAb amplitudes:       0.017 (MW) /      0.135 (MB)
	Size of irrep 1 of tIjAb amplitudes:       0.003 (MW) /      0.025 (MB)
	Size of irrep 2 of tIjAb amplitudes:       0.009 (MW) /      0.073 (MB)
	Size of irrep 3 of tIjAb amplitudes:       0.009 (MW) /      0.073 (MB)
	Total:                                     0.038 (MW) /      0.306 (MB)

	Nuclear Rep. energy          =     18.63064674477992
	SCF energy                   =    -92.23358374910175
	One-electron energy          =    -41.50388468567310
	Two-electron (AA) energy     =      4.25128823466696
	Two-electron (BB) energy     =      3.04201429684002
	Two-electron (AB) energy     =     10.19665522031697
	Two-electron energy          =     17.48995775182396
	Reference energy             =    -92.23358374910127

*** tstop() called on cqc05 at Thu Aug 20 19:59:50 2020
Module time:
	user time   =       1.31 seconds =       0.02 minutes
	system time =       0.76 seconds =       0.01 minutes
	total time  =          3 seconds =       0.05 minutes
Total time:
	user time   =       4.14 seconds =       0.07 minutes
	system time =       0.92 seconds =       0.02 minutes
	total time  =          5 seconds =       0.08 minutes

*** tstart() called on cqc05
*** at Thu Aug 20 19:59:50 2020

            **************************
            *                        *
            *        CCENERGY        *
            *                        *
            **************************

    Nuclear Rep. energy (wfn)     =   18.630646744779920
    SCF energy          (wfn)     =  -92.233583749101754
    Reference energy    (file100) =  -92.233583749101271

    Input parameters:
    -----------------
    Wave function   =     CCSD
    Reference wfn   =     UHF
    Brueckner       =     No
    Memory (Mbytes) =     250000.0
    Maxiter         =     50
    R_Convergence   =     1.0e-07
    E_Convergence   =     1.0e-06
    Restart         =     Yes
    DIIS            =     Yes
    AO Basis        =     NONE
    ABCD            =     NEW
    Cache Level     =     2
    Cache Type      =     LRU
    Print Level     =     1
    Num. of threads =     4
    # Amps to Print =     10
    Print MP2 Amps? =     No
    Analyze T2 Amps =     No
    Print Pair Ener =     No
    Local CC        =     No
    SCS-MP2         =     False
    SCSN-MP2        =     False
    SCS-CCSD        =     False

MP2 correlation energy -0.2741472590858535
                Solving CC Amplitude Equations
                ------------------------------
  Iter             Energy              RMS        T1Diag      D1Diag    New D1Diag    D2Diag
  ----     ---------------------    ---------   ----------  ----------  ----------   --------
     0        -0.274147259085855    0.000e+00    0.000000    0.000000    0.000000    0.000000
     1        -0.276008314799515    1.214e-01    0.037176    0.000000    0.000000    0.000000
     2        -0.294938810461931    6.371e-02    0.056881    0.000000    0.000000    0.000000
     3        -0.311407166877761    5.459e-02    0.103150    0.000000    0.000000    0.000000
     4        -0.315172060623850    2.315e-02    0.125697    0.000000    0.000000    0.000000
     5        -0.315870034150634    1.267e-02    0.130966    0.000000    0.000000    0.000000
     6        -0.316753752239386    8.060e-03    0.134403    0.000000    0.000000    0.000000
     7        -0.316871737007591    4.363e-03    0.136017    0.000000    0.000000    0.000000
     8        -0.316991146910023    1.969e-03    0.136834    0.000000    0.000000    0.000000
     9        -0.317072219769122    9.260e-04    0.137212    0.000000    0.000000    0.000000
    10        -0.317074694403934    4.927e-04    0.137391    0.000000    0.000000    0.000000
    11        -0.317062883620666    1.964e-04    0.137353    0.000000    0.000000    0.000000
    12        -0.317054230531928    7.481e-05    0.137352    0.000000    0.000000    0.000000
    13        -0.317058398267618    3.349e-05    0.137370    0.000000    0.000000    0.000000
    14        -0.317060444844946    1.495e-05    0.137374    0.000000    0.000000    0.000000
    15        -0.317061339530335    4.168e-06    0.137378    0.000000    0.000000    0.000000
    16        -0.317061581307963    1.191e-06    0.137379    0.000000    0.000000    0.000000
    17        -0.317061639910485    4.755e-07    0.137379    0.000000    0.000000    0.000000
    18        -0.317061646930740    1.257e-07    0.137379    0.000000    0.000000    0.000000
    19        -0.317061646620102    5.574e-08    0.137379    0.000000    0.000000    0.000000
    19        -0.317061646620102    5.574e-08    0.137379    0.000000    0.000000    0.000000

    Iterations converged.


    CCSD corr. energy   =   -0.317061646620102
    PPL corr. energy    =    0.085498241233446
    OS PPL corr. energy =    0.073277117650277
    SS PPL corr. energy =    0.012221123583168
    Largest TIA Amplitudes:
              4  66        -0.1180651418
              3  45        -0.1180650974
              4  65        -0.1095208172
              3  44        -0.1095207711
              4  67        -0.0546482660
              3  46        -0.0546482484
              4  64         0.0441550105
              3  43         0.0441549911
              4  70        -0.0343199582
              3  49        -0.0343199530

    Largest Tia Amplitudes:
              1   0         0.2088296938
              2  46         0.1254425713
              3  67         0.1254424967
              1   2         0.0886757959
              2  45         0.0437297422
              3  66         0.0437297130
              2  49         0.0427889078
              3  70         0.0427888860
              2  44         0.0427353069
              3  65         0.0427352812

    Largest TIJAB Amplitudes:
      4   3  65  44        -0.0229508868
      4   3  66  45        -0.0223635974
      4   3  66  44        -0.0204929014
      4   3  65  45        -0.0204929012
      4   2  66  10        -0.0158208514
      3   2  45  10        -0.0158208508
      4   3  35  11        -0.0142817912
      3   1  44   9        -0.0121182559
      4   1  65   9        -0.0121182558
      3   1  45   9        -0.0120986162

    Largest Tijab Amplitudes:
      3   2  67  46        -0.0303020469
      3   1  67   0        -0.0213008951
      2   1  46   0        -0.0213008942
      3   1  67  11        -0.0128094507
      2   1  46  11        -0.0128094505
      3   2  68  46        -0.0126903919
      3   2  67  47        -0.0126903910
      3   2  70  46        -0.0121217430
      3   2  67  49        -0.0121217429
      3   1  67   2        -0.0119166603

    Largest TIjAb Amplitudes:
      3   2  45  46        -0.0916710555
      4   3  66  67        -0.0916710468
      3   2  44  46        -0.0845796980
      4   3  65  67        -0.0845796882
      3   1  45   0        -0.0741642700
      4   1  66   0        -0.0741642699
      3   1  44   0        -0.0691382676
      4   1  65   0        -0.0691382672
      4   2  66  46        -0.0557019750
      3   3  45  67        -0.0557019654

    SCF energy       (wfn)                    =  -92.233583749101754
    Reference energy (file100)                =  -92.233583749101271

    Opposite-spin MP2 correlation energy      =   -0.197521835681613
    Same-spin MP2 correlation energy          =   -0.076625423404220
    MP2 correlation energy                    =   -0.274147259085854
      * MP2 total energy                      =  -92.507731008187122

    Opposite-spin CCSD correlation energy     =   -0.255706121820887
    Same-spin CCSD correlation energy         =   -0.061355487318467
    CCSD correlation energy                   =   -0.317061646620102
      * CCSD total energy                     =  -92.550645395721375


*** tstop() called on cqc05 at Thu Aug 20 19:59:55 2020
Module time:
	user time   =       1.97 seconds =       0.03 minutes
	system time =       1.42 seconds =       0.02 minutes
	total time  =          5 seconds =       0.08 minutes
Total time:
	user time   =       6.11 seconds =       0.10 minutes
	system time =       2.34 seconds =       0.04 minutes
	total time  =         10 seconds =       0.17 minutes

*** Psi4 exiting successfully. Buy a developer a beer!
