
    -----------------------------------------------------------------------
          Psi4: An Open-Source Ab Initio Electronic Structure Package
                               Psi4 1.2a1.dev939 

                         Git: Rev {HEAD} fa1ec19 dirty


    R. M. Parrish, L. A. Burns, D. G. A. Smith, A. C. Simmonett,
    A. E. DePrince III, E. G. Hohenstein, U. Bozkaya, A. Yu. Sokolov,
    R. Di Remigio, R. M. Richard, J. F. Gonthier, A. M. James,
    H. R. McAlexander, A. Kumar, M. Saitow, X. Wang, B. P. Pritchard,
    P. Verma, H. F. Schaefer III, K. Patkowski, R. A. King, E. F. Valeev,
    F. A. Evangelista, J. M. Turney, T. D. Crawford, and C. D. Sherrill,
    J. Chem. Theory Comput. 13(7) pp 3185--3197 (2017).
    (doi: 10.1021/acs.jctc.7b00174)

    -----------------------------------------------------------------------


    Psi4 started on: Tuesday, 05 January 2021 11:43AM

    Process ID:  79060
    PSIDATADIR: /home/fs71337/airmler/src/psi4_uhf/build/stage/usr/local/psi4/share/psi4
    Memory:     500.0 MiB
    Threads:    1
    
  ==> Input File <==

--------------------------------------------------------------------------
# Any line starting with the # character is a comment line
memory 250000 mb
molecule molecule{
0 2
C          0.0000000000        0.0000000000        0.6422282651
N          0.0000000000        0.0000000000       -0.5507224180
}

set {
  reference uhf
  basis aug-cc-pv(6+d)z
  scf_type OUT_OF_CORE
  freeze_core true

  DOCC [     4,    0,    1,    1 ]
  SOCC [     1,    0,    0,    0 ]


}

energy('ccsd')
--------------------------------------------------------------------------

  Memory set to 232.831 GiB by Python driver.

*** tstart() called on l46
*** at Tue Jan  5 11:43:10 2021

   => Loading Basis Set <=

    Name: AUG-CC-PV(6+D)Z
    Role: ORBITAL
    Keyword: BASIS
    atoms 1 entry C          line   267 file /home/fs71337/airmler/src/psi4_uhf/build/stage/usr/local/psi4/share/psi4/basis/aug-cc-pv_6pd_z.gbs 
    atoms 2 entry N          line   363 file /home/fs71337/airmler/src/psi4_uhf/build/stage/usr/local/psi4/share/psi4/basis/aug-cc-pv_6pd_z.gbs 


         ---------------------------------------------------------
                                   SCF
            by Justin Turney, Rob Parrish, Andy Simmonett
                             and Daniel Smith
                              UHF Reference
                        1 Threads, 238418 MiB Core
         ---------------------------------------------------------

  ==> Geometry <==

    Molecular point group: c2v
    Full point group: C_inf_v

    Geometry (in Angstrom), charge = 0, multiplicity = 2:

       Center              X                  Y                   Z               Mass       
    ------------   -----------------  -----------------  -----------------  -----------------
           C          0.000000000000     0.000000000000     0.642423149526    12.000000000000
           N          0.000000000000     0.000000000000    -0.550527533574    14.003074004780

  Running in c2v symmetry.

  Rotational constants: A = ************  B =      1.83304  C =      1.83304 [cm^-1]
  Rotational constants: A = ************  B =  54953.11022  C =  54953.11022 [MHz]
  Nuclear repulsion =   18.630646744779924

  Charge       = 0
  Multiplicity = 2
  Electrons    = 13
  Nalpha       = 7
  Nbeta        = 6

  ==> Algorithm <==

  SCF Algorithm Type is OUT_OF_CORE.
  DIIS enabled.
  MOM disabled.
  Fractional occupation disabled.
  Guess Type is GWH.
  Energy threshold   = 1.00e-08
  Density threshold  = 1.00e-08
  Integral threshold = 0.00e+00

  ==> Primary Basis <==

  Basis Set: AUG-CC-PV(6+D)Z
    Blend: AUG-CC-PV(6+D)Z
    Number of shells: 70
    Number of basis function: 378
    Number of Cartesian functions: 588
    Spherical Harmonics?: true
    Max angular momentum: 6

  ==> Pre-Iterations <==

   -------------------------------------------------------
    Irrep   Nso     Nmo     Nalpha   Nbeta   Ndocc  Nsocc
   -------------------------------------------------------
     A1       132     132       5       4       4       1
     A2        62      62       0       0       0       0
     B1        92      92       1       1       1       0
     B2        92      92       1       1       1       0
   -------------------------------------------------------
    Total     378     378       7       6       6       1
   -------------------------------------------------------

  ==> Integral Setup <==

  ==> DiskJK: Disk-Based J/K Matrices <==

    J tasked:                  Yes
    K tasked:                  Yes
    wK tasked:                  No
    Memory (MB):            178813
    Schwarz Cutoff:          1E-12

  Minimum eigenvalue in the overlap matrix is 1.2914726616E-06.
  Using Symmetric Orthogonalization.

  SCF Guess: Generalized Wolfsberg-Helmholtz.

  ==> Iterations <==

                        Total Energy        Delta E     RMS |[F,P]|

   @UHF iter   1:   -47.42395233049213   -4.74240e+01   8.03891e-02 
   @UHF iter   2:   -85.60850412253977   -3.81846e+01   1.33744e-02 DIIS
   @UHF iter   3:   -85.70633867200297   -9.78345e-02   1.88376e-02 DIIS
   @UHF iter   4:   -91.08586616804413   -5.37953e+00   7.92295e-03 DIIS
   @UHF iter   5:   -92.04245630962652   -9.56590e-01   2.96268e-03 DIIS
   @UHF iter   6:   -92.22654487656425   -1.84089e-01   3.73172e-04 DIIS
   @UHF iter   7:   -92.23006082815313   -3.51595e-03   1.89796e-04 DIIS
   @UHF iter   8:   -92.23159221231744   -1.53138e-03   1.33268e-04 DIIS
   @UHF iter   9:   -92.23331393036629   -1.72172e-03   1.04474e-04 DIIS
   @UHF iter  10:   -92.23546944035357   -2.15551e-03   9.51116e-05 DIIS
   @UHF iter  11:   -92.23999186814969   -4.52243e-03   5.65731e-05 DIIS
   @UHF iter  12:   -92.23915385735781    8.38011e-04   5.85156e-05 DIIS
   @UHF iter  13:   -92.24009809870508   -9.44241e-04   2.63602e-05 DIIS
   @UHF iter  14:   -92.24029913194356   -2.01033e-04   2.87419e-06 DIIS
   @UHF iter  15:   -92.24029797758828    1.15436e-06   3.13686e-06 DIIS
   @UHF iter  16:   -92.24030061590297   -2.63831e-06   2.67215e-07 DIIS
   @UHF iter  17:   -92.24030062824183   -1.23389e-08   1.41657e-07 DIIS
   @UHF iter  18:   -92.24030063269795   -4.45613e-09   3.55233e-08 DIIS
   @UHF iter  19:   -92.24030063300712   -3.09171e-10   7.01176e-09 DIIS

  ==> Post-Iterations <==

   @Spin Contamination Metric:   4.973887228E-01
   @S^2 Expected:                7.500000000E-01
   @S^2 Observed:                1.247388723E+00
   @S   Expected:                5.000000000E-01
   @S   Observed:                5.000000000E-01

    Orbital Energies (a.u.)
    -----------------------

    Alpha Occupied:                                                       

       1A1   -15.606720     2A1   -11.360573     3A1    -1.230160  
       4A1    -0.745856     5A1    -0.564891     1B2    -0.515685  
       1B1    -0.515685  

    Alpha Virtual:                                                        

       6A1     0.037423     7A1     0.046330     2B2     0.048136  
       2B1     0.048136     3B2     0.087682     3B1     0.087682  
       8A1     0.091637     4B2     0.149666     4B1     0.149666  
       9A1     0.155693     1A2     0.178912    10A1     0.178912  
      11A1     0.195927     5B2     0.198469     5B1     0.198469  
      12A1     0.211947     6B1     0.242680     6B2     0.242680  
      13A1     0.298426     2A2     0.309744    14A1     0.309744  
       7B2     0.348077     7B1     0.348077    15A1     0.377150  
       8B1     0.464570     8B2     0.464570    16A1     0.472097  
       9B2     0.475396     9B1     0.475396    17A1     0.512593  
      10B2     0.516385    10B1     0.516385     3A2     0.517838  
      18A1     0.517838    19A1     0.561553     4A2     0.588323  
      20A1     0.588323    11B1     0.653874    11B2     0.653874  
      21A1     0.693934    12B1     0.699078    12B2     0.699078  
       5A2     0.723980    22A1     0.723980    23A1     0.758504  
      13B2     0.768889    13B1     0.768889    24A1     0.825290  
      14B1     0.850494    14B2     0.850494    25A1     1.021500  
       6A2     1.046865    26A1     1.046865    27A1     1.065101  
      15B2     1.094535    15B1     1.094535    28A1     1.234916  
       7A2     1.234916    16B1     1.279854    16B2     1.279854  
      17B1     1.303422    17B2     1.303422    29A1     1.320174  
      18B1     1.340309    18B2     1.340309     8A2     1.342855  
      30A1     1.342855    31A1     1.353220     9A2     1.353220  
      32A1     1.361282    19B1     1.363169    19B2     1.363169  
      33A1     1.516008    20B2     1.536191    20B1     1.536191  
      34A1     1.573171    10A2     1.610549    35A1     1.610549  
      36A1     1.708963    21B2     1.721126    21B1     1.721126  
      37A1     1.762909    11A2     1.762909    22B1     1.811225  
      22B2     1.811225    12A2     1.916303    38A1     1.916303  
      23B1     1.923518    23B2     1.923518    39A1     1.950958  
      13A2     2.139394    40A1     2.139394    24B1     2.146326  
      24B2     2.146326    25B1     2.166220    25B2     2.166220  
      41A1     2.334088    42A1     2.386895    26B1     2.481184  
      26B2     2.481184    27B1     2.588534    27B2     2.588534  
      28B2     2.621366    28B1     2.621366    43A1     2.638767  
      14A2     2.691870    44A1     2.691870    45A1     2.810971  
      15A2     2.810971    46A1     2.824327    29B1     2.986326  
      29B2     2.986326    16A2     2.987466    47A1     2.987466  
      30B1     2.997258    30B2     2.997258    31B1     3.042903  
      31B2     3.042903    48A1     3.049623    32B1     3.064679  
      32B2     3.064679    49A1     3.174400    17A2     3.174400  
      18A2     3.248708    50A1     3.248708    51A1     3.251624  
      19A2     3.323151    52A1     3.323151    53A1     3.459640  
      33B1     3.513173    33B2     3.513173    34B1     3.532266  
      34B2     3.532266    35B2     3.576416    35B1     3.576416  
      54A1     3.796525    36B1     3.889271    36B2     3.889271  
      20A2     3.913075    55A1     3.913075    56A1     4.046657  
      21A2     4.046657    37B1     4.094202    37B2     4.094202  
      57A1     4.183303    38B1     4.186974    38B2     4.186974  
      22A2     4.285347    58A1     4.285347    59A1     4.319803  
      39B1     4.378028    39B2     4.378028    40B1     4.401914  
      40B2     4.401914    23A2     4.468408    60A1     4.468408  
      41B1     4.726931    41B2     4.726931    24A2     4.916629  
      61A1     4.916629    62A1     5.031731    63A1     5.180743  
      42B1     5.180756    42B2     5.180756    64A1     5.218104  
      25A2     5.249466    65A1     5.249466    26A2     5.294713  
      66A1     5.294713    67A1     5.458316    43B1     5.491004  
      43B2     5.491004    44B1     5.493042    44B2     5.493042  
      45B1     5.782597    45B2     5.782597    27A2     6.068912  
      68A1     6.068912    69A1     6.099736    28A2     6.099736  
      46B2     6.144243    46B1     6.144243    70A1     6.165458  
      47B1     6.235310    47B2     6.235310    48B1     6.257202  
      48B2     6.257202    29A2     6.269213    71A1     6.269213  
      30A2     6.345902    72A1     6.345902    49B2     6.599708  
      49B1     6.599708    50B1     6.601611    50B2     6.601611  
      73A1     6.644302    31A2     6.804008    74A1     6.804008  
      51B1     6.915193    51B2     6.915193    75A1     7.139534  
      52B2     7.169253    52B1     7.169253    32A2     7.279880  
      76A1     7.279880    77A1     7.304050    33A2     7.304050  
      53B1     7.356342    53B2     7.356342    78A1     7.407441  
      34A2     7.569761    79A1     7.569761    54B2     7.627451  
      54B1     7.627451    35A2     7.693382    80A1     7.693382  
      81A1     7.736374    55B1     7.780279    55B2     7.780279  
      56B1     7.828683    56B2     7.828683    82A1     8.195321  
      57B2     8.444865    57B1     8.444865    83A1     8.573817  
      36A2     8.573817    58B1     8.595123    58B2     8.595123  
      84A1     8.676888    37A2     8.717121    85A1     8.717121  
      59B2     8.719182    59B1     8.719182    38A2     9.033485  
      86A1     9.033485    60B1     9.189376    60B2     9.189376  
      61B1     9.340514    61B2     9.340514    39A2     9.371829  
      87A1     9.371829    88A1     9.382590    62B1     9.875981  
      62B2     9.875981    40A2     9.976314    89A1     9.976314  
      63B2    10.057365    63B1    10.057365    90A1    10.127615  
      41A2    10.378172    91A1    10.378172    64B1    10.518298  
      64B2    10.518298    92A1    10.907377    42A2    10.907377  
      93A1    11.004294    65B1    11.361336    65B2    11.361336  
      94A1    11.387637    95A1    11.568483    66B2    11.588365  
      66B1    11.588365    96A1    12.024144    43A2    12.024144  
      97A1    12.462602    44A2    12.462602    67B2    12.539185  
      67B1    12.539185    98A1    12.723578    45A2    12.723578  
      99A1    12.729014    68B1    12.769698    68B2    12.769698  
     100A1    12.958002    46A2    12.958002    69B2    13.530867  
      69B1    13.530867   101A1    13.621536    70B1    13.644767  
      70B2    13.644767    71B1    13.899975    71B2    13.899975  
      47A2    13.939352   102A1    13.939352    72B1    14.328645  
      72B2    14.328645    73B1    14.506506    73B2    14.506506  
     103A1    14.575710    48A2    14.575710    74B2    14.634353  
      74B1    14.634353    49A2    14.667019   104A1    14.667019  
     105A1    14.883752    75B1    14.964109    75B2    14.964109  
     106A1    15.144410    76B1    15.505119    76B2    15.505119  
      50A2    16.433964   107A1    16.433964   108A1    16.569730  
     109A1    16.816923    51A2    16.816923    77B1    17.240254  
      77B2    17.240254    52A2    17.345975   110A1    17.345975  
     111A1    17.418527    78B2    17.483543    78B1    17.483543  
      79B1    17.552972    79B2    17.552972   112A1    18.134515  
      53A2    18.134515   113A1    18.171762    54A2    18.171762  
      80B1    18.403625    80B2    18.403625   114A1    18.564457  
      81B1    18.636714    81B2    18.636714    82B1    19.227244  
      82B2    19.227244    55A2    19.505201   115A1    19.505201  
     116A1    19.580694    83B1    19.822011    83B2    19.822011  
     117A1    20.230359    84B1    20.275513    84B2    20.275513  
     118A1    20.438909    56A2    20.438909   119A1    20.488736  
      57A2    20.488736    85B1    20.725953    85B2    20.725953  
     120A1    21.055991   121A1    21.085337    58A2    21.085337  
      86B1    21.469425    86B2    21.469425    87B2    21.575734  
      87B1    21.575734   122A1    21.939947    88B1    22.139362  
      88B2    22.139362   123A1    22.942024    59A2    22.942024  
     124A1    23.145325    60A2    24.039071   125A1    24.039071  
      89B1    24.732713    89B2    24.732713    90B1    25.065549  
      90B2    25.065549   126A1    25.444500    61A2    25.444500  
     127A1    26.039078    91B1    26.297928    91B2    26.297928  
     128A1    26.958992   129A1    28.889352    62A2    28.889352  
      92B1    31.116465    92B2    31.116465   130A1    31.932447  
     131A1    60.321326   132A1    82.145055  

    Beta Occupied:                                                        

       1A1   -15.635324     2A1   -11.302936     3A1    -1.248061  
       4A1    -0.623579     1B2    -0.538968     1B1    -0.538968  

    Beta Virtual:                                                         

       5A1    -0.036738     6A1     0.046259     2B2     0.046557  
       2B1     0.046557     7A1     0.054668     3B2     0.092386  
       3B1     0.092386     8A1     0.095360     4B2     0.155742  
       4B1     0.155742     9A1     0.157760    10A1     0.181596  
       1A2     0.181596    11A1     0.211917     5B2     0.214712  
       5B1     0.214712    12A1     0.234177     6B2     0.261066  
       6B1     0.261066    13A1     0.300155    14A1     0.308356  
       2A2     0.308356     7B2     0.356948     7B1     0.356948  
      15A1     0.384552     8B2     0.466803     8B1     0.466803  
       9B2     0.466873     9B1     0.466873    16A1     0.492196  
      17A1     0.520141    10B2     0.521193    10B1     0.521193  
      18A1     0.530545     3A2     0.530545    19A1     0.599530  
      20A1     0.600726     4A2     0.600726    11B2     0.669492  
      11B1     0.669492    21A1     0.690961    12B1     0.697791  
      12B2     0.697791     5A2     0.720015    22A1     0.720015  
      23A1     0.779024    13B2     0.786795    13B1     0.786795  
      24A1     0.857292    14B2     0.867166    14B1     0.867166  
      25A1     1.026109     6A2     1.029013    26A1     1.029013  
      15B2     1.066732    15B1     1.066732    27A1     1.104518  
      28A1     1.239624     7A2     1.239624    16B2     1.285745  
      16B1     1.285745    17B2     1.320206    17B1     1.320206  
      29A1     1.334250    30A1     1.354036     8A2     1.354036  
      18B1     1.362230    18B2     1.362230    19B1     1.365927  
      19B2     1.365927    31A1     1.370208    32A1     1.412021  
       9A2     1.412021    33A1     1.525908    20B2     1.551903  
      20B1     1.551903    10A2     1.609608    34A1     1.609608  
      35A1     1.618554    36A1     1.731119    11A2     1.759889  
      37A1     1.759889    21B2     1.763682    21B1     1.763682  
      22B1     1.805608    22B2     1.805608    12A2     1.912676  
      38A1     1.912676    23B1     1.922677    23B2     1.922677  
      39A1     1.953437    13A2     2.103378    40A1     2.103378  
      24B1     2.156088    24B2     2.156088    25B1     2.157310  
      25B2     2.157310    41A1     2.331222    42A1     2.399508  
      26B1     2.460255    26B2     2.460255    27B2     2.595306  
      27B1     2.595306    28B1     2.630607    28B2     2.630607  
      43A1     2.651375    14A2     2.699835    44A1     2.699835  
      45A1     2.817241    15A2     2.817241    46A1     2.860347  
      29B1     3.008229    29B2     3.008229    16A2     3.011666  
      47A1     3.011666    30B1     3.012010    30B2     3.012010  
      48A1     3.067136    31B2     3.071782    31B1     3.071782  
      32B1     3.079563    32B2     3.079563    49A1     3.192880  
      17A2     3.192880    50A1     3.276832    18A2     3.278500  
      51A1     3.278500    19A2     3.356875    52A1     3.356875  
      53A1     3.492158    33B1     3.526423    33B2     3.526423  
      34B1     3.539039    34B2     3.539039    35B1     3.571593  
      35B2     3.571593    54A1     3.810637    20A2     3.901302  
      55A1     3.901302    36B1     3.914076    36B2     3.914076  
      56A1     4.043285    21A2     4.043285    37B1     4.090138  
      37B2     4.090138    57A1     4.186509    38B1     4.193685  
      38B2     4.193685    22A2     4.281132    58A1     4.281132  
      59A1     4.326126    39B1     4.372823    39B2     4.372823  
      40B1     4.399306    40B2     4.399306    23A2     4.454464  
      60A1     4.454464    41B1     4.739267    41B2     4.739267  
      24A2     4.897539    61A1     4.897539    62A1     5.060550  
      42B1     5.179047    42B2     5.179047    63A1     5.197280  
      64A1     5.220352    25A2     5.238612    65A1     5.238612  
      26A2     5.304722    66A1     5.304722    67A1     5.463141  
      43B1     5.487596    43B2     5.487596    44B1     5.501308  
      44B2     5.501308    45B1     5.775281    45B2     5.775281  
      27A2     6.085179    68A1     6.085179    69A1     6.114596  
      28A2     6.114596    46B1     6.162838    46B2     6.162838  
      70A1     6.184812    47B1     6.255362    47B2     6.255362  
      48B1     6.279240    48B2     6.279240    29A2     6.288472  
      71A1     6.288472    30A2     6.355088    72A1     6.355088  
      49B1     6.596141    49B2     6.596141    50B2     6.638350  
      50B1     6.638350    73A1     6.673180    31A2     6.812195  
      74A1     6.812195    51B1     6.924991    51B2     6.924991  
      75A1     7.152159    52B2     7.191086    52B1     7.191086  
      32A2     7.271494    76A1     7.271494    77A1     7.335672  
      33A2     7.335672    53B1     7.375914    53B2     7.375914  
      78A1     7.407746    34A2     7.603436    79A1     7.603436  
      54B2     7.632958    54B1     7.632958    35A2     7.709565  
      80A1     7.709565    81A1     7.751799    55B1     7.775505  
      55B2     7.775505    56B1     7.840642    56B2     7.840642  
      82A1     8.223511    57B2     8.428945    57B1     8.428945  
      83A1     8.567001    36A2     8.567001    58B1     8.599291  
      58B2     8.599291    84A1     8.677906    59B2     8.717087  
      59B1     8.717087    37A2     8.719188    85A1     8.719188  
      86A1     9.027138    38A2     9.027138    60B1     9.196511  
      60B2     9.196511    61B1     9.314546    61B2     9.314546  
      39A2     9.377151    87A1     9.377151    88A1     9.378344  
      62B1     9.895084    62B2     9.895084    40A2     9.975478  
      89A1     9.975478    63B2    10.062202    63B1    10.062202  
      90A1    10.144899    41A2    10.351566    91A1    10.351566  
      64B1    10.505684    64B2    10.505684    92A1    10.890048  
      42A2    10.890048    93A1    11.013476    65B1    11.354590  
      65B2    11.354590    94A1    11.390889    95A1    11.573101  
      66B2    11.576966    66B1    11.576966    96A1    12.025662  
      43A2    12.025662    97A1    12.481502    44A2    12.481502  
      67B2    12.557200    67B1    12.557200    98A1    12.706175  
      45A2    12.706175    99A1    12.750791    68B1    12.774620  
      68B2    12.774620   100A1    12.973507    46A2    12.973507  
      69B2    13.550080    69B1    13.550080   101A1    13.642319  
      70B1    13.659018    70B2    13.659018    71B1    13.910554  
      71B2    13.910554    47A2    13.950078   102A1    13.950078  
      72B1    14.347133    72B2    14.347133    73B2    14.532460  
      73B1    14.532460   103A1    14.601842    48A2    14.601842  
      74B2    14.665140    74B1    14.665140    49A2    14.692525  
     104A1    14.692525   105A1    14.912542    75B1    14.987459  
      75B2    14.987459   106A1    15.155073    76B1    15.521139  
      76B2    15.521139    50A2    16.456197   107A1    16.456197  
     108A1    16.584014   109A1    16.846287    51A2    16.846287  
      77B1    17.260673    77B2    17.260673    52A2    17.329248  
     110A1    17.329248   111A1    17.423310    78B2    17.509667  
      78B1    17.509667    79B1    17.539834    79B2    17.539834  
      53A2    18.125278   112A1    18.125278   113A1    18.195221  
      54A2    18.195221    80B1    18.402355    80B2    18.402355  
     114A1    18.575790    81B1    18.631395    81B2    18.631395  
      82B1    19.237864    82B2    19.237864    55A2    19.505511  
     115A1    19.505511   116A1    19.591402    83B1    19.811678  
      83B2    19.811678   117A1    20.233020    84B1    20.252193  
      84B2    20.252193   118A1    20.446274    56A2    20.446274  
     119A1    20.470911    57A2    20.470911    85B1    20.707582  
      85B2    20.707582   120A1    21.049282   121A1    21.085984  
      58A2    21.085984    86B1    21.466043    86B2    21.466043  
      87B2    21.551095    87B1    21.551095   122A1    21.933132  
      88B1    22.152874    88B2    22.152874   123A1    22.928413  
      59A2    22.928413   124A1    23.154833    60A2    24.011860  
     125A1    24.011860    89B1    24.713588    89B2    24.713588  
      90B1    25.058324    90B2    25.058324   126A1    25.431120  
      61A2    25.431120   127A1    26.035733    91B1    26.288686  
      91B2    26.288686   128A1    26.960632   129A1    28.865709  
      62A2    28.865709    92B1    31.107170    92B2    31.107170  
     130A1    31.927775   131A1    60.342452   132A1    82.138177  

    Final Occupation by Irrep:
             A1    A2    B1    B2 
    DOCC [     4,    0,    1,    1 ]
    SOCC [     1,    0,    0,    0 ]

  Energy converged.

  @UHF Final Energy:   -92.24030063300712

   => Energetics <=

    Nuclear Repulsion Energy =             18.6306467447799236
    One-Electron Energy =                -161.3144901205413078
    Two-Electron Energy =                  50.4435427427542606
    Total Energy =                        -92.2403006330071378


  UHF NO Occupations:
  HONO-2 :    1 B2 1.8683871
  HONO-1 :    1 B1 1.8683871
  HONO-0 :    5 A1 1.0000000
  LUNO+0 :    2 B1 0.1316129
  LUNO+1 :    2 B2 0.1316129
  LUNO+2 :    6 A1 0.0021068
  LUNO+3 :    7 A1 0.0006845



Properties will be evaluated at   0.000000,   0.000000,   0.000000 Bohr

Properties computed using the SCF density matrix

  Nuclear Dipole Moment: (a.u.)
     X:     0.0000      Y:     0.0000      Z:     0.0016

  Electronic Dipole Moment: (a.u.)
     X:     0.0000      Y:     0.0000      Z:     0.8399

  Dipole Moment: (a.u.)
     X:     0.0000      Y:     0.0000      Z:     0.8415     Total:     0.8415

  Dipole Moment: (Debye)
     X:     0.0000      Y:     0.0000      Z:     2.1389     Total:     2.1389


*** tstop() called on l46 at Tue Jan  5 12:04:14 2021
Module time:
	user time   =    1145.17 seconds =      19.09 minutes
	system time =     114.51 seconds =       1.91 minutes
	total time  =       1264 seconds =      21.07 minutes
Total time:
	user time   =    1145.17 seconds =      19.09 minutes
	system time =     114.51 seconds =       1.91 minutes
	total time  =       1264 seconds =      21.07 minutes

*** tstart() called on l46
*** at Tue Jan  5 12:04:14 2021


	Wfn Parameters:
	--------------------
	Wavefunction         = CCSD
	Number of irreps     = 4
	Number of MOs        = 378
	Number of active MOs = 376
	AO-Basis             = NONE
	Semicanonical        = false
	Reference            = UHF
	Print Level          = 1

	IRREP	# MOs	# FZDC	# DOCC	# SOCC	# VIRT	# FZVR
	-----	-----	------	------	------	------	------
	 A1	   132	    2	    2	    1	    127	    0
	 A2	   62	    0	    0	    0	    62	    0
	 B1	   92	    0	    1	    0	    91	    0
	 B2	   92	    0	    1	    0	    91	    0
	Transforming integrals...
	IWL integrals will be deleted.
	(OO|OO)...
	Presorting SO-basis two-electron integrals.
	Sorting File: SO Ints (nn|nn) nbuckets = 1
	Transforming the one-electron integrals and constructing Fock matrices
	Starting AA/AB first half-transformation.
	Sorting AA/AB half-transformed integrals.
	Starting BB first half-transformation.
	Sorting BB half-transformed integrals.
	First half integral transformation complete.
	Starting AA second half-transformation.
	Starting AB second half-transformation.
	Starting BB second half-transformation.
	Two-electron integral transformation complete.
	(OO|OV)...
	Starting AA second half-transformation.
	Starting AB second half-transformation.
	Starting BB second half-transformation.
	Two-electron integral transformation complete.
	(OO|VV)...
	Starting AA second half-transformation.
	Starting AB second half-transformation.
	Starting BB second half-transformation.
	Two-electron integral transformation complete.
	(OV|OO)...
	Starting AA/AB first half-transformation.
	Sorting AA/AB half-transformed integrals.
	Starting BB first half-transformation.
	Sorting BB half-transformed integrals.
	First half integral transformation complete.
	Starting AA second half-transformation.
	Starting AB second half-transformation.
	Starting BB second half-transformation.
	Two-electron integral transformation complete.
	(OV|OV)...
	Starting AA second half-transformation.
	Starting AB second half-transformation.
	Starting BB second half-transformation.
	Two-electron integral transformation complete.
	(OV|VV)...
	Starting AA second half-transformation.
	Starting AB second half-transformation.
	Starting BB second half-transformation.
	Two-electron integral transformation complete.
	(VV|OO)...
	Starting AA/AB first half-transformation.
	Sorting AA/AB half-transformed integrals.
	Starting BB first half-transformation.
	Sorting BB half-transformed integrals.
	First half integral transformation complete.
	Starting AA second half-transformation.
	Starting AB second half-transformation.
	Starting BB second half-transformation.
	Two-electron integral transformation complete.
	(VV|OV)...
	Starting AA second half-transformation.
	Starting AB second half-transformation.
	Starting BB second half-transformation.
	Two-electron integral transformation complete.
	(VV|VV)...
	Starting AA second half-transformation.
	Starting AB second half-transformation.
	Starting BB second half-transformation.
	Two-electron integral transformation complete.
	Frozen core energy     =    -86.85197533021345

	Size of irrep 0 of <AB|CD> integrals:    326.959 (MW) /   2615.670 (MB)
	Size of irrep 1 of <AB|CD> integrals:    260.984 (MW) /   2087.872 (MB)
	Size of irrep 2 of <AB|CD> integrals:    295.806 (MW) /   2366.445 (MB)
	Size of irrep 3 of <AB|CD> integrals:    295.806 (MW) /   2366.445 (MB)
	Total:                                  1179.554 (MW) /   9436.432 (MB)

	Size of irrep 0 of <ab|cd> integrals:    331.568 (MW) /   2652.541 (MB)
	Size of irrep 1 of <ab|cd> integrals:    262.991 (MW) /   2103.929 (MB)
	Size of irrep 2 of <ab|cd> integrals:    298.944 (MW) /   2391.553 (MB)
	Size of irrep 3 of <ab|cd> integrals:    298.944 (MW) /   2391.553 (MB)
	Total:                                  1192.447 (MW) /   9539.576 (MB)

	Size of irrep 0 of <Ab|Cd> integrals:   1344.102 (MW) /  10752.818 (MB)
	Size of irrep 1 of <Ab|Cd> integrals:   1047.946 (MW) /   8383.571 (MB)
	Size of irrep 2 of <Ab|Cd> integrals:   1189.491 (MW) /   9515.929 (MB)
	Size of irrep 3 of <Ab|Cd> integrals:   1189.491 (MW) /   9515.929 (MB)
	Total:                                  4771.031 (MW) /  38168.247 (MB)

	Size of irrep 0 of <IA|BC> integrals:     20.569 (MW) /    164.554 (MB)
	Size of irrep 1 of <IA|BC> integrals:     11.890 (MW) /     95.121 (MB)
	Size of irrep 2 of <IA|BC> integrals:     15.892 (MW) /    127.135 (MB)
	Size of irrep 3 of <IA|BC> integrals:     15.892 (MW) /    127.135 (MB)
	Total:                                    64.243 (MW) /    513.944 (MB)

	Size of irrep 0 of <ia|bc> integrals:     16.114 (MW) /    128.912 (MB)
	Size of irrep 1 of <ia|bc> integrals:      9.925 (MW) /     79.398 (MB)
	Size of irrep 2 of <ia|bc> integrals:     12.864 (MW) /    102.910 (MB)
	Size of irrep 3 of <ia|bc> integrals:     12.864 (MW) /    102.910 (MB)
	Total:                                    51.766 (MW) /    414.131 (MB)

	Size of irrep 0 of <Ia|Bc> integrals:     20.751 (MW) /    166.006 (MB)
	Size of irrep 1 of <Ia|Bc> integrals:     11.913 (MW) /     95.303 (MB)
	Size of irrep 2 of <Ia|Bc> integrals:     15.968 (MW) /    127.747 (MB)
	Size of irrep 3 of <Ia|Bc> integrals:     15.968 (MW) /    127.747 (MB)
	Total:                                    64.600 (MW) /    516.803 (MB)

	Size of irrep 0 of <iA|bC> integrals:     15.985 (MW) /    127.877 (MB)
	Size of irrep 1 of <iA|bC> integrals:      9.906 (MW) /     79.247 (MB)
	Size of irrep 2 of <iA|bC> integrals:     12.795 (MW) /    102.363 (MB)
	Size of irrep 3 of <iA|bC> integrals:     12.795 (MW) /    102.363 (MB)
	Total:                                    51.481 (MW) /    411.850 (MB)

	Size of irrep 0 of tIjAb amplitudes:       0.293 (MW) /      2.346 (MB)
	Size of irrep 1 of tIjAb amplitudes:       0.065 (MW) /      0.518 (MB)
	Size of irrep 2 of tIjAb amplitudes:       0.172 (MW) /      1.380 (MB)
	Size of irrep 3 of tIjAb amplitudes:       0.172 (MW) /      1.380 (MB)
	Total:                                     0.703 (MW) /      5.623 (MB)

	Nuclear Rep. energy          =     18.63064674477992
	SCF energy                   =    -92.24030063300712
	One-electron energy          =    -41.51609144168597
	Two-electron (AA) energy     =      4.25307687490318
	Two-electron (BB) energy     =      3.04444378892785
	Two-electron (AB) energy     =     10.19959873027072
	Two-electron energy          =     17.49711939410176
	Reference energy             =    -92.24030063301774

*** tstop() called on l46 at Tue Jan  5 12:25:04 2021
Module time:
	user time   =     723.49 seconds =      12.06 minutes
	system time =     478.23 seconds =       7.97 minutes
	total time  =       1250 seconds =      20.83 minutes
Total time:
	user time   =    1868.66 seconds =      31.14 minutes
	system time =     592.74 seconds =       9.88 minutes
	total time  =       2514 seconds =      41.90 minutes

*** tstart() called on l46
*** at Tue Jan  5 12:25:04 2021

            **************************
            *                        *
            *        CCENERGY        *
            *                        *
            **************************

    Nuclear Rep. energy (wfn)     =   18.630646744779924
    SCF energy          (wfn)     =  -92.240300633007124
    Reference energy    (file100) =  -92.240300633017739

    Input parameters:
    -----------------
    Wave function   =     CCSD
    Reference wfn   =     UHF
    Brueckner       =     No
    Memory (Mbytes) =     250000.0
    Maxiter         =     50
    R_Convergence   =     1.0e-07
    E_Convergence   =     1.0e-06
    Restart         =     Yes
    DIIS            =     Yes
    AO Basis        =     NONE
    ABCD            =     NEW
    Cache Level     =     2
    Cache Type      =     LRU
    Print Level     =     1
    Num. of threads =     1
    # Amps to Print =     10
    Print MP2 Amps? =     No
    Analyze T2 Amps =     No
    Print Pair Ener =     No
    Local CC        =     No
    SCS-MP2         =     False
    SCSN-MP2        =     False
    SCS-CCSD        =     False

MP2 correlation energy -0.3004319546978155
                Solving CC Amplitude Equations
                ------------------------------
  Iter             Energy              RMS        T1Diag      D1Diag    New D1Diag    D2Diag
  ----     ---------------------    ---------   ----------  ----------  ----------   --------
     0        -0.300431954703082    0.000e+00    0.000003    0.000000    0.000000    0.000000
     1        -0.295752380967464    1.246e-01    0.038390    0.000000    0.000000    0.000000
     2        -0.315498002045674    6.347e-02    0.056780    0.000000    0.000000    0.000000
     3        -0.332308969568373    5.548e-02    0.104221    0.000000    0.000000    0.000000
     4        -0.335641551522532    2.270e-02    0.125659    0.000000    0.000000    0.000000
     5        -0.336361393841060    1.278e-02    0.131047    0.000000    0.000000    0.000000
     6        -0.337301637582275    8.028e-03    0.134320    0.000000    0.000000    0.000000
     7        -0.337375967848789    4.486e-03    0.135866    0.000000    0.000000    0.000000
     8        -0.337502874521121    2.029e-03    0.136695    0.000000    0.000000    0.000000
     9        -0.337599641087407    9.468e-04    0.137102    0.000000    0.000000    0.000000
    10        -0.337590449197164    4.990e-04    0.137270    0.000000    0.000000    0.000000
    11        -0.337584677790837    2.078e-04    0.137241    0.000000    0.000000    0.000000
    12        -0.337576540477974    7.831e-05    0.137240    0.000000    0.000000    0.000000
    13        -0.337580790410677    3.473e-05    0.137257    0.000000    0.000000    0.000000
    14        -0.337582694758853    1.533e-05    0.137261    0.000000    0.000000    0.000000
    15        -0.337583480362378    4.393e-06    0.137264    0.000000    0.000000    0.000000
    16        -0.337583716360378    1.483e-06    0.137265    0.000000    0.000000    0.000000
    17        -0.337583762221703    6.346e-07    0.137265    0.000000    0.000000    0.000000
    18        -0.337583776326177    1.729e-07    0.137265    0.000000    0.000000    0.000000
    19        -0.337583776206444    6.349e-08    0.137265    0.000000    0.000000    0.000000
    19        -0.337583776206444    6.349e-08    0.137265    0.000000    0.000000    0.000000

    Iterations converged.


    CCSD corr. energy   =   -0.337583776206444
    PPL corr. energy    =    0.095661085304296
    OS PPL corr. energy =    0.082566339034184
    SS PPL corr. energy =    0.013094746270080
    Largest TIA Amplitudes:
              4 282        -0.1415996748
              3 191        -0.1415996748
              4 284        -0.0665358676
              3 193        -0.0665358676
              3 194        -0.0554654793
              4 285        -0.0554654793
              3 190        -0.0505346947
              4 281        -0.0505346947
              4 287         0.0370927109
              3 196         0.0370927109

    Largest Tia Amplitudes:
              1   0         0.2012723773
              2 192         0.0971733530
              3 283         0.0971733530
              2 194         0.0802652334
              3 285         0.0802652334
              1   2        -0.0772392126
              3 286         0.0658680734
              2 195         0.0658680734
              1   7         0.0551036906
              3 284         0.0332262593

    Largest TIJAB Amplitudes:
      4   3 282 191        -0.0291234758
      4   3 282 193        -0.0150463309
      4   3 284 191        -0.0150463309
      4   3 282 194        -0.0148673258
      4   3 285 191        -0.0148673258
      3   2 191  18        -0.0122414491
      4   2 282  18        -0.0122414491
      3   2 191  21        -0.0113388625
      4   2 282  21        -0.0113388625
      4   3 281 191        -0.0107069440

    Largest Tijab Amplitudes:
      3   2 283 192        -0.0190294873
      2   1 192   0        -0.0173269806
      3   1 283   0        -0.0173269806
      3   2 283 195        -0.0146659298
      3   2 286 192        -0.0146659298
      3   2 283 194        -0.0132068598
      3   2 285 192        -0.0132068598
      2   1 195   0        -0.0127248813
      3   1 286   0        -0.0127248813
      3   2 285 194        -0.0124555007

    Largest TIjAb Amplitudes:
      3   1 191   0        -0.0830051384
      4   1 282   0        -0.0830051384
      3   2 191 192        -0.0788927989
      4   3 282 283        -0.0788927989
      3   2 191 194        -0.0638480819
      4   3 282 285        -0.0638480819
      4   3 282 286        -0.0614874421
      3   2 191 195        -0.0614874421
      1   2 191   0         0.0489059535
      1   3 282   0         0.0489059535

    SCF energy       (wfn)                    =  -92.240300633007124
    Reference energy (file100)                =  -92.240300633017739

    Opposite-spin MP2 correlation energy      =   -0.220391290539821
    Same-spin MP2 correlation energy          =   -0.080040664099799
    MP2 correlation energy                    =   -0.300431954697815
      * MP2 total energy                      =  -92.540732587715553

    Opposite-spin CCSD correlation energy     =   -0.273378704526017
    Same-spin CCSD correlation energy         =   -0.064207519931284
    CCSD correlation energy                   =   -0.337583776206444
      * CCSD total energy                     =  -92.577884409224183


*** tstop() called on l46 at Tue Jan  5 12:46:22 2021
Module time:
	user time   =     508.54 seconds =       8.48 minutes
	system time =     757.71 seconds =      12.63 minutes
	total time  =       1278 seconds =      21.30 minutes
Total time:
	user time   =    2377.20 seconds =      39.62 minutes
	system time =    1350.45 seconds =      22.51 minutes
	total time  =       3792 seconds =      63.20 minutes

*** Psi4 exiting successfully. Buy a developer a beer!
