
    -----------------------------------------------------------------------
          Psi4: An Open-Source Ab Initio Electronic Structure Package
                               Psi4 1.2a1.dev939 

                         Git: Rev {HEAD} fa1ec19 dirty


    R. M. Parrish, L. A. Burns, D. G. A. Smith, A. C. Simmonett,
    A. E. DePrince III, E. G. Hohenstein, U. Bozkaya, A. Yu. Sokolov,
    R. Di Remigio, R. M. Richard, J. F. Gonthier, A. M. James,
    H. R. McAlexander, A. Kumar, M. Saitow, X. Wang, B. P. Pritchard,
    P. Verma, H. F. Schaefer III, K. Patkowski, R. A. King, E. F. Valeev,
    F. A. Evangelista, J. M. Turney, T. D. Crawford, and C. D. Sherrill,
    J. Chem. Theory Comput. 13(7) pp 3185--3197 (2017).
    (doi: 10.1021/acs.jctc.7b00174)

    -----------------------------------------------------------------------


    Psi4 started on: Thursday, 14 January 2021 09:52AM

    Process ID: 273808
    PSIDATADIR: /home/fs71337/airmler/src/psi4_uhf/build/stage/usr/local/psi4/share/psi4
    Memory:     500.0 MiB
    Threads:    1
    
  ==> Input File <==

--------------------------------------------------------------------------
# Any line starting with the # character is a comment line
memory 250000 mb
molecule molecule{
0 2
C          0.0000000000        0.0000000000        0.6422282651
N          0.0000000000        0.0000000000       -0.5507224180
}

set {
  reference uhf
  basis aug-cc-pv(d+d)z
  scf_type OUT_OF_CORE
  freeze_core true

  DOCC [     4,    0,    1,    1 ]
  SOCC [     1,    0,    0,    0 ]


}

energy('ccsd')
--------------------------------------------------------------------------

  Memory set to 232.831 GiB by Python driver.

*** tstart() called on l48
*** at Thu Jan 14 09:52:52 2021

   => Loading Basis Set <=

    Name: AUG-CC-PV(D+D)Z
    Role: ORBITAL
    Keyword: BASIS
    atoms 1 entry C          line   198 file /home/fs71337/airmler/src/psi4_uhf/build/stage/usr/local/psi4/share/psi4/basis/aug-cc-pv_dpd_z.gbs 
    atoms 2 entry N          line   234 file /home/fs71337/airmler/src/psi4_uhf/build/stage/usr/local/psi4/share/psi4/basis/aug-cc-pv_dpd_z.gbs 


         ---------------------------------------------------------
                                   SCF
            by Justin Turney, Rob Parrish, Andy Simmonett
                             and Daniel Smith
                              UHF Reference
                        1 Threads, 238418 MiB Core
         ---------------------------------------------------------

  ==> Geometry <==

    Molecular point group: c2v
    Full point group: C_inf_v

    Geometry (in Angstrom), charge = 0, multiplicity = 2:

       Center              X                  Y                   Z               Mass       
    ------------   -----------------  -----------------  -----------------  -----------------
           C          0.000000000000     0.000000000000     0.642423149526    12.000000000000
           N          0.000000000000     0.000000000000    -0.550527533574    14.003074004780

  Running in c2v symmetry.

  Rotational constants: A = ************  B =      1.83304  C =      1.83304 [cm^-1]
  Rotational constants: A = ************  B =  54953.11022  C =  54953.11022 [MHz]
  Nuclear repulsion =   18.630646744779924

  Charge       = 0
  Multiplicity = 2
  Electrons    = 13
  Nalpha       = 7
  Nbeta        = 6

  ==> Algorithm <==

  SCF Algorithm Type is OUT_OF_CORE.
  DIIS enabled.
  MOM disabled.
  Fractional occupation disabled.
  Guess Type is GWH.
  Energy threshold   = 1.00e-08
  Density threshold  = 1.00e-08
  Integral threshold = 0.00e+00

  ==> Primary Basis <==

  Basis Set: AUG-CC-PV(D+D)Z
    Blend: AUG-CC-PV(D+D)Z
    Number of shells: 18
    Number of basis function: 46
    Number of Cartesian functions: 50
    Spherical Harmonics?: true
    Max angular momentum: 2

  ==> Pre-Iterations <==

   -------------------------------------------------------
    Irrep   Nso     Nmo     Nalpha   Nbeta   Ndocc  Nsocc
   -------------------------------------------------------
     A1        22      22       5       4       4       1
     A2         4       4       0       0       0       0
     B1        10      10       1       1       1       0
     B2        10      10       1       1       1       0
   -------------------------------------------------------
    Total      46      46       7       6       6       1
   -------------------------------------------------------

  ==> Integral Setup <==

  ==> DiskJK: Disk-Based J/K Matrices <==

    J tasked:                  Yes
    K tasked:                  Yes
    wK tasked:                  No
    Memory (MB):            178813
    Schwarz Cutoff:          1E-12

  Minimum eigenvalue in the overlap matrix is 1.0652932292E-03.
  Using Symmetric Orthogonalization.

  SCF Guess: Generalized Wolfsberg-Helmholtz.

  ==> Iterations <==

                        Total Energy        Delta E     RMS |[F,P]|

   @UHF iter   1:   -91.17474305309030   -9.11747e+01   7.18179e-02 
   @UHF iter   2:   -90.99746627620820    1.77277e-01   5.73391e-02 DIIS
   @UHF iter   3:   -92.05215249831174   -1.05469e+00   2.04123e-02 DIIS
   @UHF iter   4:   -92.19151355423975   -1.39361e-01   2.03636e-03 DIIS
   @UHF iter   5:   -92.19588031938297   -4.36677e-03   1.03224e-03 DIIS
   @UHF iter   6:   -92.19852500521688   -2.64469e-03   9.14573e-04 DIIS
   @UHF iter   7:   -92.20079602294996   -2.27102e-03   8.97366e-04 DIIS
   @UHF iter   8:   -92.20376665790226   -2.97063e-03   8.33595e-04 DIIS
   @UHF iter   9:   -92.20628627309276   -2.51962e-03   8.12678e-04 DIIS
   @UHF iter  10:   -92.20944981376424   -3.16354e-03   7.38942e-04 DIIS
   @UHF iter  11:   -92.21225852951713   -2.80872e-03   1.05008e-03 DIIS
   @UHF iter  12:   -92.21457820413359   -2.31967e-03   5.74910e-04 DIIS
   @UHF iter  13:   -92.21469869213520   -1.20488e-04   3.78841e-04 DIIS
   @UHF iter  14:   -92.21556907923807   -8.70387e-04   1.36392e-04 DIIS
   @UHF iter  15:   -92.21563012113333   -6.10419e-05   2.95650e-05 DIIS
   @UHF iter  16:   -92.21563335230864   -3.23118e-06   1.53632e-05 DIIS
   @UHF iter  17:   -92.21563417922074   -8.26912e-07   2.26553e-06 DIIS
   @UHF iter  18:   -92.21563417940889   -1.88152e-10   9.81331e-07 DIIS
   @UHF iter  19:   -92.21563418427611   -4.86722e-09   5.08332e-08 DIIS
   @UHF iter  20:   -92.21563418428146   -5.34328e-12   3.62686e-08 DIIS
   @UHF iter  21:   -92.21563418428629   -4.83169e-12   1.71166e-08 DIIS
   @UHF iter  22:   -92.21563418428784   -1.54898e-12   1.91474e-09 DIIS

  ==> Post-Iterations <==

   @Spin Contamination Metric:   4.840735359E-01
   @S^2 Expected:                7.500000000E-01
   @S^2 Observed:                1.234073536E+00
   @S   Expected:                5.000000000E-01
   @S   Observed:                5.000000000E-01

    Orbital Energies (a.u.)
    -----------------------

    Alpha Occupied:                                                       

       1A1   -15.619226     2A1   -11.369765     3A1    -1.234788  
       4A1    -0.746888     5A1    -0.564606     1B2    -0.515929  
       1B1    -0.515929  

    Alpha Virtual:                                                        

       6A1     0.079360     7A1     0.086551     2B2     0.093701  
       2B1     0.093701     3B1     0.139712     3B2     0.139712  
       8A1     0.190318     4B2     0.252775     4B1     0.252775  
       9A1     0.314625    10A1     0.416597     1A2     0.416597  
      11A1     0.469458     5B1     0.568114     5B2     0.568114  
      12A1     0.628364     6B2     0.681491     6B1     0.681491  
      13A1     0.758938     2A2     0.815586    14A1     0.815586  
       7B1     0.966203     7B2     0.966203    15A1     0.990902  
      16A1     1.256564     8B2     1.498382     8B1     1.498382  
       3A2     1.579635    17A1     1.579635    18A1     1.702850  
       9B2     1.751635     9B1     1.751635    19A1     1.972163  
      20A1     2.592479     4A2     2.592479    21A1     2.593429  
      10B2     2.806154    10B1     2.806154    22A1     3.215936  

    Beta Occupied:                                                        

       1A1   -15.648169     2A1   -11.311890     3A1    -1.253547  
       4A1    -0.624673     1B1    -0.538164     1B2    -0.538164  

    Beta Virtual:                                                         

       5A1    -0.037820     6A1     0.086242     2B2     0.086552  
       2B1     0.086552     7A1     0.120866     3B2     0.188530  
       3B1     0.188530     8A1     0.198704     4B2     0.247992  
       4B1     0.247992     9A1     0.322901     1A2     0.440390  
      10A1     0.440390    11A1     0.510453     5B1     0.575880  
       5B2     0.575880    12A1     0.674263     6B2     0.728618  
       6B1     0.728618    13A1     0.762153     2A2     0.793289  
      14A1     0.793289     7B1     0.988020     7B2     0.988020  
      15A1     1.097837    16A1     1.278726     8B2     1.447602  
       8B1     1.447602     3A2     1.669697    17A1     1.669697  
      18A1     1.711926     9B2     1.824598     9B1     1.824598  
      19A1     2.016060     4A2     2.515122    20A1     2.515122  
      21A1     2.612591    10B1     2.788008    10B2     2.788008  
      22A1     3.211530  

    Final Occupation by Irrep:
             A1    A2    B1    B2 
    DOCC [     4,    0,    1,    1 ]
    SOCC [     1,    0,    0,    0 ]

  Energy converged.

  @UHF Final Energy:   -92.21563418428784

   => Energetics <=

    Nuclear Repulsion Energy =             18.6306467447799236
    One-Electron Energy =                -161.2108225890327731
    Two-Electron Energy =                  50.3645416599650133
    Total Energy =                        -92.2156341842878220


  UHF NO Occupations:
  HONO-2 :    1 B2 1.8720908
  HONO-1 :    1 B1 1.8720908
  HONO-0 :    5 A1 1.0000000
  LUNO+0 :    2 B1 0.1279092
  LUNO+1 :    2 B2 0.1279092
  LUNO+2 :    6 A1 0.0019694
  LUNO+3 :    7 A1 0.0006112



Properties will be evaluated at   0.000000,   0.000000,   0.000000 Bohr

Properties computed using the SCF density matrix

  Nuclear Dipole Moment: (a.u.)
     X:     0.0000      Y:     0.0000      Z:     0.0016

  Electronic Dipole Moment: (a.u.)
     X:     0.0000      Y:     0.0000      Z:     0.8429

  Dipole Moment: (a.u.)
     X:     0.0000      Y:     0.0000      Z:     0.8445     Total:     0.8445

  Dipole Moment: (Debye)
     X:     0.0000      Y:     0.0000      Z:     2.1465     Total:     2.1465


*** tstop() called on l48 at Thu Jan 14 09:52:53 2021
Module time:
	user time   =       0.52 seconds =       0.01 minutes
	system time =       0.04 seconds =       0.00 minutes
	total time  =          1 seconds =       0.02 minutes
Total time:
	user time   =       0.52 seconds =       0.01 minutes
	system time =       0.04 seconds =       0.00 minutes
	total time  =          1 seconds =       0.02 minutes

*** tstart() called on l48
*** at Thu Jan 14 09:52:53 2021


	Wfn Parameters:
	--------------------
	Wavefunction         = CCSD
	Number of irreps     = 4
	Number of MOs        = 46
	Number of active MOs = 44
	AO-Basis             = NONE
	Semicanonical        = false
	Reference            = UHF
	Print Level          = 1

	IRREP	# MOs	# FZDC	# DOCC	# SOCC	# VIRT	# FZVR
	-----	-----	------	------	------	------	------
	 A1	   22	    2	    2	    1	    17	    0
	 A2	   4	    0	    0	    0	    4	    0
	 B1	   10	    0	    1	    0	    9	    0
	 B2	   10	    0	    1	    0	    9	    0
	Transforming integrals...
	IWL integrals will be deleted.
	(OO|OO)...
	Presorting SO-basis two-electron integrals.
	Sorting File: SO Ints (nn|nn) nbuckets = 1
	Transforming the one-electron integrals and constructing Fock matrices
	Starting AA/AB first half-transformation.
	Sorting AA/AB half-transformed integrals.
	Starting BB first half-transformation.
	Sorting BB half-transformed integrals.
	First half integral transformation complete.
	Starting AA second half-transformation.
	Starting AB second half-transformation.
	Starting BB second half-transformation.
	Two-electron integral transformation complete.
	(OO|OV)...
	Starting AA second half-transformation.
	Starting AB second half-transformation.
	Starting BB second half-transformation.
	Two-electron integral transformation complete.
	(OO|VV)...
	Starting AA second half-transformation.
	Starting AB second half-transformation.
	Starting BB second half-transformation.
	Two-electron integral transformation complete.
	(OV|OO)...
	Starting AA/AB first half-transformation.
	Sorting AA/AB half-transformed integrals.
	Starting BB first half-transformation.
	Sorting BB half-transformed integrals.
	First half integral transformation complete.
	Starting AA second half-transformation.
	Starting AB second half-transformation.
	Starting BB second half-transformation.
	Two-electron integral transformation complete.
	(OV|OV)...
	Starting AA second half-transformation.
	Starting AB second half-transformation.
	Starting BB second half-transformation.
	Two-electron integral transformation complete.
	(OV|VV)...
	Starting AA second half-transformation.
	Starting AB second half-transformation.
	Starting BB second half-transformation.
	Two-electron integral transformation complete.
	(VV|OO)...
	Starting AA/AB first half-transformation.
	Sorting AA/AB half-transformed integrals.
	Starting BB first half-transformation.
	Sorting BB half-transformed integrals.
	First half integral transformation complete.
	Starting AA second half-transformation.
	Starting AB second half-transformation.
	Starting BB second half-transformation.
	Two-electron integral transformation complete.
	(VV|OV)...
	Starting AA second half-transformation.
	Starting AB second half-transformation.
	Starting BB second half-transformation.
	Two-electron integral transformation complete.
	(VV|VV)...
	Starting AA second half-transformation.
	Starting AB second half-transformation.
	Starting BB second half-transformation.
	Two-electron integral transformation complete.
	Frozen core energy     =    -86.85017078626899

	Size of irrep 0 of <AB|CD> integrals:      0.046 (MW) /      0.366 (MB)
	Size of irrep 1 of <AB|CD> integrals:      0.022 (MW) /      0.178 (MB)
	Size of irrep 2 of <AB|CD> integrals:      0.036 (MW) /      0.286 (MB)
	Size of irrep 3 of <AB|CD> integrals:      0.036 (MW) /      0.286 (MB)
	Total:                                     0.139 (MW) /      1.116 (MB)

	Size of irrep 0 of <ab|cd> integrals:      0.053 (MW) /      0.427 (MB)
	Size of irrep 1 of <ab|cd> integrals:      0.023 (MW) /      0.187 (MB)
	Size of irrep 2 of <ab|cd> integrals:      0.039 (MW) /      0.314 (MB)
	Size of irrep 3 of <ab|cd> integrals:      0.039 (MW) /      0.314 (MB)
	Total:                                     0.155 (MW) /      1.241 (MB)

	Size of irrep 0 of <Ab|Cd> integrals:      0.234 (MW) /      1.874 (MB)
	Size of irrep 1 of <Ab|Cd> integrals:      0.091 (MW) /      0.730 (MB)
	Size of irrep 2 of <Ab|Cd> integrals:      0.150 (MW) /      1.198 (MB)
	Size of irrep 3 of <Ab|Cd> integrals:      0.150 (MW) /      1.198 (MB)
	Total:                                     0.625 (MW) /      5.000 (MB)

	Size of irrep 0 of <IA|BC> integrals:      0.032 (MW) /      0.258 (MB)
	Size of irrep 1 of <IA|BC> integrals:      0.009 (MW) /      0.072 (MB)
	Size of irrep 2 of <IA|BC> integrals:      0.018 (MW) /      0.145 (MB)
	Size of irrep 3 of <IA|BC> integrals:      0.018 (MW) /      0.145 (MB)
	Total:                                     0.077 (MW) /      0.620 (MB)

	Size of irrep 0 of <ia|bc> integrals:      0.027 (MW) /      0.217 (MB)
	Size of irrep 1 of <ia|bc> integrals:      0.008 (MW) /      0.064 (MB)
	Size of irrep 2 of <ia|bc> integrals:      0.016 (MW) /      0.127 (MB)
	Size of irrep 3 of <ia|bc> integrals:      0.016 (MW) /      0.127 (MB)
	Total:                                     0.067 (MW) /      0.534 (MB)

	Size of irrep 0 of <Ia|Bc> integrals:      0.035 (MW) /      0.279 (MB)
	Size of irrep 1 of <Ia|Bc> integrals:      0.009 (MW) /      0.072 (MB)
	Size of irrep 2 of <Ia|Bc> integrals:      0.019 (MW) /      0.152 (MB)
	Size of irrep 3 of <Ia|Bc> integrals:      0.019 (MW) /      0.152 (MB)
	Total:                                     0.082 (MW) /      0.655 (MB)

	Size of irrep 0 of <iA|bC> integrals:      0.025 (MW) /      0.201 (MB)
	Size of irrep 1 of <iA|bC> integrals:      0.008 (MW) /      0.063 (MB)
	Size of irrep 2 of <iA|bC> integrals:      0.015 (MW) /      0.121 (MB)
	Size of irrep 3 of <iA|bC> integrals:      0.015 (MW) /      0.121 (MB)
	Total:                                     0.063 (MW) /      0.506 (MB)

	Size of irrep 0 of tIjAb amplitudes:       0.004 (MW) /      0.031 (MB)
	Size of irrep 1 of tIjAb amplitudes:       0.001 (MW) /      0.005 (MB)
	Size of irrep 2 of tIjAb amplitudes:       0.002 (MW) /      0.015 (MB)
	Size of irrep 3 of tIjAb amplitudes:       0.002 (MW) /      0.015 (MB)
	Total:                                     0.008 (MW) /      0.067 (MB)

	Nuclear Rep. energy          =     18.63064674477992
	SCF energy                   =    -92.21563418428784
	One-electron energy          =    -41.45953184776658
	Two-electron (AA) energy     =      4.24432264192250
	Two-electron (BB) energy     =      3.03464202943899
	Two-electron (AB) energy     =     10.18445703360637
	Two-electron energy          =     17.46342170496786
	Reference energy             =    -92.21563418428779

*** tstop() called on l48 at Thu Jan 14 09:52:54 2021
Module time:
	user time   =       0.27 seconds =       0.00 minutes
	system time =       0.21 seconds =       0.00 minutes
	total time  =          1 seconds =       0.02 minutes
Total time:
	user time   =       0.79 seconds =       0.01 minutes
	system time =       0.25 seconds =       0.00 minutes
	total time  =          2 seconds =       0.03 minutes

*** tstart() called on l48
*** at Thu Jan 14 09:52:54 2021

            **************************
            *                        *
            *        CCENERGY        *
            *                        *
            **************************

    Nuclear Rep. energy (wfn)     =   18.630646744779924
    SCF energy          (wfn)     =  -92.215634184287836
    Reference energy    (file100) =  -92.215634184287794

    Input parameters:
    -----------------
    Wave function   =     CCSD
    Reference wfn   =     UHF
    Brueckner       =     No
    Memory (Mbytes) =     250000.0
    Maxiter         =     50
    R_Convergence   =     1.0e-07
    E_Convergence   =     1.0e-06
    Restart         =     Yes
    DIIS            =     Yes
    AO Basis        =     NONE
    ABCD            =     NEW
    Cache Level     =     2
    Cache Type      =     LRU
    Print Level     =     1
    Num. of threads =     1
    # Amps to Print =     10
    Print MP2 Amps? =     No
    Analyze T2 Amps =     No
    Print Pair Ener =     No
    Local CC        =     No
    SCS-MP2         =     False
    SCSN-MP2        =     False
    SCS-CCSD        =     False

MP2 correlation energy -0.2273137949208067
                Solving CC Amplitude Equations
                ------------------------------
  Iter             Energy              RMS        T1Diag      D1Diag    New D1Diag    D2Diag
  ----     ---------------------    ---------   ----------  ----------  ----------   --------
     0        -0.227313794920814    0.000e+00    0.000000    0.000000    0.000000    0.000000
     1        -0.233154041986801    1.174e-01    0.035700    0.000000    0.000000    0.000000
     2        -0.251329143727347    6.467e-02    0.058189    0.000000    0.000000    0.000000
     3        -0.267132639542317    5.292e-02    0.102016    0.000000    0.000000    0.000000
     4        -0.271206157792602    2.344e-02    0.124789    0.000000    0.000000    0.000000
     5        -0.271945372091792    1.258e-02    0.130131    0.000000    0.000000    0.000000
     6        -0.272830439869138    8.051e-03    0.133802    0.000000    0.000000    0.000000
     7        -0.272934189670796    4.009e-03    0.135327    0.000000    0.000000    0.000000
     8        -0.273084017595879    1.810e-03    0.136150    0.000000    0.000000    0.000000
     9        -0.273133872999391    8.958e-04    0.136431    0.000000    0.000000    0.000000
    10        -0.273145513612123    4.985e-04    0.136624    0.000000    0.000000    0.000000
    11        -0.273132940077627    2.047e-04    0.136605    0.000000    0.000000    0.000000
    12        -0.273121116357454    7.950e-05    0.136592    0.000000    0.000000    0.000000
    13        -0.273124351708584    3.355e-05    0.136615    0.000000    0.000000    0.000000
    14        -0.273125800626403    1.436e-05    0.136615    0.000000    0.000000    0.000000
    15        -0.273127032230713    5.273e-06    0.136620    0.000000    0.000000    0.000000
    16        -0.273127516513485    1.520e-06    0.136622    0.000000    0.000000    0.000000
    17        -0.273127623676625    4.617e-07    0.136622    0.000000    0.000000    0.000000
    18        -0.273127650801239    1.409e-07    0.136622    0.000000    0.000000    0.000000
    19        -0.273127654131546    6.043e-08    0.136622    0.000000    0.000000    0.000000
    19        -0.273127654131546    6.043e-08    0.136622    0.000000    0.000000    0.000000

    Iterations converged.


    CCSD corr. energy   =   -0.273127654131546
    PPL corr. energy    =    0.070943467898111
    OS PPL corr. energy =    0.061044167552633
    SS PPL corr. energy =    0.009899300345482
    Largest TIA Amplitudes:
              3  22        -0.1201483980
              4  31        -0.1201483980
              3  23        -0.1036579940
              4  32        -0.1036579940
              3  21         0.0609947052
              4  30         0.0609947052
              3  24        -0.0404702613
              4  33        -0.0404702613
              3  27         0.0269517364
              4  36         0.0269517364

    Largest Tia Amplitudes:
              1   0         0.2125619258
              2  24         0.1158490576
              3  33         0.1158490576
              1   2         0.0911735682
              2  23         0.0717675407
              3  32         0.0717675407
              2  22         0.0555180923
              3  31         0.0555180923
              2  27         0.0307910683
              3  36         0.0307910683

    Largest TIJAB Amplitudes:
      4   3  31  22        -0.0294265803
      4   3  31  23        -0.0200126375
      4   3  32  22        -0.0200126375
      4   3  32  23        -0.0193566205
      3   2  22   9         0.0146918542
      4   2  31   9         0.0146918542
      4   3  34  25        -0.0144829502
      3   2  22   7        -0.0142053333
      4   2  31   7        -0.0142053333
      4   3  17   4        -0.0139826699

    Largest Tijab Amplitudes:
      3   2  33  24        -0.0298156330
      2   1  24   0        -0.0218136454
      3   1  33   0        -0.0218136454
      3   2  31  24        -0.0137459941
      3   2  33  22        -0.0137459941
      2   1  24   4        -0.0124417693
      3   1  33   4        -0.0124417693
      2   1  24   2        -0.0121071915
      3   1  33   2        -0.0121071915
      2   1  24  11         0.0120222957

    Largest TIjAb Amplitudes:
      3   2  22  24        -0.0935537055
      4   3  31  33        -0.0935537055
      3   2  23  24        -0.0856795888
      4   3  32  33        -0.0856795888
      3   1  22   0        -0.0799827629
      4   1  31   0        -0.0799827629
      3   1  23   0        -0.0701430942
      4   1  32   0        -0.0701430942
      3   3  22  33        -0.0557251126
      4   2  31  24        -0.0557251126

    SCF energy       (wfn)                    =  -92.215634184287836
    Reference energy (file100)                =  -92.215634184287794

    Opposite-spin MP2 correlation energy      =   -0.161361086854544
    Same-spin MP2 correlation energy          =   -0.065952708066179
    MP2 correlation energy                    =   -0.227313794920807
      * MP2 total energy                      =  -92.442947979208597

    Opposite-spin CCSD correlation energy     =   -0.221414419775074
    Same-spin CCSD correlation energy         =   -0.051713326929009
    CCSD correlation energy                   =   -0.273127654131546
      * CCSD total energy                     =  -92.488761838419336


*** tstop() called on l48 at Thu Jan 14 09:52:56 2021
Module time:
	user time   =       0.87 seconds =       0.01 minutes
	system time =       0.76 seconds =       0.01 minutes
	total time  =          2 seconds =       0.03 minutes
Total time:
	user time   =       1.66 seconds =       0.03 minutes
	system time =       1.01 seconds =       0.02 minutes
	total time  =          4 seconds =       0.07 minutes

*** Psi4 exiting successfully. Buy a developer a beer!
