
    -----------------------------------------------------------------------
          Psi4: An Open-Source Ab Initio Electronic Structure Package
                               Psi4 1.2a1.dev938 

                         Git: Rev {HEAD} fc51d9a dirty


    R. M. Parrish, L. A. Burns, D. G. A. Smith, A. C. Simmonett,
    A. E. DePrince III, E. G. Hohenstein, U. Bozkaya, A. Yu. Sokolov,
    R. Di Remigio, R. M. Richard, J. F. Gonthier, A. M. James,
    H. R. McAlexander, A. Kumar, M. Saitow, X. Wang, B. P. Pritchard,
    P. Verma, H. F. Schaefer III, K. Patkowski, R. A. King, E. F. Valeev,
    F. A. Evangelista, J. M. Turney, T. D. Crawford, and C. D. Sherrill,
    J. Chem. Theory Comput. 13(7) pp 3185--3197 (2017).
    (doi: 10.1021/acs.jctc.7b00174)

    -----------------------------------------------------------------------


    Psi4 started on: Thursday, 20 August 2020 08:41PM

    Process ID: 424472
    PSIDATADIR: /home/irmler/Programs/psi4/beforeGrueneis3/stage/usr/local/psi4/share/psi4
    Memory:     500.0 MiB
    Threads:    4
    
  ==> Input File <==

--------------------------------------------------------------------------
# Any line starting with the # character is a comment line
memory 250000 mb
molecule molecule{
0 2
C          0.0000000000        0.0000000000        0.6422282651
N          0.0000000000        0.0000000000       -0.5507224180
}

set {
  reference uhf
  basis aug-cc-pv(q+d)z
  scf_type OUT_OF_CORE
  freeze_core true
}

energy('ccsd')
--------------------------------------------------------------------------

  Memory set to 232.831 GiB by Python driver.

*** tstart() called on cqc05
*** at Thu Aug 20 20:41:57 2020

   => Loading Basis Set <=

    Name: AUG-CC-PV(Q+D)Z
    Role: ORBITAL
    Keyword: BASIS
    atoms 1 entry C          line   319 file /home/irmler/Programs/psi4/beforeGrueneis3/stage/usr/local/psi4/share/psi4/basis/aug-cc-pv_qpd_z.gbs 
    atoms 2 entry N          line   379 file /home/irmler/Programs/psi4/beforeGrueneis3/stage/usr/local/psi4/share/psi4/basis/aug-cc-pv_qpd_z.gbs 


         ---------------------------------------------------------
                                   SCF
            by Justin Turney, Rob Parrish, Andy Simmonett
                             and Daniel Smith
                              UHF Reference
                        4 Threads, 238418 MiB Core
         ---------------------------------------------------------

  ==> Geometry <==

    Molecular point group: c2v
    Full point group: C_inf_v

    Geometry (in Angstrom), charge = 0, multiplicity = 2:

       Center              X                  Y                   Z               Mass       
    ------------   -----------------  -----------------  -----------------  -----------------
           C          0.000000000000     0.000000000000     0.642423149526    12.000000000000
           N          0.000000000000     0.000000000000    -0.550527533574    14.003074004780

  Running in c2v symmetry.

  Rotational constants: A = ************  B =      1.83304  C =      1.83304 [cm^-1]
  Rotational constants: A = ************  B =  54953.11022  C =  54953.11022 [MHz]
  Nuclear repulsion =   18.630646744779920

  Charge       = 0
  Multiplicity = 2
  Electrons    = 13
  Nalpha       = 7
  Nbeta        = 6

  ==> Algorithm <==

  SCF Algorithm Type is OUT_OF_CORE.
  DIIS enabled.
  MOM disabled.
  Fractional occupation disabled.
  Guess Type is GWH.
  Energy threshold   = 1.00e-08
  Density threshold  = 1.00e-08
  Integral threshold = 0.00e+00

  ==> Primary Basis <==

  Basis Set: AUG-CC-PV(Q+D)Z
    Blend: AUG-CC-PV(Q+D)Z
    Number of shells: 40
    Number of basis function: 160
    Number of Cartesian functions: 210
    Spherical Harmonics?: true
    Max angular momentum: 4

  ==> Pre-Iterations <==

   -------------------------------------------------------
    Irrep   Nso     Nmo     Nalpha   Nbeta   Ndocc  Nsocc
   -------------------------------------------------------
     A1        62      62       0       0       0       0
     A2        22      22       0       0       0       0
     B1        38      38       0       0       0       0
     B2        38      38       0       0       0       0
   -------------------------------------------------------
    Total     160     160       7       6       6       1
   -------------------------------------------------------

  ==> Integral Setup <==

  ==> DiskJK: Disk-Based J/K Matrices <==

    J tasked:                  Yes
    K tasked:                  Yes
    wK tasked:                  No
    Memory (MB):            178813
    Schwarz Cutoff:          1E-12

  Minimum eigenvalue in the overlap matrix is 6.4493728455E-05.
  Using Symmetric Orthogonalization.

  SCF Guess: Generalized Wolfsberg-Helmholtz.

  ==> Iterations <==

                        Total Energy        Delta E     RMS |[F,P]|

   @UHF iter   1:   -84.33524194218170   -8.43352e+01   1.55005e-01 
   @UHF iter   2:   -86.01855747972856   -1.68332e+00   5.85418e-02 DIIS
   @UHF iter   3:   -87.43293351164341   -1.41438e+00   6.53826e-02 DIIS
   @UHF iter   4:   -91.74100084154702   -4.30807e+00   2.24123e-02 DIIS
   @UHF iter   5:   -92.14613153135237   -4.05131e-01   8.37635e-03 DIIS
   @UHF iter   6:   -92.22521896436552   -7.90874e-02   1.08840e-03 DIIS
   @UHF iter   7:   -92.22751465983193   -2.29570e-03   7.45635e-04 DIIS
   @UHF iter   8:   -92.22915136446709   -1.63670e-03   5.24825e-04 DIIS
   @UHF iter   9:   -92.23090674011689   -1.75538e-03   4.71802e-04 DIIS
   @UHF iter  10:   -92.23450984806645   -3.60311e-03   4.10019e-04 DIIS
   @UHF iter  11:   -92.23862373092300   -4.11388e-03   2.61512e-04 DIIS
   @UHF iter  12:   -92.23746540235726    1.15833e-03   2.94078e-04 DIIS
   @UHF iter  13:   -92.23863655784368   -1.17116e-03   1.66042e-04 DIIS
   @UHF iter  14:   -92.23907861038700   -4.42053e-04   9.04697e-06 DIIS
   @UHF iter  15:   -92.23907873119816   -1.20811e-07   6.76682e-06 DIIS
   @UHF iter  16:   -92.23907934946300   -6.18265e-07   1.35237e-06 DIIS
   @UHF iter  17:   -92.23907936847408   -1.90111e-08   5.39376e-07 DIIS
   @UHF iter  18:   -92.23907937231100   -3.83692e-09   5.93311e-08 DIIS
   @UHF iter  19:   -92.23907937235016   -3.91651e-11   1.41629e-08 DIIS
   @UHF iter  20:   -92.23907937235199   -1.83320e-12   1.92599e-09 DIIS

  ==> Post-Iterations <==

   @Spin Contamination Metric:   4.964825860E-01
   @S^2 Expected:                7.500000000E-01
   @S^2 Observed:                1.246482586E+00
   @S   Expected:                5.000000000E-01
   @S   Observed:                5.000000000E-01

    Orbital Energies (a.u.)
    -----------------------

    Alpha Occupied:                                                       

       1A1   -15.607215     2A1   -11.360907     3A1    -1.230400  
       4A1    -0.745908     5A1    -0.564917     1B1    -0.515671  
       1B2    -0.515671  

    Alpha Virtual:                                                        

       6A1     0.057936     7A1     0.064057     2B2     0.069697  
       2B1     0.069697     3B1     0.116169     3B2     0.116169  
       8A1     0.128808     4B1     0.174511     4B2     0.174511  
       9A1     0.216047     1A2     0.224000    10A1     0.224000  
      11A1     0.279744     5B1     0.316739     5B2     0.316739  
       6B1     0.368221     6B2     0.368221    12A1     0.378949  
      13A1     0.399614     2A2     0.411617    14A1     0.411617  
       7B1     0.478901     7B2     0.478901    15A1     0.560059  
      16A1     0.720064     3A2     0.729967    17A1     0.729967  
       8B2     0.747168     8B1     0.747168    18A1     0.775251  
       9B1     0.780097     9B2     0.780097    10B1     0.820641  
      10B2     0.820641     4A2     0.850191    19A1     0.850191  
      20A1     0.892144    21A1     1.026519    11B1     1.055553  
      11B2     1.055553    12B2     1.136799    12B1     1.136799  
       5A2     1.169873    22A1     1.169873    13B2     1.245496  
      13B1     1.245496    23A1     1.290786    24A1     1.388827  
      14B1     1.516002    14B2     1.516002     6A2     1.533058  
      25A1     1.533058    26A1     1.603221    15B1     1.823352  
      15B2     1.823352    27A1     1.971586     7A2     2.099894  
      28A1     2.099894    29A1     2.112153     8A2     2.112153  
      30A1     2.195695    16B2     2.214961    16B1     2.214961  
      17B2     2.232394    17B1     2.232394    31A1     2.289660  
       9A2     2.289660    18B2     2.301490    18B1     2.301490  
      32A1     2.405578    19B2     2.422749    19B1     2.422749  
      33A1     2.603517    20B2     2.698759    20B1     2.698759  
      10A2     2.732490    34A1     2.732490    35A1     2.972208  
      11A2     2.972208    21B1     3.065436    21B2     3.065436  
      36A1     3.102754    37A1     3.179964    22B2     3.218720  
      22B1     3.218720    38A1     3.282272    12A2     3.282272  
      23B1     3.360843    23B2     3.360843    39A1     3.435108  
      24B2     3.565578    24B1     3.565578    13A2     3.595312  
      40A1     3.595312    25B1     4.184074    25B2     4.184074  
      41A1     4.297881    42A1     4.445367    14A2     4.448500  
      43A1     4.448500    26B1     4.650928    26B2     4.650928  
      44A1     5.076022    15A2     5.907693    45A1     5.907693  
      27B1     5.993100    27B2     5.993100    28B1     6.054224  
      28B2     6.054224    29B1     6.152158    29B2     6.152158  
      46A1     6.172632    16A2     6.172632    47A1     6.313486  
      30B2     6.444289    30B1     6.444289    17A2     6.478472  
      48A1     6.478472    49A1     6.791097    50A1     6.897194  
      18A2     6.897194    31B1     7.031799    31B2     7.031799  
      51A1     7.482816    52A1     7.885124    32B1     7.991122  
      32B2     7.991122    19A2     8.286443    53A1     8.286443  
      33B2     8.585583    33B1     8.585583    34B1     8.785295  
      34B2     8.785295    20A2     8.932076    54A1     8.932076  
      55A1     9.070221    35B1     9.134034    35B2     9.134034  
      36B2     9.241607    36B1     9.241607    21A2     9.781461  
      56A1     9.781461    57A1     9.781881    22A2     9.925602  
      58A1     9.925602    37B1    10.331138    37B2    10.331138  
      59A1    11.512912    38B1    11.594403    38B2    11.594403  
      60A1    11.981044    61A1    24.283102    62A1    32.372887  

    Beta Occupied:                                                        

       1A1   -15.635900     2A1   -11.303151     3A1    -1.248241  
       4A1    -0.623586     1B2    -0.538918     1B1    -0.538918  

    Beta Virtual:                                                         

       5A1    -0.036451     6A1     0.063953     2B2     0.065919  
       2B1     0.065919     7A1     0.084336     3B1     0.132587  
       3B2     0.132587     8A1     0.138056     4B2     0.191269  
       4B1     0.191269     9A1     0.220396     1A2     0.229327  
      10A1     0.229327    11A1     0.287672     5B1     0.313286  
       5B2     0.313286     6B1     0.388943     6B2     0.388943  
      12A1     0.397554     2A2     0.407417    13A1     0.407417  
      14A1     0.423712     7B2     0.508251     7B1     0.508251  
      15A1     0.615003    16A1     0.742650     8B2     0.754875  
       8B1     0.754875     9B1     0.773639     9B2     0.773639  
      17A1     0.774858     3A2     0.774858    18A1     0.789864  
      10B1     0.821951    10B2     0.821951    19A1     0.848458  
       4A2     0.848458    20A1     0.914774    21A1     1.028547  
      11B1     1.060392    11B2     1.060392    12B2     1.131459  
      12B1     1.131459     5A2     1.156848    22A1     1.156848  
      13B2     1.259080    13B1     1.259080    23A1     1.312006  
      24A1     1.401399     6A2     1.506191    25A1     1.506191  
      14B1     1.551092    14B2     1.551092    26A1     1.618914  
      15B1     1.838554    15B2     1.838554    27A1     2.061316  
       7A2     2.113462    28A1     2.113462    29A1     2.194982  
       8A2     2.194982    30A1     2.250724    16B2     2.267382  
      16B1     2.267382    17B1     2.270143    17B2     2.270143  
      18B2     2.312359    18B1     2.312359    31A1     2.322327  
       9A2     2.322327    19B2     2.430464    19B1     2.430464  
      32A1     2.431170    33A1     2.612643    20B2     2.686412  
      20B1     2.686412    10A2     2.737354    34A1     2.737354  
      11A2     2.961958    35A1     2.961958    21B1     3.060630  
      21B2     3.060630    36A1     3.097857    37A1     3.189275  
      22B2     3.194087    22B1     3.194087    38A1     3.254808  
      12A2     3.254808    23B1     3.360344    23B2     3.360344  
      39A1     3.429092    13A2     3.551193    40A1     3.551193  
      24B2     3.554956    24B1     3.554956    25B1     4.187367  
      25B2     4.187367    41A1     4.303821    14A2     4.450555  
      42A1     4.450555    43A1     4.470205    26B1     4.668472  
      26B2     4.668472    44A1     5.084321    15A2     5.943084  
      45A1     5.943084    27B1     6.023755    27B2     6.023755  
      28B2     6.084949    28B1     6.084949    29B1     6.213860  
      29B2     6.213860    46A1     6.225135    16A2     6.225135  
      47A1     6.374657    30B1     6.500297    30B2     6.500297  
      17A2     6.521740    48A1     6.521740    49A1     6.814613  
      50A1     6.937610    18A2     6.937610    31B1     7.064734  
      31B2     7.064734    51A1     7.515667    52A1     7.923334  
      32B1     8.020424    32B2     8.020424    19A2     8.255252  
      53A1     8.255252    33B2     8.566032    33B1     8.566032  
      34B1     8.742145    34B2     8.742145    54A1     8.916801  
      20A2     8.916801    55A1     9.063152    35B1     9.126436  
      35B2     9.126436    36B2     9.192989    36B1     9.192989  
      21A2     9.755122    56A1     9.755122    57A1     9.772448  
      22A2     9.876612    58A1     9.876612    37B1    10.318305  
      37B2    10.318305    59A1    11.516114    38B1    11.585233  
      38B2    11.585233    60A1    11.987756    61A1    24.315416  
      62A1    32.355487  

    Final Occupation by Irrep:
             A1    A2    B1    B2 
    DOCC [     4,    0,    1,    1 ]
    SOCC [     1,    0,    0,    0 ]

  Energy converged.

  @UHF Final Energy:   -92.23907937235199

   => Energetics <=

    Nuclear Repulsion Energy =             18.6306467447799200
    One-Electron Energy =                -161.3100502967776606
    Two-Electron Energy =                  50.4403241796457706
    PCM Polarization Energy =               0.0000000000000000
    Total Energy =                        -92.2390793723519806

    Alert: EFP and PCM quantities not currently incorporated into SCF psivars.
  UHF NO Occupations:
  HONO-2 :    1 B2 1.8686453
  HONO-1 :    1 B1 1.8686453
  HONO-0 :    5 A1 1.0000000
  LUNO+0 :    2 B2 0.1313547
  LUNO+1 :    2 B1 0.1313547
  LUNO+2 :    6 A1 0.0021031
  LUNO+3 :    7 A1 0.0006837



Properties will be evaluated at   0.000000,   0.000000,   0.000000 Bohr

Properties computed using the SCF density matrix

  Nuclear Dipole Moment: (a.u.)
     X:     0.0000      Y:     0.0000      Z:     0.0016

  Electronic Dipole Moment: (a.u.)
     X:     0.0000      Y:     0.0000      Z:     0.8400

  Dipole Moment: (a.u.)
     X:     0.0000      Y:     0.0000      Z:     0.8416     Total:     0.8416

  Dipole Moment: (Debye)
     X:     0.0000      Y:     0.0000      Z:     2.1390     Total:     2.1390


*** tstop() called on cqc05 at Thu Aug 20 20:42:15 2020
Module time:
	user time   =      17.18 seconds =       0.29 minutes
	system time =       1.03 seconds =       0.02 minutes
	total time  =         18 seconds =       0.30 minutes
Total time:
	user time   =      17.18 seconds =       0.29 minutes
	system time =       1.03 seconds =       0.02 minutes
	total time  =         18 seconds =       0.30 minutes

*** tstart() called on cqc05
*** at Thu Aug 20 20:42:15 2020


	Wfn Parameters:
	--------------------
	Wavefunction         = CCSD
	Number of irreps     = 4
	Number of MOs        = 160
	Number of active MOs = 158
	AO-Basis             = NONE
	Semicanonical        = false
	Reference            = UHF
	Print Level          = 1

	IRREP	# MOs	# FZDC	# DOCC	# SOCC	# VIRT	# FZVR
	-----	-----	------	------	------	------	------
	 A1	   62	    2	    2	    1	    57	    0
	 A2	   22	    0	    0	    0	    22	    0
	 B1	   38	    0	    1	    0	    37	    0
	 B2	   38	    0	    1	    0	    37	    0
	Transforming integrals...
	IWL integrals will be deleted.
	(OO|OO)...
	Presorting SO-basis two-electron integrals.
	Sorting File: SO Ints (nn|nn) nbuckets = 1
	Transforming the one-electron integrals and constructing Fock matrices
	Starting AA/AB first half-transformation.
	Sorting AA/AB half-transformed integrals.
	Starting BB first half-transformation.
	Sorting BB half-transformed integrals.
	First half integral transformation complete.
	Starting AA second half-transformation.
	Starting AB second half-transformation.
	Starting BB second half-transformation.
	Two-electron integral transformation complete.
	(OO|OV)...
	Starting AA second half-transformation.
	Starting AB second half-transformation.
	Starting BB second half-transformation.
	Two-electron integral transformation complete.
	(OO|VV)...
	Starting AA second half-transformation.
	Starting AB second half-transformation.
	Starting BB second half-transformation.
	Two-electron integral transformation complete.
	(OV|OO)...
	Starting AA/AB first half-transformation.
	Sorting AA/AB half-transformed integrals.
	Starting BB first half-transformation.
	Sorting BB half-transformed integrals.
	First half integral transformation complete.
	Starting AA second half-transformation.
	Starting AB second half-transformation.
	Starting BB second half-transformation.
	Two-electron integral transformation complete.
	(OV|OV)...
	Starting AA second half-transformation.
	Starting AB second half-transformation.
	Starting BB second half-transformation.
	Two-electron integral transformation complete.
	(OV|VV)...
	Starting AA second half-transformation.
	Starting AB second half-transformation.
	Starting BB second half-transformation.
	Two-electron integral transformation complete.
	(VV|OO)...
	Starting AA/AB first half-transformation.
	Sorting AA/AB half-transformed integrals.
	Starting BB first half-transformation.
	Sorting BB half-transformed integrals.
	First half integral transformation complete.
	Starting AA second half-transformation.
	Starting AB second half-transformation.
	Starting BB second half-transformation.
	Two-electron integral transformation complete.
	(VV|OV)...
	Starting AA second half-transformation.
	Starting AB second half-transformation.
	Starting BB second half-transformation.
	Two-electron integral transformation complete.
	(VV|VV)...
	Starting AA second half-transformation.
	Starting AB second half-transformation.
	Starting BB second half-transformation.
	Two-electron integral transformation complete.
	Frozen core energy     =    -86.85178278626947

	Size of irrep 0 of <AB|CD> integrals:      9.979 (MW) /     79.834 (MB)
	Size of irrep 1 of <AB|CD> integrals:      6.880 (MW) /     55.041 (MB)
	Size of irrep 2 of <AB|CD> integrals:      8.544 (MW) /     68.351 (MB)
	Size of irrep 3 of <AB|CD> integrals:      8.544 (MW) /     68.351 (MB)
	Total:                                    33.947 (MW) /    271.578 (MB)

	Size of irrep 0 of <ab|cd> integrals:     10.343 (MW) /     82.741 (MB)
	Size of irrep 1 of <ab|cd> integrals:      6.996 (MW) /     55.968 (MB)
	Size of irrep 2 of <ab|cd> integrals:      8.762 (MW) /     70.093 (MB)
	Size of irrep 3 of <ab|cd> integrals:      8.762 (MW) /     70.093 (MB)
	Total:                                    34.862 (MW) /    278.895 (MB)

	Size of irrep 0 of <Ab|Cd> integrals:     42.615 (MW) /    340.918 (MB)
	Size of irrep 1 of <Ab|Cd> integrals:     27.752 (MW) /    222.015 (MB)
	Size of irrep 2 of <Ab|Cd> integrals:     34.610 (MW) /    276.878 (MB)
	Size of irrep 3 of <Ab|Cd> integrals:     34.610 (MW) /    276.878 (MB)
	Total:                                   139.586 (MW) /   1116.688 (MB)

	Size of irrep 0 of <IA|BC> integrals:      1.585 (MW) /     12.683 (MB)
	Size of irrep 1 of <IA|BC> integrals:      0.734 (MW) /      5.876 (MB)
	Size of irrep 2 of <IA|BC> integrals:      1.111 (MW) /      8.886 (MB)
	Size of irrep 3 of <IA|BC> integrals:      1.111 (MW) /      8.886 (MB)
	Total:                                     4.541 (MW) /     36.331 (MB)

	Size of irrep 0 of <ia|bc> integrals:      1.251 (MW) /     10.011 (MB)
	Size of irrep 1 of <ia|bc> integrals:      0.624 (MW) /      4.994 (MB)
	Size of irrep 2 of <ia|bc> integrals:      0.912 (MW) /      7.293 (MB)
	Size of irrep 3 of <ia|bc> integrals:      0.912 (MW) /      7.293 (MB)
	Total:                                     3.699 (MW) /     29.591 (MB)

	Size of irrep 0 of <Ia|Bc> integrals:      1.619 (MW) /     12.952 (MB)
	Size of irrep 1 of <Ia|Bc> integrals:      0.738 (MW) /      5.900 (MB)
	Size of irrep 2 of <Ia|Bc> integrals:      1.124 (MW) /      8.989 (MB)
	Size of irrep 3 of <Ia|Bc> integrals:      1.124 (MW) /      8.989 (MB)
	Total:                                     4.604 (MW) /     36.830 (MB)

	Size of irrep 0 of <iA|bC> integrals:      1.227 (MW) /      9.818 (MB)
	Size of irrep 1 of <iA|bC> integrals:      0.622 (MW) /      4.973 (MB)
	Size of irrep 2 of <iA|bC> integrals:      0.900 (MW) /      7.201 (MB)
	Size of irrep 3 of <iA|bC> integrals:      0.900 (MW) /      7.201 (MB)
	Total:                                     3.649 (MW) /     29.193 (MB)

	Size of irrep 0 of tIjAb amplitudes:       0.052 (MW) /      0.418 (MB)
	Size of irrep 1 of tIjAb amplitudes:       0.011 (MW) /      0.084 (MB)
	Size of irrep 2 of tIjAb amplitudes:       0.029 (MW) /      0.235 (MB)
	Size of irrep 3 of tIjAb amplitudes:       0.029 (MW) /      0.235 (MB)
	Total:                                     0.122 (MW) /      0.973 (MB)

	Nuclear Rep. energy          =     18.63064674477992
	SCF energy                   =    -92.23907937235199
	One-electron energy          =    -41.51365752919860
	Two-electron (AA) energy     =      4.25274758015063
	Two-electron (BB) energy     =      3.04383458917914
	Two-electron (AB) energy     =     10.19913202900635
	Two-electron energy          =     17.49571419833613
	Reference energy             =    -92.23907937235202

*** tstop() called on cqc05 at Thu Aug 20 20:42:37 2020
Module time:
	user time   =      13.32 seconds =       0.22 minutes
	system time =       8.21 seconds =       0.14 minutes
	total time  =         22 seconds =       0.37 minutes
Total time:
	user time   =      30.50 seconds =       0.51 minutes
	system time =       9.24 seconds =       0.15 minutes
	total time  =         40 seconds =       0.67 minutes

*** tstart() called on cqc05
*** at Thu Aug 20 20:42:37 2020

            **************************
            *                        *
            *        CCENERGY        *
            *                        *
            **************************

    Nuclear Rep. energy (wfn)     =   18.630646744779920
    SCF energy          (wfn)     =  -92.239079372351995
    Reference energy    (file100) =  -92.239079372352023

    Input parameters:
    -----------------
    Wave function   =     CCSD
    Reference wfn   =     UHF
    Brueckner       =     No
    Memory (Mbytes) =     250000.0
    Maxiter         =     50
    R_Convergence   =     1.0e-07
    E_Convergence   =     1.0e-06
    Restart         =     Yes
    DIIS            =     Yes
    AO Basis        =     NONE
    ABCD            =     NEW
    Cache Level     =     2
    Cache Type      =     LRU
    Print Level     =     1
    Num. of threads =     4
    # Amps to Print =     10
    Print MP2 Amps? =     No
    Analyze T2 Amps =     No
    Print Pair Ener =     No
    Local CC        =     No
    SCS-MP2         =     False
    SCSN-MP2        =     False
    SCS-CCSD        =     False

MP2 correlation energy -0.2907822305306934
                Solving CC Amplitude Equations
                ------------------------------
  Iter             Energy              RMS        T1Diag      D1Diag    New D1Diag    D2Diag
  ----     ---------------------    ---------   ----------  ----------  ----------   --------
     0        -0.290782230530696    0.000e+00    0.000000    0.000000    0.000000    0.000000
     1        -0.289586250671485    1.233e-01    0.037905    0.000000    0.000000    0.000000
     2        -0.308837717609788    6.355e-02    0.056840    0.000000    0.000000    0.000000
     3        -0.325503174121934    5.511e-02    0.103889    0.000000    0.000000    0.000000
     4        -0.329075783052441    2.281e-02    0.125729    0.000000    0.000000    0.000000
     5        -0.329767908191142    1.270e-02    0.131018    0.000000    0.000000    0.000000
     6        -0.330672737592769    8.021e-03    0.134350    0.000000    0.000000    0.000000
     7        -0.330769228133067    4.428e-03    0.135922    0.000000    0.000000    0.000000
     8        -0.330890379116599    2.003e-03    0.136736    0.000000    0.000000    0.000000
     9        -0.330979991526566    9.359e-04    0.137133    0.000000    0.000000    0.000000
    10        -0.330976239048184    4.937e-04    0.137308    0.000000    0.000000    0.000000
    11        -0.330967007696107    2.020e-04    0.137271    0.000000    0.000000    0.000000
    12        -0.330958653400754    7.570e-05    0.137271    0.000000    0.000000    0.000000
    13        -0.330963628812095    3.362e-05    0.137290    0.000000    0.000000    0.000000
    14        -0.330965318473328    1.421e-05    0.137293    0.000000    0.000000    0.000000
    15        -0.330966054049068    3.715e-06    0.137296    0.000000    0.000000    0.000000
    16        -0.330966224381899    1.140e-06    0.137297    0.000000    0.000000    0.000000
    17        -0.330966239742443    4.993e-07    0.137297    0.000000    0.000000    0.000000
    18        -0.330966240020589    1.513e-07    0.137297    0.000000    0.000000    0.000000
    19        -0.330966239257718    6.791e-08    0.137297    0.000000    0.000000    0.000000
    19        -0.330966239257718    6.791e-08    0.137297    0.000000    0.000000    0.000000

    Iterations converged.


    CCSD corr. energy   =   -0.330966239257718
    PPL corr. energy    =    0.091644022422218
    OS PPL corr. energy =    0.078816242957922
    SS PPL corr. energy =    0.012827779464295
    Largest TIA Amplitudes:
              3  81        -0.1302067887
              4 118        -0.1302067887
              3  80        -0.0889137439
              4 117        -0.0889137439
              3  82        -0.0632526428
              4 119        -0.0632526428
              3  84        -0.0370097212
              4 121        -0.0370097212
              3  79         0.0341634831
              4 116         0.0341634831

    Largest Tia Amplitudes:
              1   0         0.2046878728
              2  82         0.1229359831
              3 119         0.1229359831
              1   2        -0.0820359215
              2  85         0.0577406955
              3 122         0.0577406955
              2  83         0.0423328996
              3 120         0.0423328996
              1   3        -0.0412889229
              1   9         0.0371823058

    Largest TIJAB Amplitudes:
      4   3 118  81        -0.0256193527
      4   3 117  81        -0.0181444732
      4   3 118  80        -0.0181444732
      4   3 117  80        -0.0152090524
      4   3 118  82        -0.0136985431
      4   3 119  81        -0.0136985431
      3   1  81   9         0.0130181168
      4   1 118   9         0.0130181168
      4   3  59  11        -0.0127648602
      4   3 118  84        -0.0121699881

    Largest Tijab Amplitudes:
      3   2 119  82        -0.0270238071
      2   1  82   0        -0.0198701801
      3   1 119   0        -0.0198701801
      3   2 119  85        -0.0139045093
      3   2 122  82        -0.0139045093
      3   2 119  83        -0.0137837964
      3   2 120  82        -0.0137837964
      2   1  82  16        -0.0112649139
      3   1 119  16        -0.0112649139
      2   1  83   0        -0.0110806918

    Largest TIjAb Amplitudes:
      3   2  81  82        -0.0928124442
      4   3 118 119        -0.0928124442
      3   1  81   0        -0.0786891722
      4   1 118   0        -0.0786891722
      3   2  80  82        -0.0643557905
      4   3 117 119        -0.0643557905
      3   3  81 119        -0.0565131652
      4   2 118  82        -0.0565131652
      3   1  80   0        -0.0547028119
      4   1 117   0        -0.0547028119

    SCF energy       (wfn)                    =  -92.239079372351995
    Reference energy (file100)                =  -92.239079372352023

    Opposite-spin MP2 correlation energy      =   -0.211685255702957
    Same-spin MP2 correlation energy          =   -0.079096974827706
    MP2 correlation energy                    =   -0.290782230530693
      * MP2 total energy                      =  -92.529861602882718

    Opposite-spin CCSD correlation energy     =   -0.267502559712450
    Same-spin CCSD correlation energy         =   -0.063463734783003
    CCSD correlation energy                   =   -0.330966239257718
      * CCSD total energy                     =  -92.570045611609743


*** tstop() called on cqc05 at Thu Aug 20 20:43:08 2020
Module time:
	user time   =      13.78 seconds =       0.23 minutes
	system time =      13.56 seconds =       0.23 minutes
	total time  =         31 seconds =       0.52 minutes
Total time:
	user time   =      44.28 seconds =       0.74 minutes
	system time =      22.80 seconds =       0.38 minutes
	total time  =         71 seconds =       1.18 minutes

*** Psi4 exiting successfully. Buy a developer a beer!
