
    -----------------------------------------------------------------------
          Psi4: An Open-Source Ab Initio Electronic Structure Package
                               Psi4 1.2a1.dev938 

                         Git: Rev {HEAD} fc51d9a dirty


    R. M. Parrish, L. A. Burns, D. G. A. Smith, A. C. Simmonett,
    A. E. DePrince III, E. G. Hohenstein, U. Bozkaya, A. Yu. Sokolov,
    R. Di Remigio, R. M. Richard, J. F. Gonthier, A. M. James,
    H. R. McAlexander, A. Kumar, M. Saitow, X. Wang, B. P. Pritchard,
    P. Verma, H. F. Schaefer III, K. Patkowski, R. A. King, E. F. Valeev,
    F. A. Evangelista, J. M. Turney, T. D. Crawford, and C. D. Sherrill,
    J. Chem. Theory Comput. 13(7) pp 3185--3197 (2017).
    (doi: 10.1021/acs.jctc.7b00174)

    -----------------------------------------------------------------------


    Psi4 started on: Thursday, 20 August 2020 10:41PM

    Process ID: 425374
    PSIDATADIR: /home/irmler/Programs/psi4/beforeGrueneis3/stage/usr/local/psi4/share/psi4
    Memory:     500.0 MiB
    Threads:    4
    
  ==> Input File <==

--------------------------------------------------------------------------
# Any line starting with the # character is a comment line
memory 250000 mb
molecule molecule{
0 2
B          0.0000000000        0.0000000000        0.0000000000
}

set {
  reference uhf
  basis aug-cc-pv(q+d)z
  scf_type OUT_OF_CORE
  freeze_core true
}

energy('ccsd')
--------------------------------------------------------------------------

  Memory set to 232.831 GiB by Python driver.

*** tstart() called on cqc05
*** at Thu Aug 20 22:41:03 2020

   => Loading Basis Set <=

    Name: AUG-CC-PV(Q+D)Z
    Role: ORBITAL
    Keyword: BASIS
    atoms 1 entry B          line   259 file /home/irmler/Programs/psi4/beforeGrueneis3/stage/usr/local/psi4/share/psi4/basis/aug-cc-pv_qpd_z.gbs 


         ---------------------------------------------------------
                                   SCF
            by Justin Turney, Rob Parrish, Andy Simmonett
                             and Daniel Smith
                              UHF Reference
                        4 Threads, 238418 MiB Core
         ---------------------------------------------------------

  ==> Geometry <==

    Molecular point group: d2h
    Geometry (in Angstrom), charge = 0, multiplicity = 2:

       Center              X                  Y                   Z               Mass       
    ------------   -----------------  -----------------  -----------------  -----------------
           B          0.000000000000     0.000000000000     0.000000000000    11.009305406000

  Running in d2h symmetry.

  Rotational constants: A = ************  B = ************  C = ************ [cm^-1]
  Rotational constants: A = ************  B = ************  C = ************ [MHz]
  Nuclear repulsion =    0.000000000000000

  Charge       = 0
  Multiplicity = 2
  Electrons    = 5
  Nalpha       = 3
  Nbeta        = 2

  ==> Algorithm <==

  SCF Algorithm Type is OUT_OF_CORE.
  DIIS enabled.
  MOM disabled.
  Fractional occupation disabled.
  Guess Type is GWH.
  Energy threshold   = 1.00e-08
  Density threshold  = 1.00e-08
  Integral threshold = 0.00e+00

  ==> Primary Basis <==

  Basis Set: AUG-CC-PV(Q+D)Z
    Blend: AUG-CC-PV(Q+D)Z
    Number of shells: 20
    Number of basis function: 80
    Number of Cartesian functions: 105
    Spherical Harmonics?: true
    Max angular momentum: 4

  ==> Pre-Iterations <==

   -------------------------------------------------------
    Irrep   Nso     Nmo     Nalpha   Nbeta   Ndocc  Nsocc
   -------------------------------------------------------
     Ag        20      20       0       0       0       0
     B1g        8       8       0       0       0       0
     B2g        8       8       0       0       0       0
     B3g        8       8       0       0       0       0
     Au         3       3       0       0       0       0
     B1u       11      11       0       0       0       0
     B2u       11      11       0       0       0       0
     B3u       11      11       0       0       0       0
   -------------------------------------------------------
    Total      80      80       3       2       2       1
   -------------------------------------------------------

  ==> Integral Setup <==

  ==> DiskJK: Disk-Based J/K Matrices <==

    J tasked:                  Yes
    K tasked:                  Yes
    wK tasked:                  No
    Memory (MB):            178813
    Schwarz Cutoff:          1E-12

  Minimum eigenvalue in the overlap matrix is 4.9376260876E-03.
  Using Symmetric Orthogonalization.

  SCF Guess: Generalized Wolfsberg-Helmholtz.

  ==> Iterations <==

                        Total Energy        Delta E     RMS |[F,P]|

   @UHF iter   1:   -23.88302916825707   -2.38830e+01   8.09253e-02 
   @UHF iter   2:   -24.51278879411377   -6.29760e-01   8.66640e-03 DIIS
   @UHF iter   3:   -24.53021474817893   -1.74260e-02   1.78692e-03 DIIS
   @UHF iter   4:   -24.53256114501537   -2.34640e-03   5.76617e-04 DIIS
   @UHF iter   5:   -24.53294235203754   -3.81207e-04   1.64653e-04 DIIS
   @UHF iter   6:   -24.53298290106213   -4.05490e-05   3.20774e-05 DIIS
   @UHF iter   7:   -24.53298406077335   -1.15971e-06   4.06163e-06 DIIS
   @UHF iter   8:   -24.53298407401674   -1.32434e-08   3.81171e-07 DIIS
   @UHF iter   9:   -24.53298407421294   -1.96202e-10   3.91997e-08 DIIS
   @UHF iter  10:   -24.53298407421479   -1.84741e-12   8.03462e-09 DIIS

  ==> Post-Iterations <==

   @Spin Contamination Metric:   1.132817014E-02
   @S^2 Expected:                7.500000000E-01
   @S^2 Observed:                7.613281701E-01
   @S   Expected:                5.000000000E-01
   @S   Observed:                5.000000000E-01

    Orbital Energies (a.u.)
    -----------------------

    Alpha Occupied:                                                       

       1Ag    -7.701445     2Ag    -0.545284     1B1u   -0.318755  

    Alpha Virtual:                                                        

       1B3u    0.023683     1B2u    0.023683     2B1u    0.050931  
       3Ag     0.055655     2B3u    0.077360     2B2u    0.077360  
       1B1g    0.145688     4Ag     0.145688     1B2g    0.147493  
       1B3g    0.147493     5Ag     0.148378     3B1u    0.271796  
       3B3u    0.311967     3B2u    0.311967     6Ag     0.335497  
       4B3u    0.461898     4B2u    0.461898     4B1u    0.467130  
       1Au     0.467130     5B3u    0.470367     5B2u    0.470367  
       5B1u    0.471414     7Ag     0.491188     2B3g    0.492659  
       2B2g    0.492659     2B1g    0.500623     8Ag     0.500623  
       6B1u    1.022911     6B2u    1.050761     6B3u    1.050761  
       3B1g    1.370039     9Ag     1.370039     3B2g    1.379318  
       3B3g    1.379318     4B1g    1.385960    10Ag     1.385960  
      11Ag     1.388636     4B3g    1.389826     4B2g    1.389826  
      12Ag     1.391580     5B2g    1.404057     5B3g    1.404057  
      13Ag     1.407405     5B1g    1.411094    14Ag     1.411094  
       7B3u    1.439158     7B2u    1.439158     2Au     1.447457  
       7B1u    1.447457     8B3u    1.452419     8B2u    1.452419  
       8B1u    1.454058     9B1u    3.735482     9B2u    3.737043  
       9B3u    3.737043     6B1g    3.919691    15Ag     3.919691  
       6B2g    3.934818     6B3g    3.934818     7B1g    3.945627  
      16Ag     3.945627     7B3g    3.952101     7B2g    3.952101  
      17Ag     3.954258    18Ag     3.956032     8B1g    3.956032  
       8B2g    3.963947     8B3g    3.963947    19Ag     3.966692  
      10B2u    4.086109    10B3u    4.086109     3Au     4.099994  
      10B1u    4.099994    11B2u    4.108432    11B3u    4.108432  
      11B1u    4.111263    20Ag    13.025937  

    Beta Occupied:                                                        

       1Ag    -7.686297     2Ag    -0.446230  

    Beta Virtual:                                                         

       1B2u    0.027496     1B3u    0.027496     1B1u    0.039815  
       3Ag     0.059191     2B2u    0.084443     2B3u    0.084443  
       2B1u    0.117898     4Ag     0.145767     1B1g    0.145767  
       1B3g    0.151776     1B2g    0.151776     5Ag     0.154009  
       3B3u    0.320187     3B2u    0.320187     6Ag     0.351182  
       3B1u    0.353832     4B2u    0.461822     4B3u    0.461822  
       4B1u    0.471173     1Au     0.471173     5B2u    0.477065  
       5B3u    0.477065     5B1u    0.479099     7Ag     0.501733  
       2B1g    0.501733     2B3g    0.523794     2B2g    0.523794  
       8Ag     0.532204     6B2u    1.060145     6B3u    1.060145  
       6B1u    1.103603     3B1g    1.369760     9Ag     1.369760  
       3B2g    1.384478     3B3g    1.384478     4B1g    1.394925  
      10Ag     1.394925     4B3g    1.401542     4B2g    1.401542  
      11Ag     1.403751     5B1g    1.415985    12Ag     1.415985  
      13Ag     1.419581     7B3u    1.439805     7B2u    1.439805  
       5B2g    1.453073     5B3g    1.453073     2Au     1.463739  
       7B1u    1.463739    14Ag     1.466807     8B3u    1.478782  
       8B2u    1.478782     8B1u    1.483962     9B2u    3.744223  
       9B3u    3.744223     9B1u    3.785914     6B1g    3.920384  
      15Ag     3.920384     6B2g    3.945718     6B3g    3.945718  
       7B1g    3.960529    16Ag     3.960529     8B1g    3.964992  
      17Ag     3.964992     7B3g    3.975070     7B2g    3.975070  
      18Ag     3.978855     8B3g    4.000577     8B2g    4.000577  
      19Ag     4.014171    10B2u    4.088794    10B3u    4.088794  
       3Au     4.121447    10B1u    4.121447    11B2u    4.141806  
      11B3u    4.141806    11B1u    4.148798    20Ag    13.037791  

    Final Occupation by Irrep:
             Ag   B1g   B2g   B3g    Au   B1u   B2u   B3u 
    DOCC [     2,    0,    0,    0,    0,    0,    0,    0 ]
    SOCC [     0,    0,    0,    0,    0,    1,    0,    0 ]

  Energy converged.

  @UHF Final Energy:   -24.53298407421479

   => Energetics <=

    Nuclear Repulsion Energy =              0.0000000000000000
    One-Electron Energy =                 -32.3679563104712713
    Two-Electron Energy =                   7.8349722362564833
    PCM Polarization Energy =               0.0000000000000000
    Total Energy =                        -24.5329840742147880

    Alert: EFP and PCM quantities not currently incorporated into SCF psivars.
  UHF NO Occupations:
  HONO-2 :    1 Ag 1.9999980
  HONO-1 :    2 Ag 1.9943218
  HONO-0 :    1B1u 1.0000000
  LUNO+0 :    3 Ag 0.0056782
  LUNO+1 :    4 Ag 0.0000020
  LUNO+2 :    5 Ag 0.0000000
  LUNO+3 :    2B1u 0.0000000



Properties will be evaluated at   0.000000,   0.000000,   0.000000 Bohr

Properties computed using the SCF density matrix

  Nuclear Dipole Moment: (a.u.)
     X:     0.0000      Y:     0.0000      Z:     0.0000

  Electronic Dipole Moment: (a.u.)
     X:     0.0000      Y:     0.0000      Z:     0.0000

  Dipole Moment: (a.u.)
     X:     0.0000      Y:     0.0000      Z:     0.0000     Total:     0.0000

  Dipole Moment: (Debye)
     X:     0.0000      Y:     0.0000      Z:     0.0000     Total:     0.0000


*** tstop() called on cqc05 at Thu Aug 20 22:41:03 2020
Module time:
	user time   =       1.31 seconds =       0.02 minutes
	system time =       0.02 seconds =       0.00 minutes
	total time  =          0 seconds =       0.00 minutes
Total time:
	user time   =       1.31 seconds =       0.02 minutes
	system time =       0.02 seconds =       0.00 minutes
	total time  =          0 seconds =       0.00 minutes

*** tstart() called on cqc05
*** at Thu Aug 20 22:41:03 2020


	Wfn Parameters:
	--------------------
	Wavefunction         = CCSD
	Number of irreps     = 8
	Number of MOs        = 80
	Number of active MOs = 79
	AO-Basis             = NONE
	Semicanonical        = false
	Reference            = UHF
	Print Level          = 1

	IRREP	# MOs	# FZDC	# DOCC	# SOCC	# VIRT	# FZVR
	-----	-----	------	------	------	------	------
	 Ag	   20	    1	    1	    0	    18	    0
	 B1g	   8	    0	    0	    0	    8	    0
	 B2g	   8	    0	    0	    0	    8	    0
	 B3g	   8	    0	    0	    0	    8	    0
	 Au	   3	    0	    0	    0	    3	    0
	 B1u	   11	    0	    0	    1	    10	    0
	 B2u	   11	    0	    0	    0	    11	    0
	 B3u	   11	    0	    0	    0	    11	    0
	Transforming integrals...
	IWL integrals will be deleted.
	(OO|OO)...
	Presorting SO-basis two-electron integrals.
	Sorting File: SO Ints (nn|nn) nbuckets = 1
	Transforming the one-electron integrals and constructing Fock matrices
	Starting AA/AB first half-transformation.
	Sorting AA/AB half-transformed integrals.
	Starting BB first half-transformation.
	Sorting BB half-transformed integrals.
	First half integral transformation complete.
	Starting AA second half-transformation.
	Starting AB second half-transformation.
	Starting BB second half-transformation.
	Two-electron integral transformation complete.
	(OO|OV)...
	Starting AA second half-transformation.
	Starting AB second half-transformation.
	Starting BB second half-transformation.
	Two-electron integral transformation complete.
	(OO|VV)...
	Starting AA second half-transformation.
	Starting AB second half-transformation.
	Starting BB second half-transformation.
	Two-electron integral transformation complete.
	(OV|OO)...
	Starting AA/AB first half-transformation.
	Sorting AA/AB half-transformed integrals.
	Starting BB first half-transformation.
	Sorting BB half-transformed integrals.
	First half integral transformation complete.
	Starting AA second half-transformation.
	Starting AB second half-transformation.
	Starting BB second half-transformation.
	Two-electron integral transformation complete.
	(OV|OV)...
	Starting AA second half-transformation.
	Starting AB second half-transformation.
	Starting BB second half-transformation.
	Two-electron integral transformation complete.
	(OV|VV)...
	Starting AA second half-transformation.
	Starting AB second half-transformation.
	Starting BB second half-transformation.
	Two-electron integral transformation complete.
	(VV|OO)...
	Starting AA/AB first half-transformation.
	Sorting AA/AB half-transformed integrals.
	Starting BB first half-transformation.
	Sorting BB half-transformed integrals.
	First half integral transformation complete.
	Starting AA second half-transformation.
	Starting AB second half-transformation.
	Starting BB second half-transformation.
	Two-electron integral transformation complete.
	(VV|OV)...
	Starting AA second half-transformation.
	Starting AB second half-transformation.
	Starting BB second half-transformation.
	Two-electron integral transformation complete.
	(VV|VV)...
	Starting AA second half-transformation.
	Starting AB second half-transformation.
	Starting BB second half-transformation.
	Two-electron integral transformation complete.
	Frozen core energy     =    -21.98579956721119

	Size of irrep 0 of <AB|CD> integrals:      0.156 (MW) /      1.248 (MB)
	Size of irrep 1 of <AB|CD> integrals:      0.129 (MW) /      1.031 (MB)
	Size of irrep 2 of <AB|CD> integrals:      0.123 (MW) /      0.986 (MB)
	Size of irrep 3 of <AB|CD> integrals:      0.123 (MW) /      0.986 (MB)
	Size of irrep 4 of <AB|CD> integrals:      0.096 (MW) /      0.769 (MB)
	Size of irrep 5 of <AB|CD> integrals:      0.144 (MW) /      1.155 (MB)
	Size of irrep 6 of <AB|CD> integrals:      0.152 (MW) /      1.217 (MB)
	Size of irrep 7 of <AB|CD> integrals:      0.152 (MW) /      1.217 (MB)
	Total:                                     1.076 (MW) /      8.608 (MB)

	Size of irrep 0 of <ab|cd> integrals:      0.164 (MW) /      1.312 (MB)
	Size of irrep 1 of <ab|cd> integrals:      0.131 (MW) /      1.048 (MB)
	Size of irrep 2 of <ab|cd> integrals:      0.131 (MW) /      1.048 (MB)
	Size of irrep 3 of <ab|cd> integrals:      0.131 (MW) /      1.048 (MB)
	Size of irrep 4 of <ab|cd> integrals:      0.101 (MW) /      0.809 (MB)
	Size of irrep 5 of <ab|cd> integrals:      0.158 (MW) /      1.267 (MB)
	Size of irrep 6 of <ab|cd> integrals:      0.158 (MW) /      1.267 (MB)
	Size of irrep 7 of <ab|cd> integrals:      0.158 (MW) /      1.267 (MB)
	Total:                                     1.133 (MW) /      9.068 (MB)

	Size of irrep 0 of <Ab|Cd> integrals:      0.769 (MW) /      6.153 (MB)
	Size of irrep 1 of <Ab|Cd> integrals:      0.520 (MW) /      4.159 (MB)
	Size of irrep 2 of <Ab|Cd> integrals:      0.508 (MW) /      4.067 (MB)
	Size of irrep 3 of <Ab|Cd> integrals:      0.508 (MW) /      4.067 (MB)
	Size of irrep 4 of <Ab|Cd> integrals:      0.394 (MW) /      3.155 (MB)
	Size of irrep 5 of <Ab|Cd> integrals:      0.605 (MW) /      4.842 (MB)
	Size of irrep 6 of <Ab|Cd> integrals:      0.621 (MW) /      4.968 (MB)
	Size of irrep 7 of <Ab|Cd> integrals:      0.621 (MW) /      4.968 (MB)
	Total:                                     4.547 (MW) /     36.378 (MB)

	Size of irrep 0 of <IA|BC> integrals:      0.024 (MW) /      0.194 (MB)
	Size of irrep 1 of <IA|BC> integrals:      0.008 (MW) /      0.063 (MB)
	Size of irrep 2 of <IA|BC> integrals:      0.013 (MW) /      0.107 (MB)
	Size of irrep 3 of <IA|BC> integrals:      0.013 (MW) /      0.107 (MB)
	Size of irrep 4 of <IA|BC> integrals:      0.007 (MW) /      0.055 (MB)
	Size of irrep 5 of <IA|BC> integrals:      0.021 (MW) /      0.170 (MB)
	Size of irrep 6 of <IA|BC> integrals:      0.015 (MW) /      0.119 (MB)
	Size of irrep 7 of <IA|BC> integrals:      0.015 (MW) /      0.119 (MB)
	Total:                                     0.117 (MW) /      0.933 (MB)

	Size of irrep 0 of <ia|bc> integrals:      0.016 (MW) /      0.128 (MB)
	Size of irrep 1 of <ia|bc> integrals:      0.006 (MW) /      0.046 (MB)
	Size of irrep 2 of <ia|bc> integrals:      0.006 (MW) /      0.046 (MB)
	Size of irrep 3 of <ia|bc> integrals:      0.006 (MW) /      0.046 (MB)
	Size of irrep 4 of <ia|bc> integrals:      0.002 (MW) /      0.015 (MB)
	Size of irrep 5 of <ia|bc> integrals:      0.009 (MW) /      0.070 (MB)
	Size of irrep 6 of <ia|bc> integrals:      0.009 (MW) /      0.070 (MB)
	Size of irrep 7 of <ia|bc> integrals:      0.009 (MW) /      0.070 (MB)
	Total:                                     0.062 (MW) /      0.492 (MB)

	Size of irrep 0 of <Ia|Bc> integrals:      0.025 (MW) /      0.203 (MB)
	Size of irrep 1 of <Ia|Bc> integrals:      0.008 (MW) /      0.063 (MB)
	Size of irrep 2 of <Ia|Bc> integrals:      0.014 (MW) /      0.108 (MB)
	Size of irrep 3 of <Ia|Bc> integrals:      0.014 (MW) /      0.108 (MB)
	Size of irrep 4 of <Ia|Bc> integrals:      0.007 (MW) /      0.055 (MB)
	Size of irrep 5 of <Ia|Bc> integrals:      0.023 (MW) /      0.180 (MB)
	Size of irrep 6 of <Ia|Bc> integrals:      0.015 (MW) /      0.120 (MB)
	Size of irrep 7 of <Ia|Bc> integrals:      0.015 (MW) /      0.120 (MB)
	Total:                                     0.120 (MW) /      0.959 (MB)

	Size of irrep 0 of <iA|bC> integrals:      0.016 (MW) /      0.126 (MB)
	Size of irrep 1 of <iA|bC> integrals:      0.006 (MW) /      0.046 (MB)
	Size of irrep 2 of <iA|bC> integrals:      0.006 (MW) /      0.046 (MB)
	Size of irrep 3 of <iA|bC> integrals:      0.006 (MW) /      0.046 (MB)
	Size of irrep 4 of <iA|bC> integrals:      0.002 (MW) /      0.015 (MB)
	Size of irrep 5 of <iA|bC> integrals:      0.008 (MW) /      0.062 (MB)
	Size of irrep 6 of <iA|bC> integrals:      0.009 (MW) /      0.069 (MB)
	Size of irrep 7 of <iA|bC> integrals:      0.009 (MW) /      0.069 (MB)
	Total:                                     0.060 (MW) /      0.480 (MB)

	Size of irrep 0 of tIjAb amplitudes:       0.001 (MW) /      0.007 (MB)
	Size of irrep 1 of tIjAb amplitudes:       0.000 (MW) /      0.000 (MB)
	Size of irrep 2 of tIjAb amplitudes:       0.000 (MW) /      0.000 (MB)
	Size of irrep 3 of tIjAb amplitudes:       0.000 (MW) /      0.000 (MB)
	Size of irrep 4 of tIjAb amplitudes:       0.000 (MW) /      0.000 (MB)
	Size of irrep 5 of tIjAb amplitudes:       0.001 (MW) /      0.006 (MB)
	Size of irrep 6 of tIjAb amplitudes:       0.000 (MW) /      0.000 (MB)
	Size of irrep 7 of tIjAb amplitudes:       0.000 (MW) /      0.000 (MB)
	Total:                                     0.002 (MW) /      0.013 (MB)

	Nuclear Rep. energy          =      0.00000000000000
	SCF energy                   =    -24.53298407421479
	One-electron energy          =     -3.78409938483698
	Two-electron (AA) energy     =      0.34533050316770
	Two-electron (BB) energy     =      0.00000000000000
	Two-electron (AB) energy     =      0.89158437466562
	Two-electron energy          =      1.23691487783332
	Reference energy             =    -24.53298407421485

*** tstop() called on cqc05 at Thu Aug 20 22:41:04 2020
Module time:
	user time   =       0.42 seconds =       0.01 minutes
	system time =       0.28 seconds =       0.00 minutes
	total time  =          1 seconds =       0.02 minutes
Total time:
	user time   =       1.73 seconds =       0.03 minutes
	system time =       0.30 seconds =       0.01 minutes
	total time  =          1 seconds =       0.02 minutes

*** tstart() called on cqc05
*** at Thu Aug 20 22:41:04 2020

            **************************
            *                        *
            *        CCENERGY        *
            *                        *
            **************************

    Nuclear Rep. energy (wfn)     =    0.000000000000000
    SCF energy          (wfn)     =  -24.532984074214788
    Reference energy    (file100) =  -24.532984074214852

    Input parameters:
    -----------------
    Wave function   =     CCSD
    Reference wfn   =     UHF
    Brueckner       =     No
    Memory (Mbytes) =     250000.0
    Maxiter         =     50
    R_Convergence   =     1.0e-07
    E_Convergence   =     1.0e-06
    Restart         =     Yes
    DIIS            =     Yes
    AO Basis        =     NONE
    ABCD            =     NEW
    Cache Level     =     2
    Cache Type      =     LRU
    Print Level     =     1
    Num. of threads =     4
    # Amps to Print =     10
    Print MP2 Amps? =     No
    Analyze T2 Amps =     No
    Print Pair Ener =     No
    Local CC        =     No
    SCS-MP2         =     False
    SCSN-MP2        =     False
    SCS-CCSD        =     False

MP2 correlation energy -0.0472448561488598
                Solving CC Amplitude Equations
                ------------------------------
  Iter             Energy              RMS        T1Diag      D1Diag    New D1Diag    D2Diag
  ----     ---------------------    ---------   ----------  ----------  ----------   --------
     0        -0.047244856148860    0.000e+00    0.000000    0.000000    0.000000    0.000000
     1        -0.057707092422376    5.882e-02    0.010054    0.000000    0.000000    0.000000
     2        -0.066023933783538    2.990e-02    0.019532    0.000000    0.000000    0.000000
     3        -0.066359402068735    5.738e-03    0.021128    0.000000    0.000000    0.000000
     4        -0.066530197149539    1.192e-03    0.021356    0.000000    0.000000    0.000000
     5        -0.066494161914093    2.976e-04    0.021299    0.000000    0.000000    0.000000
     6        -0.066496011543929    8.576e-05    0.021283    0.000000    0.000000    0.000000
     7        -0.066497853162088    2.421e-05    0.021281    0.000000    0.000000    0.000000
     8        -0.066497287352892    6.578e-06    0.021280    0.000000    0.000000    0.000000
     9        -0.066497244603888    1.731e-06    0.021280    0.000000    0.000000    0.000000
    10        -0.066497226688995    5.453e-07    0.021281    0.000000    0.000000    0.000000
    11        -0.066497234620592    1.515e-07    0.021281    0.000000    0.000000    0.000000
    12        -0.066497233564941    5.238e-08    0.021281    0.000000    0.000000    0.000000
    12        -0.066497233564941    5.238e-08    0.021281    0.000000    0.000000    0.000000

    Iterations converged.


    CCSD corr. energy   =   -0.066497233564941
    PPL corr. energy    =    0.029076201412783
    OS PPL corr. energy =    0.028246737022167
    SS PPL corr. energy =    0.000829464390616
    Largest TIA Amplitudes:
              0   4        -0.0210418287
              0   2         0.0120366915
              0  10         0.0101743509
              0   3        -0.0072598249
              0   0         0.0043953498
              1  45        -0.0035010479
              1  48         0.0032628676
              0   8        -0.0029292883
              1  51         0.0027408655
              1  46        -0.0021743971

    Largest Tia Amplitudes:
              0   3        -0.0174602402
              0   0         0.0143917825
              0  10         0.0053130810
              0   5         0.0019463618
              0   2        -0.0017370908
              0   8        -0.0004899875
              0  15         0.0002896323
              0  11        -0.0001136202
              0  17         0.0000512579
              0  16        -0.0000361928

    Largest TIJAB Amplitudes:
      1   0  46   3         0.0220073698
      1   0  49   3         0.0149284793
      1   0  56  35         0.0148098908
      1   0  67  27         0.0148098908
      1   0  46   0        -0.0128941314
      1   0  55  35         0.0128007498
      1   0  66  27         0.0128007498
      1   0  46  10        -0.0108671269
      1   0  57  35         0.0103192413
      1   0  68  27         0.0103192413

    Largest TIjAb Amplitudes:
      0   0  56  57        -0.1034552690
      0   0  67  68        -0.1034552690
      0   0  55  57        -0.0916158251
      0   0  66  68        -0.0916158251
      0   0  56  56        -0.0765133370
      0   0  67  67        -0.0765133370
      0   0  57  57        -0.0703953857
      0   0  68  68        -0.0703953857
      0   0  56  58        -0.0701482181
      0   0  67  69        -0.0701482181

    SCF energy       (wfn)                    =  -24.532984074214788
    Reference energy (file100)                =  -24.532984074214852

    Opposite-spin MP2 correlation energy      =   -0.043818340393339
    Same-spin MP2 correlation energy          =   -0.003426515755507
    MP2 correlation energy                    =   -0.047244856148860
      * MP2 total energy                      =  -24.580228930363713

    Opposite-spin CCSD correlation energy     =   -0.062623859694938
    Same-spin CCSD correlation energy         =   -0.003873372196493
    CCSD correlation energy                   =   -0.066497233564941
      * CCSD total energy                     =  -24.599481307779794


*** tstop() called on cqc05 at Thu Aug 20 22:41:06 2020
Module time:
	user time   =       0.35 seconds =       0.01 minutes
	system time =       0.36 seconds =       0.01 minutes
	total time  =          2 seconds =       0.03 minutes
Total time:
	user time   =       2.08 seconds =       0.03 minutes
	system time =       0.66 seconds =       0.01 minutes
	total time  =          3 seconds =       0.05 minutes

*** Psi4 exiting successfully. Buy a developer a beer!
