
    -----------------------------------------------------------------------
          Psi4: An Open-Source Ab Initio Electronic Structure Package
                               Psi4 1.2a1.dev938 

                         Git: Rev {HEAD} fc51d9a dirty


    R. M. Parrish, L. A. Burns, D. G. A. Smith, A. C. Simmonett,
    A. E. DePrince III, E. G. Hohenstein, U. Bozkaya, A. Yu. Sokolov,
    R. Di Remigio, R. M. Richard, J. F. Gonthier, A. M. James,
    H. R. McAlexander, A. Kumar, M. Saitow, X. Wang, B. P. Pritchard,
    P. Verma, H. F. Schaefer III, K. Patkowski, R. A. King, E. F. Valeev,
    F. A. Evangelista, J. M. Turney, T. D. Crawford, and C. D. Sherrill,
    J. Chem. Theory Comput. 13(7) pp 3185--3197 (2017).
    (doi: 10.1021/acs.jctc.7b00174)

    -----------------------------------------------------------------------


    Psi4 started on: Friday, 21 August 2020 06:47AM

    Process ID: 428013
    PSIDATADIR: /home/irmler/Programs/psi4/beforeGrueneis3/stage/usr/local/psi4/share/psi4
    Memory:     500.0 MiB
    Threads:    4
    
  ==> Input File <==

--------------------------------------------------------------------------
# Any line starting with the # character is a comment line
memory 250000 mb
molecule molecule{
0 2
B          0.0000000000        0.0000000000        0.0000000000
}

set {
  reference uhf
  basis aug-cc-pv(5+d)z
  scf_type OUT_OF_CORE
  freeze_core true
}

energy('ccsd')
--------------------------------------------------------------------------

  Memory set to 232.831 GiB by Python driver.

*** tstart() called on cqc05
*** at Fri Aug 21 06:47:07 2020

   => Loading Basis Set <=

    Name: AUG-CC-PV(5+D)Z
    Role: ORBITAL
    Keyword: BASIS
    atoms 1 entry B          line   146 file /home/irmler/Programs/psi4/beforeGrueneis3/stage/usr/local/psi4/share/psi4/basis/aug-cc-pv_5pd_z.gbs 


         ---------------------------------------------------------
                                   SCF
            by Justin Turney, Rob Parrish, Andy Simmonett
                             and Daniel Smith
                              UHF Reference
                        4 Threads, 238418 MiB Core
         ---------------------------------------------------------

  ==> Geometry <==

    Molecular point group: d2h
    Geometry (in Angstrom), charge = 0, multiplicity = 2:

       Center              X                  Y                   Z               Mass       
    ------------   -----------------  -----------------  -----------------  -----------------
           B          0.000000000000     0.000000000000     0.000000000000    11.009305406000

  Running in d2h symmetry.

  Rotational constants: A = ************  B = ************  C = ************ [cm^-1]
  Rotational constants: A = ************  B = ************  C = ************ [MHz]
  Nuclear repulsion =    0.000000000000000

  Charge       = 0
  Multiplicity = 2
  Electrons    = 5
  Nalpha       = 3
  Nbeta        = 2

  ==> Algorithm <==

  SCF Algorithm Type is OUT_OF_CORE.
  DIIS enabled.
  MOM disabled.
  Fractional occupation disabled.
  Guess Type is GWH.
  Energy threshold   = 1.00e-08
  Density threshold  = 1.00e-08
  Integral threshold = 0.00e+00

  ==> Primary Basis <==

  Basis Set: AUG-CC-PV(5+D)Z
    Blend: AUG-CC-PV(5+D)Z
    Number of shells: 27
    Number of basis function: 127
    Number of Cartesian functions: 182
    Spherical Harmonics?: true
    Max angular momentum: 5

  ==> Pre-Iterations <==

   -------------------------------------------------------
    Irrep   Nso     Nmo     Nalpha   Nbeta   Ndocc  Nsocc
   -------------------------------------------------------
     Ag        26      26       0       0       0       0
     B1g       11      11       0       0       0       0
     B2g       11      11       0       0       0       0
     B3g       11      11       0       0       0       0
     Au         8       8       0       0       0       0
     B1u       20      20       0       0       0       0
     B2u       20      20       0       0       0       0
     B3u       20      20       0       0       0       0
   -------------------------------------------------------
    Total     127     127       3       2       2       1
   -------------------------------------------------------

  ==> Integral Setup <==

  ==> DiskJK: Disk-Based J/K Matrices <==

    J tasked:                  Yes
    K tasked:                  Yes
    wK tasked:                  No
    Memory (MB):            178813
    Schwarz Cutoff:          1E-12

  Minimum eigenvalue in the overlap matrix is 1.5331804929E-03.
  Using Symmetric Orthogonalization.

  SCF Guess: Generalized Wolfsberg-Helmholtz.

  ==> Iterations <==

                        Total Energy        Delta E     RMS |[F,P]|

   @UHF iter   1:   -23.46677337329219   -2.34668e+01   7.51323e-02 
   @UHF iter   2:   -24.52180121961599   -1.05503e+00   5.99479e-03 DIIS
   @UHF iter   3:   -24.53199198325694   -1.01908e-02   8.56821e-04 DIIS
   @UHF iter   4:   -24.53294333640096   -9.51353e-04   3.00814e-04 DIIS
   @UHF iter   5:   -24.53311218804479   -1.68852e-04   7.47273e-05 DIIS
   @UHF iter   6:   -24.53312901994995   -1.68319e-05   2.00574e-05 DIIS
   @UHF iter   7:   -24.53313033726842   -1.31732e-06   2.72881e-06 DIIS
   @UHF iter   8:   -24.53313035275679   -1.54884e-08   2.74432e-07 DIIS
   @UHF iter   9:   -24.53313035291531   -1.58522e-10   2.53304e-08 DIIS
   @UHF iter  10:   -24.53313035291696   -1.65556e-12   4.82671e-09 DIIS

  ==> Post-Iterations <==

   @Spin Contamination Metric:   1.134464840E-02
   @S^2 Expected:                7.500000000E-01
   @S^2 Observed:                7.613446484E-01
   @S   Expected:                5.000000000E-01
   @S   Observed:                5.000000000E-01

    Orbital Energies (a.u.)
    -----------------------

    Alpha Occupied:                                                       

       1Ag    -7.701230     2Ag    -0.545236     1B2u   -0.318854  

    Alpha Virtual:                                                        

       1B3u    0.021669     1B1u    0.021669     2B2u    0.040248  
       3Ag     0.051599     2B3u    0.062851     2B1u    0.062851  
       4Ag     0.133266     1B2g    0.133266     1B3g    0.135186  
       1B1g    0.135186     5Ag     0.136071     3B2u    0.191662  
       3B1u    0.224587     3B3u    0.224587     6Ag     0.299865  
       4B1u    0.343529     4B3u    0.343529     4B2u    0.347755  
       1Au     0.347755     5B1u    0.350373     5B3u    0.350373  
       5B2u    0.351234     7Ag     0.434194     2B1g    0.435091  
       2B3g    0.435091     8Ag     0.440935     2B2g    0.440935  
       6B2u    0.639124     6B1u    0.668648     6B3u    0.668648  
       3B2g    1.000686     9Ag     1.000686     3B1g    1.008062  
       3B3g    1.008062     4B2g    1.013374    10Ag     1.013374  
       4B3g    1.016561     4B1g    1.016561    11Ag     1.017621  
       7B1u    1.041009     7B3u    1.041009     7B2u    1.048126  
       2Au     1.048126     8B3u    1.052367     8B1u    1.052367  
       8B2u    1.053766    12Ag     1.142580     5B1g    1.150687  
       5B3g    1.150687     5B2g    1.158421    13Ag     1.158421  
      14Ag     1.161941     9B2u    1.811189     9B1u    1.819115  
       9B3u    1.819115    10B1u    2.284144    10B3u    2.284144  
       3Au     2.294444    10B2u    2.294444    11B1u    2.302541  
      11B3u    2.302541     4Au     2.308369    11B2u    2.308369  
      12B1u    2.311885    12B3u    2.311885    12B2u    2.313060  
      13B3u    2.589866    13B1u    2.589866     5Au     2.601920  
      13B2u    2.601920    14B1u    2.609170    14B3u    2.609170  
      14B2u    2.611590    15Ag     2.695374     6B2g    2.695374  
       6B3g    2.708396     6B1g    2.708396    16Ag     2.717722  
       7B2g    2.717722     7B1g    2.723317     7B3g    2.723317  
      17Ag     2.725181    18Ag     2.969580     8B2g    2.969580  
       8B1g    2.975774     8B3g    2.975774    19Ag     2.977961  
      20Ag     4.260697    15B1u    5.659170    15B3u    5.659170  
      15B2u    5.667360    16B1u    5.902604    16B3u    5.902604  
       6Au     5.918431    16B2u    5.918431    17B1u    5.930834  
      17B3u    5.930834     7Au     5.939745    17B2u    5.939745  
      18B1u    5.945112    18B3u    5.945112    18B2u    5.946905  
      19B1u    6.260603    19B3u    6.260603     8Au     6.277672  
      19B2u    6.277672    20B1u    6.288056    20B3u    6.288056  
      20B2u    6.291544     9B2g    6.765744    21Ag     6.765744  
       9B1g    6.783345     9B3g    6.783345    10B2g    6.796000  
      22Ag     6.796000    10B1g    6.803626    10B3g    6.803626  
      23Ag     6.806174    11B2g    7.810484    24Ag     7.810484  
      11B3g    7.826311    11B1g    7.826311    25Ag     7.831706  
      26Ag    23.718329  

    Beta Occupied:                                                        

       1Ag    -7.686205     2Ag    -0.446151  

    Beta Virtual:                                                         

       1B3u    0.024645     1B1u    0.024645     1B2u    0.033626  
       3Ag     0.054759     2B3u    0.069419     2B1u    0.069419  
       2B2u    0.099743     4Ag     0.133324     1B2g    0.133324  
       1B3g    0.138492     1B1g    0.138492     5Ag     0.140417  
       3B1u    0.231345     3B3u    0.231345     3B2u    0.260417  
       6Ag     0.313610     4B1u    0.343490     4B3u    0.343490  
       4B2u    0.349818     1Au     0.349818     5B1u    0.353779  
       5B3u    0.353779     5B2u    0.355145     7Ag     0.441693  
       2B2g    0.441693     2B1g    0.460506     2B3g    0.460506  
       8Ag     0.467743     6B1u    0.676540     6B3u    0.676540  
       6B2u    0.712190     3B2g    1.000454     9Ag     1.000454  
       3B3g    1.011126     3B1g    1.011126     4B2g    1.018967  
      10Ag     1.018967     4B3g    1.023771     4B1g    1.023771  
      11Ag     1.025390     7B1u    1.041092     7B3u    1.041092  
       7B2u    1.059175     2Au     1.059175     8B3u    1.070422  
       8B1u    1.070422     8B2u    1.074267     5B2g    1.162033  
      12Ag     1.162033    13Ag     1.177852     5B3g    1.195461  
       5B1g    1.195461    14Ag     1.208750     9B1u    1.827401  
       9B3u    1.827401     9B2u    1.872798    10B1u    2.283762  
      10B3u    2.283762     3Au     2.297652    10B2u    2.297652  
      11B1u    2.308611    11B3u    2.308611     4Au     2.316528  
      11B2u    2.316528    12B1u    2.321316    12B3u    2.321316  
      12B2u    2.322919    13B3u    2.591490    13B1u    2.591490  
       5Au     2.620515    13B2u    2.620515    14B1u    2.638480  
      14B3u    2.638480    14B2u    2.644587     6B2g    2.695491  
      15Ag     2.695491     6B3g    2.716730     6B1g    2.716730  
       7B2g    2.732231    16Ag     2.732231     7B1g    2.741682  
       7B3g    2.741682    17Ag     2.744860    18Ag     2.974814  
       8B2g    2.974814     8B1g    3.014142     8B3g    3.014142  
      19Ag     3.028160    20Ag     4.279400    15B1u    5.665159  
      15B3u    5.665159    15B2u    5.704388    16B1u    5.902827  
      16B3u    5.902827     6Au     5.924536    16B2u    5.924536  
      17B1u    5.941568    17B3u    5.941568     7Au     5.953822  
      17B2u    5.953822    18B1u    5.961212    18B3u    5.961212  
      18B2u    5.963682    19B3u    6.263322    19B1u    6.263322  
       8Au     6.295089    19B2u    6.295089    20B1u    6.314650  
      20B3u    6.314650    20B2u    6.321282     9B2g    6.767042  
      21Ag     6.767042     9B1g    6.794022     9B3g    6.794022  
      10B2g    6.813533    22Ag     6.813533    10B1g    6.825339  
      10B3g    6.825339    23Ag     6.829292    11B2g    7.814397  
      24Ag     7.814397    11B3g    7.849075    11B1g    7.849075  
      25Ag     7.861057    26Ag    23.724885  

    Final Occupation by Irrep:
             Ag   B1g   B2g   B3g    Au   B1u   B2u   B3u 
    DOCC [     2,    0,    0,    0,    0,    0,    0,    0 ]
    SOCC [     0,    0,    0,    0,    0,    0,    1,    0 ]

  Energy converged.

  @UHF Final Energy:   -24.53313035291696

   => Energetics <=

    Nuclear Repulsion Energy =              0.0000000000000000
    One-Electron Energy =                 -32.3685843751687585
    Two-Electron Energy =                   7.8354540222517954
    Total Energy =                        -24.5331303529169631


  UHF NO Occupations:
  HONO-2 :    1 Ag 1.9999978
  HONO-1 :    2 Ag 1.9943137
  HONO-0 :    1B2u 1.0000000
  LUNO+0 :    3 Ag 0.0056863
  LUNO+1 :    4 Ag 0.0000022
  LUNO+2 :    5 Ag 0.0000000
  LUNO+3 :    2B2u 0.0000000



Properties will be evaluated at   0.000000,   0.000000,   0.000000 Bohr

Properties computed using the SCF density matrix

  Nuclear Dipole Moment: (a.u.)
     X:     0.0000      Y:     0.0000      Z:     0.0000

  Electronic Dipole Moment: (a.u.)
     X:     0.0000      Y:     0.0000      Z:     0.0000

  Dipole Moment: (a.u.)
     X:     0.0000      Y:     0.0000      Z:     0.0000     Total:     0.0000

  Dipole Moment: (Debye)
     X:     0.0000      Y:     0.0000      Z:     0.0000     Total:     0.0000


*** tstop() called on cqc05 at Fri Aug 21 06:47:13 2020
Module time:
	user time   =       6.07 seconds =       0.10 minutes
	system time =       0.18 seconds =       0.00 minutes
	total time  =          6 seconds =       0.10 minutes
Total time:
	user time   =       6.07 seconds =       0.10 minutes
	system time =       0.18 seconds =       0.00 minutes
	total time  =          6 seconds =       0.10 minutes

*** tstart() called on cqc05
*** at Fri Aug 21 06:47:13 2020


	Wfn Parameters:
	--------------------
	Wavefunction         = CCSD
	Number of irreps     = 8
	Number of MOs        = 127
	Number of active MOs = 126
	AO-Basis             = NONE
	Semicanonical        = false
	Reference            = UHF
	Print Level          = 1

	IRREP	# MOs	# FZDC	# DOCC	# SOCC	# VIRT	# FZVR
	-----	-----	------	------	------	------	------
	 Ag	   26	    1	    1	    0	    24	    0
	 B1g	   11	    0	    0	    0	    11	    0
	 B2g	   11	    0	    0	    0	    11	    0
	 B3g	   11	    0	    0	    0	    11	    0
	 Au	   8	    0	    0	    0	    8	    0
	 B1u	   20	    0	    0	    0	    20	    0
	 B2u	   20	    0	    0	    1	    19	    0
	 B3u	   20	    0	    0	    0	    20	    0
	Transforming integrals...
	IWL integrals will be deleted.
	(OO|OO)...
	Presorting SO-basis two-electron integrals.
	Sorting File: SO Ints (nn|nn) nbuckets = 1
	Transforming the one-electron integrals and constructing Fock matrices
	Starting AA/AB first half-transformation.
	Sorting AA/AB half-transformed integrals.
	Starting BB first half-transformation.
	Sorting BB half-transformed integrals.
	First half integral transformation complete.
	Starting AA second half-transformation.
	Starting AB second half-transformation.
	Starting BB second half-transformation.
	Two-electron integral transformation complete.
	(OO|OV)...
	Starting AA second half-transformation.
	Starting AB second half-transformation.
	Starting BB second half-transformation.
	Two-electron integral transformation complete.
	(OO|VV)...
	Starting AA second half-transformation.
	Starting AB second half-transformation.
	Starting BB second half-transformation.
	Two-electron integral transformation complete.
	(OV|OO)...
	Starting AA/AB first half-transformation.
	Sorting AA/AB half-transformed integrals.
	Starting BB first half-transformation.
	Sorting BB half-transformed integrals.
	First half integral transformation complete.
	Starting AA second half-transformation.
	Starting AB second half-transformation.
	Starting BB second half-transformation.
	Two-electron integral transformation complete.
	(OV|OV)...
	Starting AA second half-transformation.
	Starting AB second half-transformation.
	Starting BB second half-transformation.
	Two-electron integral transformation complete.
	(OV|VV)...
	Starting AA second half-transformation.
	Starting AB second half-transformation.
	Starting BB second half-transformation.
	Two-electron integral transformation complete.
	(VV|OO)...
	Starting AA/AB first half-transformation.
	Sorting AA/AB half-transformed integrals.
	Starting BB first half-transformation.
	Sorting BB half-transformed integrals.
	First half integral transformation complete.
	Starting AA second half-transformation.
	Starting AB second half-transformation.
	Starting BB second half-transformation.
	Two-electron integral transformation complete.
	(VV|OV)...
	Starting AA second half-transformation.
	Starting AB second half-transformation.
	Starting BB second half-transformation.
	Two-electron integral transformation complete.
	(VV|VV)...
	Starting AA second half-transformation.
	Starting AB second half-transformation.
	Starting BB second half-transformation.
	Two-electron integral transformation complete.
	Frozen core energy     =    -21.98585030323418

	Size of irrep 0 of <AB|CD> integrals:      1.040 (MW) /      8.323 (MB)
	Size of irrep 1 of <AB|CD> integrals:      0.856 (MW) /      6.845 (MB)
	Size of irrep 2 of <AB|CD> integrals:      0.878 (MW) /      7.024 (MB)
	Size of irrep 3 of <AB|CD> integrals:      0.856 (MW) /      6.845 (MB)
	Size of irrep 4 of <AB|CD> integrals:      0.707 (MW) /      5.658 (MB)
	Size of irrep 5 of <AB|CD> integrals:      0.994 (MW) /      7.952 (MB)
	Size of irrep 6 of <AB|CD> integrals:      0.968 (MW) /      7.746 (MB)
	Size of irrep 7 of <AB|CD> integrals:      0.994 (MW) /      7.952 (MB)
	Total:                                     7.293 (MW) /     58.345 (MB)

	Size of irrep 0 of <ab|cd> integrals:      1.080 (MW) /      8.636 (MB)
	Size of irrep 1 of <ab|cd> integrals:      0.893 (MW) /      7.144 (MB)
	Size of irrep 2 of <ab|cd> integrals:      0.893 (MW) /      7.144 (MB)
	Size of irrep 3 of <ab|cd> integrals:      0.893 (MW) /      7.144 (MB)
	Size of irrep 4 of <ab|cd> integrals:      0.726 (MW) /      5.807 (MB)
	Size of irrep 5 of <ab|cd> integrals:      1.016 (MW) /      8.129 (MB)
	Size of irrep 6 of <ab|cd> integrals:      1.016 (MW) /      8.129 (MB)
	Size of irrep 7 of <ab|cd> integrals:      1.016 (MW) /      8.129 (MB)
	Total:                                     7.533 (MW) /     60.262 (MB)

	Size of irrep 0 of <Ab|Cd> integrals:      4.765 (MW) /     38.124 (MB)
	Size of irrep 1 of <Ab|Cd> integrals:      3.497 (MW) /     27.975 (MB)
	Size of irrep 2 of <Ab|Cd> integrals:      3.542 (MW) /     28.335 (MB)
	Size of irrep 3 of <Ab|Cd> integrals:      3.497 (MW) /     27.975 (MB)
	Size of irrep 4 of <Ab|Cd> integrals:      2.866 (MW) /     22.930 (MB)
	Size of irrep 5 of <Ab|Cd> integrals:      4.020 (MW) /     32.160 (MB)
	Size of irrep 6 of <Ab|Cd> integrals:      3.968 (MW) /     31.745 (MB)
	Size of irrep 7 of <Ab|Cd> integrals:      4.020 (MW) /     32.160 (MB)
	Total:                                    30.176 (MW) /    241.405 (MB)

	Size of irrep 0 of <IA|BC> integrals:      0.093 (MW) /      0.744 (MB)
	Size of irrep 1 of <IA|BC> integrals:      0.057 (MW) /      0.459 (MB)
	Size of irrep 2 of <IA|BC> integrals:      0.036 (MW) /      0.285 (MB)
	Size of irrep 3 of <IA|BC> integrals:      0.057 (MW) /      0.459 (MB)
	Size of irrep 4 of <IA|BC> integrals:      0.032 (MW) /      0.256 (MB)
	Size of irrep 5 of <IA|BC> integrals:      0.062 (MW) /      0.495 (MB)
	Size of irrep 6 of <IA|BC> integrals:      0.085 (MW) /      0.677 (MB)
	Size of irrep 7 of <IA|BC> integrals:      0.062 (MW) /      0.495 (MB)
	Total:                                     0.484 (MW) /      3.869 (MB)

	Size of irrep 0 of <ia|bc> integrals:      0.053 (MW) /      0.423 (MB)
	Size of irrep 1 of <ia|bc> integrals:      0.021 (MW) /      0.166 (MB)
	Size of irrep 2 of <ia|bc> integrals:      0.021 (MW) /      0.166 (MB)
	Size of irrep 3 of <ia|bc> integrals:      0.021 (MW) /      0.166 (MB)
	Size of irrep 4 of <ia|bc> integrals:      0.014 (MW) /      0.109 (MB)
	Size of irrep 5 of <ia|bc> integrals:      0.040 (MW) /      0.323 (MB)
	Size of irrep 6 of <ia|bc> integrals:      0.040 (MW) /      0.323 (MB)
	Size of irrep 7 of <ia|bc> integrals:      0.040 (MW) /      0.323 (MB)
	Total:                                     0.250 (MW) /      1.999 (MB)

	Size of irrep 0 of <Ia|Bc> integrals:      0.096 (MW) /      0.768 (MB)
	Size of irrep 1 of <Ia|Bc> integrals:      0.058 (MW) /      0.464 (MB)
	Size of irrep 2 of <Ia|Bc> integrals:      0.036 (MW) /      0.286 (MB)
	Size of irrep 3 of <Ia|Bc> integrals:      0.058 (MW) /      0.464 (MB)
	Size of irrep 4 of <Ia|Bc> integrals:      0.032 (MW) /      0.257 (MB)
	Size of irrep 5 of <Ia|Bc> integrals:      0.062 (MW) /      0.497 (MB)
	Size of irrep 6 of <Ia|Bc> integrals:      0.088 (MW) /      0.701 (MB)
	Size of irrep 7 of <Ia|Bc> integrals:      0.062 (MW) /      0.497 (MB)
	Total:                                     0.492 (MW) /      3.935 (MB)

	Size of irrep 0 of <iA|bC> integrals:      0.052 (MW) /      0.419 (MB)
	Size of irrep 1 of <iA|bC> integrals:      0.021 (MW) /      0.165 (MB)
	Size of irrep 2 of <iA|bC> integrals:      0.021 (MW) /      0.166 (MB)
	Size of irrep 3 of <iA|bC> integrals:      0.021 (MW) /      0.165 (MB)
	Size of irrep 4 of <iA|bC> integrals:      0.014 (MW) /      0.108 (MB)
	Size of irrep 5 of <iA|bC> integrals:      0.040 (MW) /      0.321 (MB)
	Size of irrep 6 of <iA|bC> integrals:      0.038 (MW) /      0.303 (MB)
	Size of irrep 7 of <iA|bC> integrals:      0.040 (MW) /      0.321 (MB)
	Total:                                     0.246 (MW) /      1.967 (MB)

	Size of irrep 0 of tIjAb amplitudes:       0.002 (MW) /      0.017 (MB)
	Size of irrep 1 of tIjAb amplitudes:       0.000 (MW) /      0.000 (MB)
	Size of irrep 2 of tIjAb amplitudes:       0.000 (MW) /      0.000 (MB)
	Size of irrep 3 of tIjAb amplitudes:       0.000 (MW) /      0.000 (MB)
	Size of irrep 4 of tIjAb amplitudes:       0.000 (MW) /      0.000 (MB)
	Size of irrep 5 of tIjAb amplitudes:       0.000 (MW) /      0.000 (MB)
	Size of irrep 6 of tIjAb amplitudes:       0.002 (MW) /      0.016 (MB)
	Size of irrep 7 of tIjAb amplitudes:       0.000 (MW) /      0.000 (MB)
	Total:                                     0.004 (MW) /      0.033 (MB)

	Nuclear Rep. energy          =      0.00000000000000
	SCF energy                   =    -24.53313035291696
	One-electron energy          =     -3.78431953880934
	Two-electron (AA) energy     =      0.34538491904651
	Two-electron (BB) energy     =      0.00000000000000
	Two-electron (AB) energy     =      0.89165457007995
	Two-electron energy          =      1.23703948912646
	Reference energy             =    -24.53313035291705

*** tstop() called on cqc05 at Fri Aug 21 06:47:17 2020
Module time:
	user time   =       2.33 seconds =       0.04 minutes
	system time =       1.33 seconds =       0.02 minutes
	total time  =          4 seconds =       0.07 minutes
Total time:
	user time   =       8.40 seconds =       0.14 minutes
	system time =       1.51 seconds =       0.03 minutes
	total time  =         10 seconds =       0.17 minutes

*** tstart() called on cqc05
*** at Fri Aug 21 06:47:17 2020

            **************************
            *                        *
            *        CCENERGY        *
            *                        *
            **************************

    Nuclear Rep. energy (wfn)     =    0.000000000000000
    SCF energy          (wfn)     =  -24.533130352916963
    Reference energy    (file100) =  -24.533130352917052

    Input parameters:
    -----------------
    Wave function   =     CCSD
    Reference wfn   =     UHF
    Brueckner       =     No
    Memory (Mbytes) =     250000.0
    Maxiter         =     50
    R_Convergence   =     1.0e-07
    E_Convergence   =     1.0e-06
    Restart         =     Yes
    DIIS            =     Yes
    AO Basis        =     NONE
    ABCD            =     NEW
    Cache Level     =     2
    Cache Type      =     LRU
    Print Level     =     1
    Num. of threads =     4
    # Amps to Print =     10
    Print MP2 Amps? =     No
    Analyze T2 Amps =     No
    Print Pair Ener =     No
    Local CC        =     No
    SCS-MP2         =     False
    SCSN-MP2        =     False
    SCS-CCSD        =     False

MP2 correlation energy -0.0483468747193374
                Solving CC Amplitude Equations
                ------------------------------
  Iter             Energy              RMS        T1Diag      D1Diag    New D1Diag    D2Diag
  ----     ---------------------    ---------   ----------  ----------  ----------   --------
     0        -0.048346874719338    0.000e+00    0.000000    0.000000    0.000000    0.000000
     1        -0.058132799508295    5.839e-02    0.010409    0.000000    0.000000    0.000000
     2        -0.066587704484452    2.991e-02    0.019715    0.000000    0.000000    0.000000
     3        -0.066765143369043    5.686e-03    0.021260    0.000000    0.000000    0.000000
     4        -0.066987393699165    1.425e-03    0.021531    0.000000    0.000000    0.000000
     5        -0.066969985493769    3.572e-04    0.021496    0.000000    0.000000    0.000000
     6        -0.066966249845994    9.066e-05    0.021474    0.000000    0.000000    0.000000
     7        -0.066969340554145    2.724e-05    0.021473    0.000000    0.000000    0.000000
     8        -0.066968956642517    7.292e-06    0.021473    0.000000    0.000000    0.000000
     9        -0.066968750123302    1.944e-06    0.021473    0.000000    0.000000    0.000000
    10        -0.066968728387735    6.223e-07    0.021473    0.000000    0.000000    0.000000
    11        -0.066968750560442    2.006e-07    0.021473    0.000000    0.000000    0.000000
    12        -0.066968750341187    5.797e-08    0.021473    0.000000    0.000000    0.000000
    12        -0.066968750341187    5.797e-08    0.021473    0.000000    0.000000    0.000000

    Iterations converged.


    CCSD corr. energy   =   -0.066968750341187
    PPL corr. energy    =    0.029715156626293
    OS PPL corr. energy =    0.028864116296709
    SS PPL corr. energy =    0.000851040329585
    Largest TIA Amplitudes:
              0   4        -0.0205178403
              0   2         0.0108138552
              0  11         0.0101434396
              0   9        -0.0077047574
              0   3        -0.0072716005
              0   0         0.0042495674
              1  91         0.0031534822
              0  16         0.0028651735
              1  85        -0.0027657093
              1  86        -0.0026738430

    Largest Tia Amplitudes:
              0   3         0.0179015174
              0   0        -0.0139336772
              0  10        -0.0068497877
              0   5        -0.0020844412
              0   2         0.0016084401
              0   8         0.0003997650
              0  14         0.0003838307
              0  11        -0.0003348324
              0  17         0.0002309100
              0  20         0.0001096520

    Largest TIJAB Amplitudes:
      1   0  86   3         0.0182927612
      1   0  89   3         0.0176070216
      1   0  89  11        -0.0140557150
      1   0  66  47         0.0140278953
      1   0 105  25         0.0140278953
      1   0  86  11        -0.0121709629
      1   0  65  47         0.0111341072
      1   0 104  25         0.0111341072
      1   0  86   0        -0.0107151580
      1   0  67  47         0.0103958936

    Largest TIjAb Amplitudes:
      0   0  66  66         0.1011564381
      0   0 105 106         0.1011564381
      0   0  65  66         0.0814174681
      0   0 104 106         0.0814174681
      0   0  66  67         0.0750163823
      0   0 105 107         0.0750163823
      0   0  67  66         0.0738537581
      0   0 106 106         0.0738537581
      0   0  66  65         0.0664352096
      0   0 105 105         0.0664352096

    SCF energy       (wfn)                    =  -24.533130352916963
    Reference energy (file100)                =  -24.533130352917052

    Opposite-spin MP2 correlation energy      =   -0.044855296959734
    Same-spin MP2 correlation energy          =   -0.003491577759596
    MP2 correlation energy                    =   -0.048346874719337
      * MP2 total energy                      =  -24.581477227636388

    Opposite-spin CCSD correlation energy     =   -0.063042257435807
    Same-spin CCSD correlation energy         =   -0.003926493573890
    CCSD correlation energy                   =   -0.066968750341187
      * CCSD total energy                     =  -24.600099103258238


*** tstop() called on cqc05 at Fri Aug 21 06:47:20 2020
Module time:
	user time   =       1.00 seconds =       0.02 minutes
	system time =       1.14 seconds =       0.02 minutes
	total time  =          3 seconds =       0.05 minutes
Total time:
	user time   =       9.40 seconds =       0.16 minutes
	system time =       2.65 seconds =       0.04 minutes
	total time  =         13 seconds =       0.22 minutes

*** Psi4 exiting successfully. Buy a developer a beer!
