
    -----------------------------------------------------------------------
          Psi4: An Open-Source Ab Initio Electronic Structure Package
                               Psi4 1.4a3.dev88 

                         Git: Rev {master} 262e345 


    D. G. A. Smith, L. A. Burns, A. C. Simmonett, R. M. Parrish,
    M. C. Schieber, R. Galvelis, P. Kraus, H. Kruse, R. Di Remigio,
    A. Alenaizan, A. M. James, S. Lehtola, J. P. Misiewicz, M. Scheurer,
    R. A. Shaw, J. B. Schriber, Y. Xie, Z. L. Glick, D. A. Sirianni,
    J. S. O'Brien, J. M. Waldrop, A. Kumar, E. G. Hohenstein,
    B. P. Pritchard, B. R. Brooks, H. F. Schaefer III, A. Yu. Sokolov,
    K. Patkowski, A. E. DePrince III, U. Bozkaya, R. A. King,
    F. A. Evangelista, J. M. Turney, T. D. Crawford, C. D. Sherrill,
    J. Chem. Phys. 152(18) 184108 (2020). https://doi.org/10.1063/5.0006002

                            Additional Code Authors
    E. T. Seidl, C. L. Janssen, E. F. Valeev, M. L. Leininger,
    J. F. Gonthier, R. M. Richard, H. R. McAlexander, M. Saitow, X. Wang,
    P. Verma, and M. H. Lechner

             Previous Authors, Complete List of Code Contributors,
                       and Citations for Specific Modules
    https://github.com/psi4/psi4/blob/master/codemeta.json
    https://github.com/psi4/psi4/graphs/contributors
    http://psicode.org/psi4manual/master/introduction.html#citing-psifour

    -----------------------------------------------------------------------


    Psi4 started on: Tuesday, 26 January 2021 06:26PM

    Process ID: 409508
    Host:       n412-040.vsc4.prov
    PSIDATADIR: /home/fs71337/gallo4/psi4/eri-6/psi4/build/stage/share/psi4
    Memory:     500.0 MiB
    Threads:    48
    
  ==> Input File <==

--------------------------------------------------------------------------
# Any line starting with the # character is a comment line
memory 250000 mb
molecule molecule{
0 2
P          0.0000000000        0.0000000000        0.0599907894
H          0.0000000000       -1.0156462266       -0.9217514498
H          0.0000000000        1.0156462266       -0.9217514498
}

set {
  reference uhf
  basis aug-cc-pV(t+d)Z
  scf_type OUT_OF_CORE
  freeze_core true
}

energy('ccsd(t)')
--------------------------------------------------------------------------

  Memory set to 232.831 GiB by Python driver.

Scratch directory: /binfl/lv71337/airmler/temp/

*** tstart() called on n412-040.vsc4.prov
*** at Tue Jan 26 18:26:51 2021

   => Loading Basis Set <=

    Name: AUG-CC-PV(T+D)Z
    Role: ORBITAL
    Keyword: BASIS
    atoms 1   entry P          line   860 file /home/fs71337/gallo4/psi4/eri-6/psi4/build/stage/share/psi4/basis/aug-cc-pv_tpd_z.gbs 
    atoms 2-3 entry H          line    68 file /home/fs71337/gallo4/psi4/eri-6/psi4/build/stage/share/psi4/basis/aug-cc-pv_tpd_z.gbs 


         ---------------------------------------------------------
                                   SCF
               by Justin Turney, Rob Parrish, Andy Simmonett
                          and Daniel G. A. Smith
                              UHF Reference
                       48 Threads, 238418 MiB Core
         ---------------------------------------------------------

  ==> Geometry <==

    Molecular point group: c2v
    Full point group: C2v

    Geometry (in Angstrom), charge = 0, multiplicity = 2:

       Center              X                  Y                   Z               Mass       
    ------------   -----------------  -----------------  -----------------  -----------------
         P            0.000000000000     0.000000000000     0.059984361163    30.973761998420
         H            0.000000000000    -1.015646226600    -0.921757878037     1.007825032230
         H           -0.000000000000     1.015646226600    -0.921757878037     1.007825032230

  Running in c2v symmetry.

  Rotational constants: A =      9.24202  B =      8.10768  C =      4.31888 [cm^-1]
  Rotational constants: A = 277068.86629  B = 243062.04297  C = 129476.87493 [MHz]
  Nuclear repulsion =   11.499114572938225

  Charge       = 0
  Multiplicity = 2
  Electrons    = 17
  Nalpha       = 9
  Nbeta        = 8

  ==> Algorithm <==

  SCF Algorithm Type is OUT_OF_CORE.
  DIIS enabled.
  MOM disabled.
  Fractional occupation disabled.
  Guess Type is SAD.
  Energy threshold   = 1.00e-08
  Density threshold  = 1.00e-08
  Integral threshold = 1.00e-12

  ==> Primary Basis <==

  Basis Set: AUG-CC-PV(T+D)Z
    Blend: AUG-CC-PV(T+D)Z
    Number of shells: 35
    Number of basis function: 101
    Number of Cartesian functions: 115
    Spherical Harmonics?: true
    Max angular momentum: 3

  ==> Integral Setup <==

  ==> DiskJK: Disk-Based J/K Matrices <==

    J tasked:                  Yes
    K tasked:                  Yes
    wK tasked:                  No
    Memory [MiB]:           178813
    Schwarz Cutoff:          1E-12

  Minimum eigenvalue in the overlap matrix is 1.8597028396E-04.
  Reciprocal condition number of the overlap matrix is 3.3295693502E-05.
    Using symmetric orthogonalization.

  ==> Pre-Iterations <==

  SCF Guess: Superposition of Atomic Densities via on-the-fly atomic UHF (no occupation information).


 WARNING: Atomic UHF is not converging! Try casting from a smaller basis or call Rob at CCMST.

 WARNING: Atomic UHF is not converging! Try casting from a smaller basis or call Rob at CCMST.
   -------------------------
    Irrep   Nso     Nmo    
   -------------------------
     A1        39      39 
     A2        13      13 
     B1        20      20 
     B2        29      29 
   -------------------------
    Total     101     101
   -------------------------

  ==> Iterations <==

                        Total Energy        Delta E     RMS |[F,P]|

   @UHF iter SAD:  -335.11463314659920   -3.35115e+02   0.00000e+00 
   @UHF iter   1:  -341.72278212528624   -6.60815e+00   8.69702e-03 DIIS
   @UHF iter   2:  -341.88320907614332   -1.60427e-01   2.34903e-03 DIIS
   @UHF iter   3:  -341.88869892254769   -5.48985e-03   3.81797e-04 DIIS
   @UHF iter   4:  -341.88929018820545   -5.91266e-04   1.54768e-04 DIIS
   @UHF iter   5:  -341.88942192325010   -1.31735e-04   4.88944e-05 DIIS
   @UHF iter   6:  -341.88943769381137   -1.57706e-05   1.75656e-05 DIIS
   @UHF iter   7:  -341.88944005980034   -2.36599e-06   4.93507e-06 DIIS
   @UHF iter   8:  -341.88944022624833   -1.66448e-07   1.19535e-06 DIIS
   @UHF iter   9:  -341.88944023461426   -8.36593e-09   4.77222e-07 DIIS
   @UHF iter  10:  -341.88944023644785   -1.83360e-09   1.99181e-07 DIIS
   @UHF iter  11:  -341.88944023686270   -4.14843e-10   6.19854e-08 DIIS
   @UHF iter  12:  -341.88944023689675   -3.40492e-11   2.03228e-08 DIIS
   @UHF iter  13:  -341.88944023689982   -3.06954e-12   3.77716e-09 DIIS
  Energy and wave function converged.


  ==> Post-Iterations <==

   @Spin Contamination Metric:   2.049555906E-02
   @S^2 Expected:                7.500000000E-01
   @S^2 Observed:                7.704955591E-01
   @S   Expected:                5.000000000E-01
   @S   Observed:                5.000000000E-01

    Orbital Energies [Eh]
    ---------------------

    Alpha Occupied:                                                       

       1A1   -79.957522     2A1    -7.500287     1B1    -5.404752  
       1B2    -5.390826     3A1    -5.389333     4A1    -0.857272  
       2B2    -0.526317     5A1    -0.430665     2B1    -0.376707  

    Alpha Virtual:                                                        

       6A1     0.029899     3B2     0.053320     7A1     0.081242  
       3B1     0.084953     4B2     0.092231     8A1     0.139821  
       5B2     0.168335     9A1     0.170091     1A2     0.195632  
       4B1     0.198864    10A1     0.200378     6B2     0.278517  
      11A1     0.302821     7B2     0.315552    12A1     0.317552  
       2A2     0.332189     5B1     0.333267     8B2     0.356436  
      13A1     0.360066     6B1     0.509336    14A1     0.515550  
       9B2     0.537538    15A1     0.546830     3A2     0.548506  
       7B1     0.556318    16A1     0.569764     8B1     0.646473  
      10B2     0.692267    17A1     0.694805    11B2     0.740658  
      18A1     0.755550     9B1     0.756484     4A2     0.764191  
      12B2     0.765830    19A1     0.870000    20A1     0.945571  
      13B2     0.962737    14B2     0.999189     5A2     1.013685  
      10B1     1.016071    21A1     1.022374     6A2     1.074563  
      11B1     1.086617    22A1     1.119924    15B2     1.207931  
      16B2     1.234861    23A1     1.400044     7A2     1.511073  
      17B2     1.511323    12B1     1.520322    24A1     1.553009  
      25A1     1.592494     8A2     1.606967    13B1     1.614531  
      18B2     1.639372    26A1     1.657521    27A1     1.866916  
      14B1     1.873361    19B2     1.876726    15B1     1.986856  
      28A1     2.090741    20B2     2.122506     9A2     2.195732  
      29A1     2.312409    21B2     2.331239    16B1     2.537102  
      30A1     2.703401    22B2     2.905727    31A1     3.323493  
      23B2     3.458544    10A2     3.897710    24B2     3.951455  
      32A1     3.966882    17B1     4.035848    25B2     4.158289  
      18B1     4.189309    11A2     4.213221    33A1     4.389707  
      19B1     4.427961    12A2     4.468756    34A1     4.470374  
      26B2     4.495449    35A1     4.538990    27B2     4.604976  
      36A1     4.724695    28B2     5.163626    37A1     5.808189  
      20B1     6.298493    13A2     6.302082    38A1     6.420672  
      29B2     7.442197    39A1     7.669058  

    Beta Occupied:                                                        

       1A1   -79.950410     2A1    -7.491846     1B2    -5.386021  
       3A1    -5.386012     1B1    -5.371866     4A1    -0.789161  
       2B2    -0.520451     5A1    -0.408442  

    Beta Virtual:                                                         

       2B1     0.021211     6A1     0.031364     3B2     0.053551  
       7A1     0.082691     4B2     0.092861     3B1     0.117519  
       8A1     0.145321     5B2     0.171898     9A1     0.196122  
      10A1     0.204424     1A2     0.216805     4B1     0.219139  
       6B2     0.278347    11A1     0.307149     7B2     0.317012  
      12A1     0.321045     2A2     0.334505     5B1     0.344884  
       8B2     0.359904    13A1     0.378067    14A1     0.537496  
       9B2     0.544647    15A1     0.557236     6B1     0.567103  
      16A1     0.584990     3A2     0.600990     7B1     0.606396  
       8B1     0.657084    10B2     0.698151    17A1     0.713532  
      11B2     0.738883    18A1     0.761547     4A2     0.774008  
       9B1     0.775517    12B2     0.776067    19A1     0.878226  
      20A1     0.953278    13B2     0.967349    14B2     1.000198  
       5A2     1.016583    10B1     1.018642    21A1     1.032975  
       6A2     1.081666    11B1     1.093920    22A1     1.120422  
      15B2     1.211483    16B2     1.235514    23A1     1.418949  
      17B2     1.511971     7A2     1.523273    12B1     1.541084  
      24A1     1.565362    25A1     1.601890     8A2     1.633002  
      13B1     1.639646    18B2     1.643337    26A1     1.661597  
      27A1     1.893862    14B1     1.896947    19B2     1.906473  
      15B1     2.028262    28A1     2.099520    20B2     2.125005  
       9A2     2.214828    29A1     2.314546    21B2     2.334548  
      16B1     2.577989    30A1     2.706688    22B2     2.910249  
      31A1     3.324414    23B2     3.459597    10A2     3.898186  
      24B2     3.951875    32A1     3.967183    17B1     4.036786  
      25B2     4.157443    18B1     4.192903    11A2     4.216796  
      33A1     4.388332    19B1     4.427993    12A2     4.468579  
      34A1     4.469770    26B2     4.493252    35A1     4.538710  
      27B2     4.604136    36A1     4.729236    28B2     5.163528  
      37A1     5.821355    20B1     6.307153    13A2     6.311214  
      38A1     6.422490    29B2     7.445780    39A1     7.676061  

    Final Occupation by Irrep:
             A1    A2    B1    B2 
    DOCC [     5,    0,    1,    2 ]
    SOCC [     0,    0,    1,    0 ]

  @UHF Final Energy:  -341.88944023689982

   => Energetics <=

    Nuclear Repulsion Energy =             11.4991145729382254
    One-Electron Energy =                -495.6392171833134626
    Two-Electron Energy =                 142.2506623734754498
    Total Energy =                       -341.8894402368998158

  UHF NO Occupations:
  HONO-2 :    2 B2 1.9993688
  HONO-1 :    5 A1 1.9907602
  HONO-0 :    2 B1 1.0000000
  LUNO+0 :    6 A1 0.0092398
  LUNO+1 :    3 B2 0.0006312
  LUNO+2 :    7 A1 0.0004162
  LUNO+3 :    3 B1 0.0000032


Computation Completed


Properties will be evaluated at   0.000000,   0.000000,   0.000000 [a0]

Properties computed using the SCF density matrix

  Nuclear Dipole Moment: [e a0]
     X:     0.0000      Y:     0.0000      Z:    -1.7834

  Electronic Dipole Moment: [e a0]
     X:     0.0000      Y:     0.0000      Z:     1.5274

  Dipole Moment: [e a0]
     X:     0.0000      Y:     0.0000      Z:    -0.2560     Total:     0.2560

  Dipole Moment: [D]
     X:     0.0000      Y:     0.0000      Z:    -0.6508     Total:     0.6508


*** tstop() called on n412-040.vsc4.prov at Tue Jan 26 18:26:59 2021
Module time:
	user time   =      36.12 seconds =       0.60 minutes
	system time =       2.54 seconds =       0.04 minutes
	total time  =          8 seconds =       0.13 minutes
Total time:
	user time   =      36.12 seconds =       0.60 minutes
	system time =       2.54 seconds =       0.04 minutes
	total time  =          8 seconds =       0.13 minutes

*** tstart() called on n412-040.vsc4.prov
*** at Tue Jan 26 18:26:59 2021


	Wfn Parameters:
	--------------------
	Wavefunction         = CCSD_T
	Number of irreps     = 4
	Number of MOs        = 101
	Number of active MOs = 96
	AO-Basis             = NONE
	Semicanonical        = false
	Reference            = UHF
	Print Level          = 1

	IRREP	# MOs	# FZDC	# DOCC	# SOCC	# VIRT	# FZVR
	-----	-----	------	------	------	------	------
	 A1	   39	    3	    2	    0	    34	    0
	 A2	   13	    0	    0	    0	    13	    0
	 B1	   20	    1	    0	    1	    18	    0
	 B2	   29	    1	    1	    0	    27	    0
	Transforming integrals...
	IWL integrals will be deleted.
	(OO|OO)...
	Presorting SO-basis two-electron integrals.
	Sorting File: SO Ints (nn|nn) nbuckets = 1
	Constructing frozen core operators
	Starting AA/AB first half-transformation.
	Sorting AA/AB half-transformed integrals.
	Starting BB first half-transformation.
	Sorting BB half-transformed integrals.
	First half integral transformation complete.
	Starting AA second half-transformation.
	Starting AB second half-transformation.
	Starting BB second half-transformation.
	Two-electron integral transformation complete.
	(OO|OV)...
	Starting AA second half-transformation.
	Starting AB second half-transformation.
	Starting BB second half-transformation.
	Two-electron integral transformation complete.
	(OO|VV)...
	Starting AA second half-transformation.
	Starting AB second half-transformation.
	Starting BB second half-transformation.
	Two-electron integral transformation complete.
	(OV|OO)...
	Starting AA/AB first half-transformation.
	Sorting AA/AB half-transformed integrals.
	Starting BB first half-transformation.
	Sorting BB half-transformed integrals.
	First half integral transformation complete.
	Starting AA second half-transformation.
	Starting AB second half-transformation.
	Starting BB second half-transformation.
	Two-electron integral transformation complete.
	(OV|OV)...
	Starting AA second half-transformation.
	Starting AB second half-transformation.
	Starting BB second half-transformation.
	Two-electron integral transformation complete.
	(OV|VV)...
	Starting AA second half-transformation.
	Starting AB second half-transformation.
	Starting BB second half-transformation.
	Two-electron integral transformation complete.
	(VV|OO)...
	Starting AA/AB first half-transformation.
	Sorting AA/AB half-transformed integrals.
	Starting BB first half-transformation.
	Sorting BB half-transformed integrals.
	First half integral transformation complete.
	Starting AA second half-transformation.
	Starting AB second half-transformation.
	Starting BB second half-transformation.
	Two-electron integral transformation complete.
	(VV|OV)...
	Starting AA second half-transformation.
	Starting AB second half-transformation.
	Starting BB second half-transformation.
	Two-electron integral transformation complete.
	(VV|VV)...
	Starting AA second half-transformation.
	Starting AB second half-transformation.
	Starting BB second half-transformation.
	Two-electron integral transformation complete.
	Frozen core energy     =   -341.85323455974162

	Size of irrep 0 of <AB|CD> integrals:      1.306 (MW) /     10.452 (MB)
	Size of irrep 1 of <AB|CD> integrals:      0.861 (MW) /      6.889 (MB)
	Size of irrep 2 of <AB|CD> integrals:      0.927 (MW) /      7.419 (MB)
	Size of irrep 3 of <AB|CD> integrals:      1.327 (MW) /     10.617 (MB)
	Total:                                     4.422 (MW) /     35.377 (MB)

	Size of irrep 0 of <ab|cd> integrals:      1.348 (MW) /     10.783 (MB)
	Size of irrep 1 of <ab|cd> integrals:      0.912 (MW) /      7.296 (MB)
	Size of irrep 2 of <ab|cd> integrals:      0.994 (MW) /      7.952 (MB)
	Size of irrep 3 of <ab|cd> integrals:      1.357 (MW) /     10.858 (MB)
	Total:                                     4.611 (MW) /     36.889 (MB)

	Size of irrep 0 of <Ab|Cd> integrals:      5.741 (MW) /     45.927 (MB)
	Size of irrep 1 of <Ab|Cd> integrals:      3.546 (MW) /     28.366 (MB)
	Size of irrep 2 of <Ab|Cd> integrals:      3.842 (MW) /     30.733 (MB)
	Size of irrep 3 of <Ab|Cd> integrals:      5.368 (MW) /     42.948 (MB)
	Total:                                    18.497 (MW) /    147.973 (MB)

	Size of irrep 0 of <IA|BC> integrals:      0.269 (MW) /      2.150 (MB)
	Size of irrep 1 of <IA|BC> integrals:      0.132 (MW) /      1.054 (MB)
	Size of irrep 2 of <IA|BC> integrals:      0.160 (MW) /      1.279 (MB)
	Size of irrep 3 of <IA|BC> integrals:      0.233 (MW) /      1.862 (MB)
	Total:                                     0.793 (MW) /      6.344 (MB)

	Size of irrep 0 of <ia|bc> integrals:      0.229 (MW) /      1.835 (MB)
	Size of irrep 1 of <ia|bc> integrals:      0.086 (MW) /      0.688 (MB)
	Size of irrep 2 of <ia|bc> integrals:      0.102 (MW) /      0.814 (MB)
	Size of irrep 3 of <ia|bc> integrals:      0.205 (MW) /      1.640 (MB)
	Total:                                     0.622 (MW) /      4.977 (MB)

	Size of irrep 0 of <Ia|Bc> integrals:      0.273 (MW) /      2.185 (MB)
	Size of irrep 1 of <Ia|Bc> integrals:      0.136 (MW) /      1.085 (MB)
	Size of irrep 2 of <Ia|Bc> integrals:      0.167 (MW) /      1.333 (MB)
	Size of irrep 3 of <Ia|Bc> integrals:      0.234 (MW) /      1.872 (MB)
	Total:                                     0.809 (MW) /      6.475 (MB)

	Size of irrep 0 of <iA|bC> integrals:      0.228 (MW) /      1.821 (MB)
	Size of irrep 1 of <iA|bC> integrals:      0.083 (MW) /      0.663 (MB)
	Size of irrep 2 of <iA|bC> integrals:      0.096 (MW) /      0.768 (MB)
	Size of irrep 3 of <iA|bC> integrals:      0.204 (MW) /      1.631 (MB)
	Total:                                     0.610 (MW) /      4.883 (MB)

	Size of irrep 0 of tIjAb amplitudes:       0.012 (MW) /      0.096 (MB)
	Size of irrep 1 of tIjAb amplitudes:       0.002 (MW) /      0.015 (MB)
	Size of irrep 2 of tIjAb amplitudes:       0.004 (MW) /      0.031 (MB)
	Size of irrep 3 of tIjAb amplitudes:       0.009 (MW) /      0.074 (MB)
	Total:                                     0.027 (MW) /      0.216 (MB)

	Nuclear Rep. energy          =     11.49911457293823
	SCF energy                   =   -341.88944023689982
	One-electron energy          =    -19.16162533089017
	Two-electron (AA) energy     =      1.93533594565259
	Two-electron (BB) energy     =      0.92247573498169
	Two-electron (AB) energy     =      4.76849340015892
	Two-electron energy          =      7.62630508079319
	Reference energy             =   -341.88944023690038

*** tstop() called on n412-040.vsc4.prov at Tue Jan 26 18:27:11 2021
Module time:
	user time   =       3.03 seconds =       0.05 minutes
	system time =       1.58 seconds =       0.03 minutes
	total time  =         12 seconds =       0.20 minutes
Total time:
	user time   =      39.15 seconds =       0.65 minutes
	system time =       4.12 seconds =       0.07 minutes
	total time  =         20 seconds =       0.33 minutes
            **************************
            *                        *
            *        CCENERGY        *
            *                        *
            **************************

    Nuclear Rep. energy (wfn)     =   11.499114572938225
    SCF energy          (wfn)     = -341.889440236899816
    Reference energy    (file100) = -341.889440236900384

    Input parameters:
    -----------------
    Wave function   =     CCSD_T
    Reference wfn   =     UHF
    Brueckner       =     No
    Memory (Mbytes) =     250000.0
    Maxiter         =     50
    R_Convergence   =     1.0e-07
    E_Convergence   =     1.0e-06
    Restart         =     Yes
    DIIS            =     Yes
    AO Basis        =     NONE
    ABCD            =     NEW
    Cache Level     =     2
    Cache Type      =     LRU
    Print Level     =     1
    Num. of threads =     48
    # Amps to Print =     10
    Print MP2 Amps? =     No
    Analyze T2 Amps =     No
    Print Pair Ener =     No
    Local CC        =     No
    SCS-MP2         =     False
    SCSN-MP2        =     False
    SCS-CCSD        =     False

MP2 correlation energy -0.1397109846850021
                Solving CC Amplitude Equations
                ------------------------------
  Iter             Energy              RMS        T1Diag      D1Diag    New D1Diag    D2Diag
  ----     ---------------------    ---------   ----------  ----------  ----------   --------
     0        -0.139710984685002    0.000e+00    0.000000    0.000000    0.000000    0.000000
     1        -0.158672264737994    5.655e-02    0.011600    0.000000    0.000000    0.000000
