
    -----------------------------------------------------------------------
          Psi4: An Open-Source Ab Initio Electronic Structure Package
                               Psi4 1.4a3.dev88 

                         Git: Rev {master} 262e345 


    D. G. A. Smith, L. A. Burns, A. C. Simmonett, R. M. Parrish,
    M. C. Schieber, R. Galvelis, P. Kraus, H. Kruse, R. Di Remigio,
    A. Alenaizan, A. M. James, S. Lehtola, J. P. Misiewicz, M. Scheurer,
    R. A. Shaw, J. B. Schriber, Y. Xie, Z. L. Glick, D. A. Sirianni,
    J. S. O'Brien, J. M. Waldrop, A. Kumar, E. G. Hohenstein,
    B. P. Pritchard, B. R. Brooks, H. F. Schaefer III, A. Yu. Sokolov,
    K. Patkowski, A. E. DePrince III, U. Bozkaya, R. A. King,
    F. A. Evangelista, J. M. Turney, T. D. Crawford, C. D. Sherrill,
    J. Chem. Phys. 152(18) 184108 (2020). https://doi.org/10.1063/5.0006002

                            Additional Code Authors
    E. T. Seidl, C. L. Janssen, E. F. Valeev, M. L. Leininger,
    J. F. Gonthier, R. M. Richard, H. R. McAlexander, M. Saitow, X. Wang,
    P. Verma, and M. H. Lechner

             Previous Authors, Complete List of Code Contributors,
                       and Citations for Specific Modules
    https://github.com/psi4/psi4/blob/master/codemeta.json
    https://github.com/psi4/psi4/graphs/contributors
    http://psicode.org/psi4manual/master/introduction.html#citing-psifour

    -----------------------------------------------------------------------


    Psi4 started on: Wednesday, 20 January 2021 10:09PM

    Process ID: 147596
    Host:       n412-041.vsc4.prov
    PSIDATADIR: /home/fs71337/gallo4/psi4/psi4/build/stage/share/psi4
    Memory:     500.0 MiB
    Threads:    48
    
  ==> Input File <==

--------------------------------------------------------------------------
# Any line starting with the # character is a comment line
memory 250000 mb
molecule molecule{
0 4
N          0.0000000000        0.0000000000        0.0000000000
}

set {
  reference uhf
  basis aug-cc-pv(5+d)z
  scf_type OUT_OF_CORE
  freeze_core true
}

energy('ccsd(t)')
--------------------------------------------------------------------------

  Memory set to 232.831 GiB by Python driver.

Scratch directory: /binfl/lv71337/airmler/temp/

*** tstart() called on n412-041.vsc4.prov
*** at Wed Jan 20 22:09:02 2021

   => Loading Basis Set <=

    Name: AUG-CC-PV(5+D)Z
    Role: ORBITAL
    Keyword: BASIS
    atoms 1 entry N          line   491 file /home/fs71337/gallo4/psi4/psi4/build/stage/share/psi4/basis/aug-cc-pv_5pd_z.gbs 


         ---------------------------------------------------------
                                   SCF
               by Justin Turney, Rob Parrish, Andy Simmonett
                          and Daniel G. A. Smith
                              UHF Reference
                       48 Threads, 238418 MiB Core
         ---------------------------------------------------------

  ==> Geometry <==

    Molecular point group: d2h
    Geometry (in Angstrom), charge = 0, multiplicity = 4:

       Center              X                  Y                   Z               Mass       
    ------------   -----------------  -----------------  -----------------  -----------------
         N            0.000000000000     0.000000000000     0.000000000000    14.003074004430

  Running in d2h symmetry.

  Rotational constants: A = ************  B = ************  C = ************ [cm^-1]
  Rotational constants: A = ************  B = ************  C = ************ [MHz]
  Nuclear repulsion =    0.000000000000000

  Charge       = 0
  Multiplicity = 4
  Electrons    = 7
  Nalpha       = 5
  Nbeta        = 2

  ==> Algorithm <==

  SCF Algorithm Type is OUT_OF_CORE.
  DIIS enabled.
  MOM disabled.
  Fractional occupation disabled.
  Guess Type is CORE.
  Energy threshold   = 1.00e-08
  Density threshold  = 1.00e-08
  Integral threshold = 1.00e-12

  ==> Primary Basis <==

  Basis Set: AUG-CC-PV(5+D)Z
    Blend: AUG-CC-PV(5+D)Z
    Number of shells: 27
    Number of basis function: 127
    Number of Cartesian functions: 182
    Spherical Harmonics?: true
    Max angular momentum: 5

  ==> Integral Setup <==

  ==> DiskJK: Disk-Based J/K Matrices <==

    J tasked:                  Yes
    K tasked:                  Yes
    wK tasked:                  No
    Memory [MiB]:           178813
    Schwarz Cutoff:          1E-12

  Minimum eigenvalue in the overlap matrix is 1.6155142444E-03.
  Reciprocal condition number of the overlap matrix is 4.1026188565E-04.
    Using symmetric orthogonalization.

  ==> Pre-Iterations <==

  SCF Guess: Core (One-Electron) Hamiltonian.

   -------------------------------------------------------
    Irrep   Nso     Nmo     Nalpha   Nbeta   Ndocc  Nsocc
   -------------------------------------------------------
     Ag        26      26       2       1       1       1
     B1g       11      11       0       0       0       0
     B2g       11      11       0       0       0       0
     B3g       11      11       0       0       0       0
     Au         8       8       0       0       0       0
     B1u       20      20       1       0       0       1
     B2u       20      20       1       0       0       1
     B3u       20      20       1       1       1       0
   -------------------------------------------------------
    Total     127     127       5       2       2       3
   -------------------------------------------------------

  ==> Iterations <==

                        Total Energy        Delta E     RMS |[F,P]|

    Occupation by irrep:
             Ag   B1g   B2g   B3g    Au   B1u   B2u   B3u 
    DOCC [     2,    0,    0,    0,    0,    0,    0,    0 ]
    SOCC [     0,    0,    0,    0,    0,    1,    1,    1 ]

   @UHF iter   1:   -48.17668211594128   -4.81767e+01   1.20315e-01 DIIS
   @UHF iter   2:   -50.28606737543049   -2.10939e+00   3.01047e-02 DIIS
   @UHF iter   3:   -53.96246460972669   -3.67640e+00   2.16003e-02 DIIS
   @UHF iter   4:   -54.33766177843051   -3.75197e-01   7.42140e-03 DIIS
   @UHF iter   5:   -54.40358158627168   -6.59198e-02   6.32113e-04 DIIS
   @UHF iter   6:   -54.40440709896063   -8.25513e-04   1.44203e-04 DIIS
   @UHF iter   7:   -54.40446536559101   -5.82666e-05   3.58508e-05 DIIS
   @UHF iter   8:   -54.40446907918903   -3.71360e-06   1.70264e-06 DIIS
   @UHF iter   9:   -54.40446908420616   -5.01714e-09   2.25511e-07 DIIS
   @UHF iter  10:   -54.40446908429156   -8.54001e-11   1.66898e-08 DIIS
   @UHF iter  11:   -54.40446908429229   -7.31859e-13   3.19079e-09 DIIS
  Energy and wave function converged.


  ==> Post-Iterations <==

   @Spin Contamination Metric:   7.904091560E-03
   @S^2 Expected:                3.750000000E+00
   @S^2 Observed:                3.757904092E+00
   @S   Expected:                1.500000000E+00
   @S   Observed:                1.500000000E+00

    Orbital Energies [Eh]
    ---------------------

    Alpha Occupied:                                                       

       1Ag   -15.670741     2Ag    -1.162980     1B3u   -0.570924  
       1B1u   -0.570924     1B2u   -0.570924  

    Alpha Virtual:                                                        

       2B3u    0.088430     2B1u    0.088430     2B2u    0.088430  
       3Ag     0.095616     1B3g    0.296872     4Ag     0.296872  
       1B1g    0.296872     1B2g    0.296872     5Ag     0.296872  
       3B3u    0.400054     3B1u    0.400054     3B2u    0.400054  
       6Ag     0.562675     4B3u    0.782051     4B2u    0.782051  
       4B1u    0.782051     5B3u    0.782051     1Au     0.782051  
       5B1u    0.782051     5B2u    0.782051     7Ag     0.932403  
       2B3g    0.932403     2B2g    0.932403     2B1g    0.932403  
       8Ag     0.932403     6B3u    1.323180     6B2u    1.323180  
       6B1u    1.323180     9Ag     2.154059     3B2g    2.154059  
       3B1g    2.154059    10Ag     2.154059     3B3g    2.154059  
       4B2g    2.154059     4B1g    2.154059    11Ag     2.154059  
       4B3g    2.154059    12Ag     2.204844     7B1u    2.297816  
       7B2u    2.297816     2Au     2.297816     7B3u    2.297816  
       8B2u    2.297816     8B1u    2.297816     8B3u    2.297816  
      13Ag     2.467658     5B2g    2.467658     5B1g    2.467658  
      14Ag     2.467658     5B3g    2.467658     9B3u    3.829372  
       9B2u    3.829372     9B1u    3.829372    10B3u    4.730927  
      10B2u    4.730927    10B1u    4.730927     3Au     4.730927  
      11B3u    4.730927    11B2u    4.730927    11B1u    4.730927  
       4Au     4.730927    12B3u    4.730927    12B1u    4.730927  
      12B2u    4.730927    15Ag     5.645989     6B3g    5.645989  
       6B1g    5.645989     6B2g    5.645989    16Ag     5.645989  
       7B3g    5.645989     7B1g    5.645989     7B2g    5.645989  
      17Ag     5.645989    13B2u    5.785883    13B1u    5.785883  
       5Au     5.785883    13B3u    5.785883    14B2u    5.785883  
      14B1u    5.785883    14B3u    5.785883    18Ag     6.494440  
       8B2g    6.494440     8B1g    6.494440    19Ag     6.494440  
       8B3g    6.494440    20Ag     7.961800    15B3u   12.177448  
      15B1u   12.177448    15B2u   12.177448    16B1u   12.375181  
      16B2u   12.375181     6Au    12.375181    16B3u   12.375181  
      17B2u   12.375181    17B1u   12.375181     7Au    12.375181  
      17B3u   12.375181    18B2u   12.375181    18B1u   12.375181  
      18B3u   12.375181    19B2u   14.489350    19B1u   14.489350  
       8Au    14.489350    19B3u   14.489350    20B2u   14.489350  
      20B1u   14.489350    20B3u   14.489350    21Ag    14.613715  
       9B3g   14.613715     9B2g   14.613715     9B1g   14.613715  
      22Ag    14.613715    10B3g   14.613715    10B2g   14.613715  
      10B1g   14.613715    23Ag    14.613715    24Ag    17.450903  
      11B3g   17.450903    11B1g   17.450903    11B2g   17.450903  
      25Ag    17.450903    26Ag    46.203574  

    Beta Occupied:                                                        

       1Ag   -15.580972     2Ag    -0.725818  

    Beta Virtual:                                                         

       1B3u    0.063549     1B1u    0.063549     1B2u    0.063549  
       3Ag     0.108801     2B3u    0.166136     2B1u    0.166136  
       2B2u    0.166136     4Ag     0.306822     1B1g    0.306822  
       1B2g    0.306822     5Ag     0.306822     1B3g    0.306822  
       3B1u    0.503112     3B2u    0.503112     3B3u    0.503112  
       6Ag     0.619937     4B3u    0.790772     4B2u    0.790772  
       4B1u    0.790772     5B3u    0.790772     1Au     0.790772  
       5B1u    0.790772     5B2u    0.790772     7Ag     1.008079  
       2B2g    1.008079     2B1g    1.008079     8Ag     1.008079  
       2B3g    1.008079     6B2u    1.449873     6B1u    1.449873  
       6B3u    1.449873     9Ag     2.169798     3B2g    2.169798  
       3B1g    2.169798     3B3g    2.169798    10Ag     2.169798  
       4B2g    2.169798     4B1g    2.169798    11Ag     2.169798  
       4B3g    2.169798    12Ag     2.307653     7B3u    2.345294  
       7B2u    2.345294     7B1u    2.345294     2Au     2.345294  
       8B3u    2.345294     8B1u    2.345294     8B2u    2.345294  
      13Ag     2.609748     5B3g    2.609748     5B2g    2.609748  
       5B1g    2.609748    14Ag     2.609748     9B2u    3.951865  
       9B1u    3.951865     9B3u    3.951865    10B3u    4.752339  
      10B2u    4.752339    10B1u    4.752339     3Au     4.752339  
      11B3u    4.752339    11B2u    4.752339    11B1u    4.752339  
       4Au     4.752339    12B3u    4.752339    12B1u    4.752339  
      12B2u    4.752339    15Ag     5.692335     6B1g    5.692335  
       6B2g    5.692335     6B3g    5.692335    16Ag     5.692335  
       7B1g    5.692335     7B2g    5.692335    17Ag     5.692335  
       7B3g    5.692335    13B2u    5.872465    13B1u    5.872465  
       5Au     5.872465    13B3u    5.872465    14B2u    5.872465  
      14B1u    5.872465    14B3u    5.872465    18Ag     6.626946  
       8B3g    6.626946     8B2g    6.626946     8B1g    6.626946  
      19Ag     6.626946    20Ag     8.057434    15B1u   12.261501  
      15B2u   12.261501    15B3u   12.261501    16B1u   12.420035  
      16B2u   12.420035     6Au    12.420035    16B3u   12.420035  
      17B2u   12.420035    17B1u   12.420035     7Au    12.420035  
      17B3u   12.420035    18B2u   12.420035    18B1u   12.420035  
      18B3u   12.420035    19B2u   14.573965    19B1u   14.573965  
       8Au    14.573965    19B3u   14.573965    20B2u   14.573965  
      20B1u   14.573965    20B3u   14.573965    21Ag    14.680373  
       9B3g   14.680373     9B2g   14.680373     9B1g   14.680373  
      10B3g   14.680373    22Ag    14.680373    10B2g   14.680373  
      10B1g   14.680373    23Ag    14.680373    24Ag    17.534356  
      11B3g   17.534356    11B1g   17.534356    11B2g   17.534356  
      25Ag    17.534356    26Ag    46.240535  

    Final Occupation by Irrep:
             Ag   B1g   B2g   B3g    Au   B1u   B2u   B3u 
    DOCC [     2,    0,    0,    0,    0,    0,    0,    0 ]
    SOCC [     0,    0,    0,    0,    0,    1,    1,    1 ]

  @UHF Final Energy:   -54.40446908429229

   => Energetics <=

    Nuclear Repulsion Energy =              0.0000000000000000
    One-Electron Energy =                 -73.9556558022650279
    Two-Electron Energy =                  19.5511867179727332
    Total Energy =                        -54.4044690842922947

  UHF NO Occupations:
  HONO-2 :    1B3u 1.0000000
  HONO-1 :    1B1u 1.0000000
  HONO-0 :    1B2u 1.0000000
  LUNO+0 :    3 Ag 0.0039555
  LUNO+1 :    4 Ag 0.0000044
  LUNO+2 :    5 Ag 0.0000000
  LUNO+3 :    6 Ag 0.0000000


Computation Completed


Properties will be evaluated at   0.000000,   0.000000,   0.000000 [a0]

Properties computed using the SCF density matrix

  Nuclear Dipole Moment: [e a0]
     X:     0.0000      Y:     0.0000      Z:     0.0000

  Electronic Dipole Moment: [e a0]
     X:     0.0000      Y:     0.0000      Z:     0.0000

  Dipole Moment: [e a0]
     X:     0.0000      Y:     0.0000      Z:     0.0000     Total:     0.0000

  Dipole Moment: [D]
     X:     0.0000      Y:     0.0000      Z:     0.0000     Total:     0.0000


*** tstop() called on n412-041.vsc4.prov at Wed Jan 20 22:09:18 2021
Module time:
	user time   =      28.43 seconds =       0.47 minutes
	system time =       1.15 seconds =       0.02 minutes
	total time  =         16 seconds =       0.27 minutes
Total time:
	user time   =      28.43 seconds =       0.47 minutes
	system time =       1.15 seconds =       0.02 minutes
	total time  =         16 seconds =       0.27 minutes

*** tstart() called on n412-041.vsc4.prov
*** at Wed Jan 20 22:09:18 2021


	Wfn Parameters:
	--------------------
	Wavefunction         = CCSD_T
	Number of irreps     = 8
	Number of MOs        = 127
	Number of active MOs = 126
	AO-Basis             = NONE
	Semicanonical        = false
	Reference            = UHF
	Print Level          = 1

	IRREP	# MOs	# FZDC	# DOCC	# SOCC	# VIRT	# FZVR
	-----	-----	------	------	------	------	------
	 Ag	   26	    1	    1	    0	    24	    0
	 B1g	   11	    0	    0	    0	    11	    0
	 B2g	   11	    0	    0	    0	    11	    0
	 B3g	   11	    0	    0	    0	    11	    0
	 Au	   8	    0	    0	    0	    8	    0
	 B1u	   20	    0	    0	    1	    19	    0
	 B2u	   20	    0	    0	    1	    19	    0
	 B3u	   20	    0	    0	    1	    19	    0
	Transforming integrals...
	IWL integrals will be deleted.
	(OO|OO)...
	Presorting SO-basis two-electron integrals.
	Sorting File: SO Ints (nn|nn) nbuckets = 1
	Constructing frozen core operators
	Starting AA/AB first half-transformation.
	Sorting AA/AB half-transformed integrals.
	Starting BB first half-transformation.
	Sorting BB half-transformed integrals.
	First half integral transformation complete.
	Starting AA second half-transformation.
	Starting AB second half-transformation.
	Starting BB second half-transformation.
	Two-electron integral transformation complete.
	(OO|OV)...
	Starting AA second half-transformation.
	Starting AB second half-transformation.
	Starting BB second half-transformation.
	Two-electron integral transformation complete.
	(OO|VV)...
	Starting AA second half-transformation.
	Starting AB second half-transformation.
	Starting BB second half-transformation.
	Two-electron integral transformation complete.
	(OV|OO)...
	Starting AA/AB first half-transformation.
	Sorting AA/AB half-transformed integrals.
	Starting BB first half-transformation.
	Sorting BB half-transformed integrals.
	First half integral transformation complete.
	Starting AA second half-transformation.
	Starting AB second half-transformation.
	Starting BB second half-transformation.
	Two-electron integral transformation complete.
	(OV|OV)...
	Starting AA second half-transformation.
	Starting AB second half-transformation.
	Starting BB second half-transformation.
	Two-electron integral transformation complete.
	(OV|VV)...
	Starting AA second half-transformation.
	Starting AB second half-transformation.
	Starting BB second half-transformation.
	Two-electron integral transformation complete.
	(VV|OO)...
	Starting AA/AB first half-transformation.
	Sorting AA/AB half-transformed integrals.
	Starting BB first half-transformation.
	Sorting BB half-transformed integrals.
	First half integral transformation complete.
	Starting AA second half-transformation.
	Starting AB second half-transformation.
	Starting BB second half-transformation.
	Two-electron integral transformation complete.
	(VV|OV)...
	Starting AA second half-transformation.
	Starting AB second half-transformation.
	Starting BB second half-transformation.
	Two-electron integral transformation complete.
	(VV|VV)...
	Starting AA second half-transformation.
	Starting AB second half-transformation.
	Starting BB second half-transformation.
	Two-electron integral transformation complete.
	Frozen core energy     =    -44.73337212882234

	Size of irrep 0 of <AB|CD> integrals:      0.964 (MW) /      7.715 (MB)
	Size of irrep 1 of <AB|CD> integrals:      0.806 (MW) /      6.451 (MB)
	Size of irrep 2 of <AB|CD> integrals:      0.806 (MW) /      6.451 (MB)
	Size of irrep 3 of <AB|CD> integrals:      0.806 (MW) /      6.451 (MB)
	Size of irrep 4 of <AB|CD> integrals:      0.671 (MW) /      5.366 (MB)
	Size of irrep 5 of <AB|CD> integrals:      0.925 (MW) /      7.404 (MB)
	Size of irrep 6 of <AB|CD> integrals:      0.925 (MW) /      7.404 (MB)
	Size of irrep 7 of <AB|CD> integrals:      0.925 (MW) /      7.404 (MB)
	Total:                                     6.831 (MW) /     54.645 (MB)

	Size of irrep 0 of <ab|cd> integrals:      1.080 (MW) /      8.636 (MB)
	Size of irrep 1 of <ab|cd> integrals:      0.893 (MW) /      7.144 (MB)
	Size of irrep 2 of <ab|cd> integrals:      0.893 (MW) /      7.144 (MB)
	Size of irrep 3 of <ab|cd> integrals:      0.893 (MW) /      7.144 (MB)
	Size of irrep 4 of <ab|cd> integrals:      0.726 (MW) /      5.807 (MB)
	Size of irrep 5 of <ab|cd> integrals:      1.016 (MW) /      8.129 (MB)
	Size of irrep 6 of <ab|cd> integrals:      1.016 (MW) /      8.129 (MB)
	Size of irrep 7 of <ab|cd> integrals:      1.016 (MW) /      8.129 (MB)
	Total:                                     7.533 (MW) /     60.262 (MB)

	Size of irrep 0 of <Ab|Cd> integrals:      4.592 (MW) /     36.740 (MB)
	Size of irrep 1 of <Ab|Cd> integrals:      3.393 (MW) /     27.144 (MB)
	Size of irrep 2 of <Ab|Cd> integrals:      3.393 (MW) /     27.144 (MB)
	Size of irrep 3 of <Ab|Cd> integrals:      3.393 (MW) /     27.144 (MB)
	Size of irrep 4 of <Ab|Cd> integrals:      2.792 (MW) /     22.338 (MB)
	Size of irrep 5 of <Ab|Cd> integrals:      3.881 (MW) /     31.047 (MB)
	Size of irrep 6 of <Ab|Cd> integrals:      3.881 (MW) /     31.047 (MB)
	Size of irrep 7 of <Ab|Cd> integrals:      3.881 (MW) /     31.047 (MB)
	Total:                                    29.206 (MW) /    233.650 (MB)

	Size of irrep 0 of <IA|BC> integrals:      0.169 (MW) /      1.352 (MB)
	Size of irrep 1 of <IA|BC> integrals:      0.102 (MW) /      0.819 (MB)
	Size of irrep 2 of <IA|BC> integrals:      0.102 (MW) /      0.819 (MB)
	Size of irrep 3 of <IA|BC> integrals:      0.102 (MW) /      0.819 (MB)
	Size of irrep 4 of <IA|BC> integrals:      0.067 (MW) /      0.537 (MB)
	Size of irrep 5 of <IA|BC> integrals:      0.125 (MW) /      1.000 (MB)
	Size of irrep 6 of <IA|BC> integrals:      0.125 (MW) /      1.000 (MB)
	Size of irrep 7 of <IA|BC> integrals:      0.125 (MW) /      1.000 (MB)
	Total:                                     0.918 (MW) /      7.347 (MB)

	Size of irrep 0 of <ia|bc> integrals:      0.053 (MW) /      0.423 (MB)
	Size of irrep 1 of <ia|bc> integrals:      0.021 (MW) /      0.166 (MB)
	Size of irrep 2 of <ia|bc> integrals:      0.021 (MW) /      0.166 (MB)
	Size of irrep 3 of <ia|bc> integrals:      0.021 (MW) /      0.166 (MB)
	Size of irrep 4 of <ia|bc> integrals:      0.014 (MW) /      0.109 (MB)
	Size of irrep 5 of <ia|bc> integrals:      0.040 (MW) /      0.323 (MB)
	Size of irrep 6 of <ia|bc> integrals:      0.040 (MW) /      0.323 (MB)
	Size of irrep 7 of <ia|bc> integrals:      0.040 (MW) /      0.323 (MB)
	Total:                                     0.250 (MW) /      1.999 (MB)

	Size of irrep 0 of <Ia|Bc> integrals:      0.180 (MW) /      1.440 (MB)
	Size of irrep 1 of <Ia|Bc> integrals:      0.109 (MW) /      0.869 (MB)
	Size of irrep 2 of <Ia|Bc> integrals:      0.109 (MW) /      0.869 (MB)
	Size of irrep 3 of <Ia|Bc> integrals:      0.109 (MW) /      0.869 (MB)
	Size of irrep 4 of <Ia|Bc> integrals:      0.069 (MW) /      0.548 (MB)
	Size of irrep 5 of <Ia|Bc> integrals:      0.130 (MW) /      1.040 (MB)
	Size of irrep 6 of <Ia|Bc> integrals:      0.130 (MW) /      1.040 (MB)
	Size of irrep 7 of <Ia|Bc> integrals:      0.130 (MW) /      1.040 (MB)
	Total:                                     0.965 (MW) /      7.717 (MB)

	Size of irrep 0 of <iA|bC> integrals:      0.051 (MW) /      0.411 (MB)
	Size of irrep 1 of <iA|bC> integrals:      0.020 (MW) /      0.162 (MB)
	Size of irrep 2 of <iA|bC> integrals:      0.020 (MW) /      0.162 (MB)
	Size of irrep 3 of <iA|bC> integrals:      0.020 (MW) /      0.162 (MB)
	Size of irrep 4 of <iA|bC> integrals:      0.013 (MW) /      0.107 (MB)
	Size of irrep 5 of <iA|bC> integrals:      0.037 (MW) /      0.299 (MB)
	Size of irrep 6 of <iA|bC> integrals:      0.037 (MW) /      0.299 (MB)
	Size of irrep 7 of <iA|bC> integrals:      0.037 (MW) /      0.299 (MB)
	Total:                                     0.238 (MW) /      1.903 (MB)

	Size of irrep 0 of tIjAb amplitudes:       0.002 (MW) /      0.017 (MB)
	Size of irrep 1 of tIjAb amplitudes:       0.000 (MW) /      0.000 (MB)
	Size of irrep 2 of tIjAb amplitudes:       0.000 (MW) /      0.000 (MB)
	Size of irrep 3 of tIjAb amplitudes:       0.000 (MW) /      0.000 (MB)
	Size of irrep 4 of tIjAb amplitudes:       0.000 (MW) /      0.000 (MB)
	Size of irrep 5 of tIjAb amplitudes:       0.002 (MW) /      0.016 (MB)
	Size of irrep 6 of tIjAb amplitudes:       0.002 (MW) /      0.016 (MB)
	Size of irrep 7 of tIjAb amplitudes:       0.002 (MW) /      0.016 (MB)
	Total:                                     0.008 (MW) /      0.064 (MB)

	Nuclear Rep. energy          =      0.00000000000000
	SCF energy                   =    -54.40446908429229
	One-electron energy          =    -15.74062407344270
	Two-electron (AA) energy     =      3.42519812952635
	Two-electron (BB) energy     =      0.00000000000000
	Two-electron (AB) energy     =      2.64432898844644
	Two-electron energy          =      6.06952711797280
	Reference energy             =    -54.40446908429224

*** tstop() called on n412-041.vsc4.prov at Wed Jan 20 22:09:35 2021
Module time:
	user time   =       3.55 seconds =       0.06 minutes
	system time =       2.38 seconds =       0.04 minutes
	total time  =         17 seconds =       0.28 minutes
Total time:
	user time   =      31.98 seconds =       0.53 minutes
	system time =       3.53 seconds =       0.06 minutes
	total time  =         33 seconds =       0.55 minutes
            **************************
            *                        *
            *        CCENERGY        *
            *                        *
            **************************

    Nuclear Rep. energy (wfn)     =    0.000000000000000
    SCF energy          (wfn)     =  -54.404469084292295
    Reference energy    (file100) =  -54.404469084292245

    Input parameters:
    -----------------
    Wave function   =     CCSD_T
    Reference wfn   =     UHF
    Brueckner       =     No
    Memory (Mbytes) =     250000.0
    Maxiter         =     50
    R_Convergence   =     1.0e-07
    E_Convergence   =     1.0e-06
    Restart         =     Yes
    DIIS            =     Yes
    AO Basis        =     NONE
    ABCD            =     NEW
    Cache Level     =     2
    Cache Type      =     LRU
    Print Level     =     1
    Num. of threads =     48
    # Amps to Print =     10
    Print MP2 Amps? =     No
    Analyze T2 Amps =     No
    Print Pair Ener =     No
    Local CC        =     No
    SCS-MP2         =     False
    SCSN-MP2        =     False
    SCS-CCSD        =     False

MP2 correlation energy -0.1074999282227116
                Solving CC Amplitude Equations
                ------------------------------
  Iter             Energy              RMS        T1Diag      D1Diag    New D1Diag    D2Diag
  ----     ---------------------    ---------   ----------  ----------  ----------   --------
     0        -0.107499928222712    0.000e+00    0.000000    0.000000    0.000000    0.000000
     1        -0.117234342567937    2.909e-02    0.005027    0.000000    0.000000    0.000000
     2        -0.120580315101235    1.121e-02    0.008499    0.000000    0.000000    0.000000
     3        -0.120726882536266    3.131e-03    0.009934    0.000000    0.000000    0.000000
     4        -0.120726111517054    8.271e-04    0.010161    0.000000    0.000000    0.000000
     5        -0.120726076627422    3.054e-04    0.010172    0.000000    0.000000    0.000000
     6        -0.120729177313754    7.946e-05    0.010157    0.000000    0.000000    0.000000
     7        -0.120730097075358    1.785e-05    0.010153    0.000000    0.000000    0.000000
     8        -0.120729950342342    4.245e-06    0.010153    0.000000    0.000000    0.000000
     9        -0.120729940447836    7.707e-07    0.010153    0.000000    0.000000    0.000000
    10        -0.120729945291948    2.161e-07    0.010153    0.000000    0.000000    0.000000
    11        -0.120729943571609    3.372e-08    0.010153    0.000000    0.000000    0.000000

    Iterations converged.


    Largest TIA Amplitudes:
              3 104        -0.0058497444
              1  66        -0.0058497433
              2  85        -0.0058497433
              0   0        -0.0057933865
              3 103        -0.0055715589
              1  65        -0.0055715589
              2  84        -0.0055715589
              0   3         0.0039725598
              1  72         0.0016269043
              2  91         0.0016269043

    Largest Tia Amplitudes:
              0   3         0.0118188515
              0   0        -0.0087407107
              0   9        -0.0065437619
              0  17         0.0012177770
              0  23         0.0000023756

    Largest TIJAB Amplitudes:
      2   1  85  66        -0.0167595653
      3   2 104  85        -0.0167595638
      3   1 104  66        -0.0167595638
      2   1  88  69        -0.0154844563
      3   2 107  88        -0.0154844563
      3   1 107  69        -0.0154844563
      2   1  47   4        -0.0146686267
      2   1  85  69        -0.0146639017
      2   1  88  66        -0.0146639017
      3   2 107  85        -0.0146639016

    Largest TIjAb Amplitudes:
      3   0   5 106        -0.0265586933
      1   0   4  66         0.0230005487
      1   0  47  86         0.0230005037
      2   0  47  66         0.0230005037
      1   0  36 106         0.0230005035
      2   0  25 106         0.0230005035
      3   0  25  86         0.0230005032
      3   0  36  66         0.0230005032
      2   0   4  86        -0.0230004587
      3   0  10 106         0.0189964697

    SCF energy       (wfn)                    =  -54.404469084292295
    Reference energy (file100)                =  -54.404469084292245

    Opposite-spin MP2 correlation energy      =   -0.075608391301234
    Same-spin MP2 correlation energy          =   -0.031891536921478
    Singles MP2 correlation energy            =   -0.000000000000000
    MP2 correlation energy                    =   -0.107499928222712
      * MP2 total energy                      =  -54.511969012514953

    Opposite-spin CCSD correlation energy     =   -0.086441423511213
    Same-spin CCSD correlation energy         =   -0.034288520060396
    Singles CCSD correlation energy           =   -0.000000000000000
    CCSD correlation energy                   =   -0.120729943571609
      * CCSD total energy                     =  -54.525199027863856

            **************************
            *                        *
            *        CCTRIPLES       *
            *                        *
            **************************


    Wave function   =    CCSD_T
    Reference wfn   =      UHF

    Nuclear Rep. energy (wfn)                =    0.000000000000000
    SCF energy          (wfn)                =  -54.404469084292295
    Reference energy    (file100)            =  -54.404469084292245
    CCSD energy         (file100)            =   -0.120729943571609
    Total CCSD energy   (file100)            =  -54.525199027863856

    Number of ijk index combinations:
    Spin Case AAA:                                   4
    Spin Case BBB:                                   0
    Spin Case AAB:                                   6
    Spin Case ABB:                                   0
    AAA (T) energy                             =   -0.000294766016852
    BBB (T) energy                             =    0.000000000000000
    AAB (T) energy                             =   -0.002729129788955
    ABB (T) energy                             =    0.000000000000000
    (T) energy                                   =   -0.003023895805806
      * CCSD(T) total energy                     =  -54.528222923669659


    Psi4 stopped on: Wednesday, 20 January 2021 10:09PM
    Psi4 wall time for execution: 0:00:46.13

*** Psi4 exiting successfully. Buy a developer a beer!
