
    -----------------------------------------------------------------------
          Psi4: An Open-Source Ab Initio Electronic Structure Package
                               Psi4 1.4a3.dev88 

                         Git: Rev {master} 262e345 


    D. G. A. Smith, L. A. Burns, A. C. Simmonett, R. M. Parrish,
    M. C. Schieber, R. Galvelis, P. Kraus, H. Kruse, R. Di Remigio,
    A. Alenaizan, A. M. James, S. Lehtola, J. P. Misiewicz, M. Scheurer,
    R. A. Shaw, J. B. Schriber, Y. Xie, Z. L. Glick, D. A. Sirianni,
    J. S. O'Brien, J. M. Waldrop, A. Kumar, E. G. Hohenstein,
    B. P. Pritchard, B. R. Brooks, H. F. Schaefer III, A. Yu. Sokolov,
    K. Patkowski, A. E. DePrince III, U. Bozkaya, R. A. King,
    F. A. Evangelista, J. M. Turney, T. D. Crawford, C. D. Sherrill,
    J. Chem. Phys. 152(18) 184108 (2020). https://doi.org/10.1063/5.0006002

                            Additional Code Authors
    E. T. Seidl, C. L. Janssen, E. F. Valeev, M. L. Leininger,
    J. F. Gonthier, R. M. Richard, H. R. McAlexander, M. Saitow, X. Wang,
    P. Verma, and M. H. Lechner

             Previous Authors, Complete List of Code Contributors,
                       and Citations for Specific Modules
    https://github.com/psi4/psi4/blob/master/codemeta.json
    https://github.com/psi4/psi4/graphs/contributors
    http://psicode.org/psi4manual/master/introduction.html#citing-psifour

    -----------------------------------------------------------------------


    Psi4 started on: Tuesday, 26 January 2021 06:15PM

    Process ID: 400879
    Host:       n412-039.vsc4.prov
    PSIDATADIR: /home/fs71337/gallo4/psi4/eri-6/psi4/build/stage/share/psi4
    Memory:     500.0 MiB
    Threads:    48
    
  ==> Input File <==

--------------------------------------------------------------------------
# Any line starting with the # character is a comment line
memory 250000 mb
molecule molecule{
0 4
N          0.0000000000        0.0000000000        0.0000000000
}

set {
  reference uhf
  basis aug-cc-pV(d+d)Z
  scf_type OUT_OF_CORE
  freeze_core true
}

energy('ccsd(t)')
--------------------------------------------------------------------------

  Memory set to 232.831 GiB by Python driver.

Scratch directory: /binfl/lv71337/airmler/temp/

*** tstart() called on n412-039.vsc4.prov
*** at Tue Jan 26 18:15:20 2021

   => Loading Basis Set <=

    Name: AUG-CC-PV(D+D)Z
    Role: ORBITAL
    Keyword: BASIS
    atoms 1 entry N          line   246 file /home/fs71337/gallo4/psi4/eri-6/psi4/build/stage/share/psi4/basis/aug-cc-pv_dpd_z.gbs 


         ---------------------------------------------------------
                                   SCF
               by Justin Turney, Rob Parrish, Andy Simmonett
                          and Daniel G. A. Smith
                              UHF Reference
                       48 Threads, 238418 MiB Core
         ---------------------------------------------------------

  ==> Geometry <==

    Molecular point group: d2h
    Geometry (in Angstrom), charge = 0, multiplicity = 4:

       Center              X                  Y                   Z               Mass       
    ------------   -----------------  -----------------  -----------------  -----------------
         N            0.000000000000     0.000000000000     0.000000000000    14.003074004430

  Running in d2h symmetry.

  Rotational constants: A = ************  B = ************  C = ************ [cm^-1]
  Rotational constants: A = ************  B = ************  C = ************ [MHz]
  Nuclear repulsion =    0.000000000000000

  Charge       = 0
  Multiplicity = 4
  Electrons    = 7
  Nalpha       = 5
  Nbeta        = 2

  ==> Algorithm <==

  SCF Algorithm Type is OUT_OF_CORE.
  DIIS enabled.
  MOM disabled.
  Fractional occupation disabled.
  Guess Type is CORE.
  Energy threshold   = 1.00e-08
  Density threshold  = 1.00e-08
  Integral threshold = 1.00e-12

  ==> Primary Basis <==

  Basis Set: AUG-CC-PV(D+D)Z
    Blend: AUG-CC-PV(D+D)Z
    Number of shells: 9
    Number of basis function: 23
    Number of Cartesian functions: 25
    Spherical Harmonics?: true
    Max angular momentum: 2

  ==> Integral Setup <==

  ==> DiskJK: Disk-Based J/K Matrices <==

    J tasked:                  Yes
    K tasked:                  Yes
    wK tasked:                  No
    Memory [MiB]:           178813
    Schwarz Cutoff:          1E-12

  Minimum eigenvalue in the overlap matrix is 8.8165647593E-02.
  Reciprocal condition number of the overlap matrix is 3.9515401517E-02.
    Using symmetric orthogonalization.

  ==> Pre-Iterations <==

  SCF Guess: Core (One-Electron) Hamiltonian.

   -------------------------------------------------------
    Irrep   Nso     Nmo     Nalpha   Nbeta   Ndocc  Nsocc
   -------------------------------------------------------
     Ag         8       8       2       2       2       0
     B1g        2       2       0       0       0       0
     B2g        2       2       0       0       0       0
     B3g        2       2       0       0       0       0
     Au         0       0       0       0       0       0
     B1u        3       3       1       0       0       1
     B2u        3       3       1       0       0       1
     B3u        3       3       1       0       0       1
   -------------------------------------------------------
    Total      23      23       5       2       2       3
   -------------------------------------------------------

  ==> Iterations <==

                        Total Energy        Delta E     RMS |[F,P]|

   @UHF iter   1:   -52.64272102315427   -5.26427e+01   1.36339e-01 DIIS
   @UHF iter   2:   -54.32612699906864   -1.68341e+00   2.80933e-02 DIIS
   @UHF iter   3:   -54.39022747031050   -6.41005e-02   5.90652e-03 DIIS
   @UHF iter   4:   -54.39312558022502   -2.89811e-03   7.74336e-04 DIIS
   @UHF iter   5:   -54.39318100716728   -5.54269e-05   1.42815e-04 DIIS
   @UHF iter   6:   -54.39318309406876   -2.08690e-06   4.43208e-05 DIIS
   @UHF iter   7:   -54.39318338868973   -2.94621e-07   2.46244e-06 DIIS
   @UHF iter   8:   -54.39318338964132   -9.51587e-10   8.76573e-08 DIIS
   @UHF iter   9:   -54.39318338964210   -7.88702e-13   6.68501e-09 DIIS
  Energy and wave function converged.


  ==> Post-Iterations <==

   @Spin Contamination Metric:   7.071822361E-03
   @S^2 Expected:                3.750000000E+00
   @S^2 Observed:                3.757071822E+00
   @S   Expected:                1.500000000E+00
   @S   Observed:                1.500000000E+00

    Orbital Energies [Eh]
    ---------------------

    Alpha Occupied:                                                       

       1Ag   -15.679668     2Ag    -1.165014     1B1u   -0.570532  
       1B2u   -0.570532     1B3u   -0.570532  

    Alpha Virtual:                                                        

       3Ag     0.138979     2B1u    0.155664     2B2u    0.155664  
       2B3u    0.155664     4Ag     0.652260     1B1g    0.652260  
       1B2g    0.652260     1B3g    0.652260     5Ag     0.652260  
       3B1u    1.030567     3B3u    1.030567     3B2u    1.030567  
       6Ag     1.291328     2B3g    2.381990     2B2g    2.381990  
       2B1g    2.381990     7Ag     2.381990     8Ag     2.381990  

    Beta Occupied:                                                        

       1Ag   -15.587658     2Ag    -0.730525  

    Beta Virtual:                                                         

       1B1u    0.082273     1B2u    0.082273     1B3u    0.082273  
       3Ag     0.164495     2B1u    0.264697     2B2u    0.264697  
       2B3u    0.264697     4Ag     0.715127     1B1g    0.715127  
       1B2g    0.715127     1B3g    0.715127     5Ag     0.715127  
       3B1u    1.221155     3B2u    1.221155     3B3u    1.221155  
       6Ag     1.410787     2B3g    2.560956     2B2g    2.560956  
       2B1g    2.560956     7Ag     2.560956     8Ag     2.560956  

    Final Occupation by Irrep:
             Ag   B1g   B2g   B3g    Au   B1u   B2u   B3u 
    DOCC [     2,    0,    0,    0,    0,    0,    0,    0 ]
    SOCC [     0,    0,    0,    0,    0,    1,    1,    1 ]

  @UHF Final Energy:   -54.39318338964210

   => Energetics <=

    Nuclear Repulsion Energy =              0.0000000000000000
    One-Electron Energy =                 -73.9119049379577717
    Two-Electron Energy =                  19.5187215483156642
    Total Energy =                        -54.3931833896421040

  UHF NO Occupations:
  HONO-2 :    1B2u 1.0000000
  HONO-1 :    1B3u 1.0000000
  HONO-0 :    1B1u 1.0000000
  LUNO+0 :    3 Ag 0.0035408
  LUNO+1 :    4 Ag 0.0000014
  LUNO+2 :    2B1u 0.0000000
  LUNO+3 :    2B3u 0.0000000


Computation Completed


Properties will be evaluated at   0.000000,   0.000000,   0.000000 [a0]

Properties computed using the SCF density matrix

  Nuclear Dipole Moment: [e a0]
     X:     0.0000      Y:     0.0000      Z:     0.0000

  Electronic Dipole Moment: [e a0]
     X:     0.0000      Y:     0.0000      Z:     0.0000

  Dipole Moment: [e a0]
     X:     0.0000      Y:     0.0000      Z:     0.0000     Total:     0.0000

  Dipole Moment: [D]
     X:     0.0000      Y:     0.0000      Z:     0.0000     Total:     0.0000


*** tstop() called on n412-039.vsc4.prov at Tue Jan 26 18:15:21 2021
Module time:
	user time   =       4.91 seconds =       0.08 minutes
	system time =       0.21 seconds =       0.00 minutes
	total time  =          1 seconds =       0.02 minutes
Total time:
	user time   =       4.91 seconds =       0.08 minutes
	system time =       0.21 seconds =       0.00 minutes
	total time  =          1 seconds =       0.02 minutes

*** tstart() called on n412-039.vsc4.prov
*** at Tue Jan 26 18:15:21 2021


	Wfn Parameters:
	--------------------
	Wavefunction         = CCSD_T
	Number of irreps     = 8
	Number of MOs        = 23
	Number of active MOs = 22
	AO-Basis             = NONE
	Semicanonical        = false
	Reference            = UHF
	Print Level          = 1

	IRREP	# MOs	# FZDC	# DOCC	# SOCC	# VIRT	# FZVR
	-----	-----	------	------	------	------	------
	 Ag	   8	    1	    1	    0	    6	    0
	 B1g	   2	    0	    0	    0	    2	    0
	 B2g	   2	    0	    0	    0	    2	    0
	 B3g	   2	    0	    0	    0	    2	    0
	 Au	   0	    0	    0	    0	    0	    0
	 B1u	   3	    0	    0	    1	    2	    0
	 B2u	   3	    0	    0	    1	    2	    0
	 B3u	   3	    0	    0	    1	    2	    0
	Transforming integrals...
	IWL integrals will be deleted.
	(OO|OO)...
	Presorting SO-basis two-electron integrals.
	Sorting File: SO Ints (nn|nn) nbuckets = 1
	Constructing frozen core operators
	Starting AA/AB first half-transformation.
	Sorting AA/AB half-transformed integrals.
	Starting BB first half-transformation.
	Sorting BB half-transformed integrals.
	First half integral transformation complete.
	Starting AA second half-transformation.
	Starting AB second half-transformation.
	Starting BB second half-transformation.
	Two-electron integral transformation complete.
	(OO|OV)...
	Starting AA second half-transformation.
	Starting AB second half-transformation.
	Starting BB second half-transformation.
	Two-electron integral transformation complete.
	(OO|VV)...
	Starting AA second half-transformation.
	Starting AB second half-transformation.
	Starting BB second half-transformation.
	Two-electron integral transformation complete.
	(OV|OO)...
	Starting AA/AB first half-transformation.
	Sorting AA/AB half-transformed integrals.
	Starting BB first half-transformation.
	Sorting BB half-transformed integrals.
	First half integral transformation complete.
	Starting AA second half-transformation.
	Starting AB second half-transformation.
	Starting BB second half-transformation.
	Two-electron integral transformation complete.
	(OV|OV)...
	Starting AA second half-transformation.
	Starting AB second half-transformation.
	Starting BB second half-transformation.
	Two-electron integral transformation complete.
	(OV|VV)...
	Starting AA second half-transformation.
	Starting AB second half-transformation.
	Starting BB second half-transformation.
	Two-electron integral transformation complete.
	(VV|OO)...
	Starting AA/AB first half-transformation.
	Sorting AA/AB half-transformed integrals.
	Starting BB first half-transformation.
	Sorting BB half-transformed integrals.
	First half integral transformation complete.
	Starting AA second half-transformation.
	Starting AB second half-transformation.
	Starting BB second half-transformation.
	Two-electron integral transformation complete.
	(VV|OV)...
	Starting AA second half-transformation.
	Starting AB second half-transformation.
	Starting BB second half-transformation.
	Two-electron integral transformation complete.
	(VV|VV)...
	Starting AA second half-transformation.
	Starting AB second half-transformation.
	Starting BB second half-transformation.
	Two-electron integral transformation complete.
	Frozen core energy     =    -44.73211479266178

	Size of irrep 0 of <AB|CD> integrals:      0.000 (MW) /      0.004 (MB)
	Size of irrep 1 of <AB|CD> integrals:      0.000 (MW) /      0.003 (MB)
	Size of irrep 2 of <AB|CD> integrals:      0.000 (MW) /      0.003 (MB)
	Size of irrep 3 of <AB|CD> integrals:      0.000 (MW) /      0.003 (MB)
	Size of irrep 4 of <AB|CD> integrals:      0.000 (MW) /      0.001 (MB)
	Size of irrep 5 of <AB|CD> integrals:      0.000 (MW) /      0.003 (MB)
	Size of irrep 6 of <AB|CD> integrals:      0.000 (MW) /      0.003 (MB)
	Size of irrep 7 of <AB|CD> integrals:      0.000 (MW) /      0.003 (MB)
	Total:                                     0.003 (MW) /      0.024 (MB)

	Size of irrep 0 of <ab|cd> integrals:      0.001 (MW) /      0.006 (MB)
	Size of irrep 1 of <ab|cd> integrals:      0.001 (MW) /      0.005 (MB)
	Size of irrep 2 of <ab|cd> integrals:      0.001 (MW) /      0.005 (MB)
	Size of irrep 3 of <ab|cd> integrals:      0.001 (MW) /      0.005 (MB)
	Size of irrep 4 of <ab|cd> integrals:      0.000 (MW) /      0.003 (MB)
	Size of irrep 5 of <ab|cd> integrals:      0.001 (MW) /      0.007 (MB)
	Size of irrep 6 of <ab|cd> integrals:      0.001 (MW) /      0.007 (MB)
	Size of irrep 7 of <ab|cd> integrals:      0.001 (MW) /      0.007 (MB)
	Total:                                     0.006 (MW) /      0.045 (MB)

	Size of irrep 0 of <Ab|Cd> integrals:      0.004 (MW) /      0.035 (MB)
	Size of irrep 1 of <Ab|Cd> integrals:      0.002 (MW) /      0.015 (MB)
	Size of irrep 2 of <Ab|Cd> integrals:      0.002 (MW) /      0.015 (MB)
	Size of irrep 3 of <Ab|Cd> integrals:      0.002 (MW) /      0.015 (MB)
	Size of irrep 4 of <Ab|Cd> integrals:      0.001 (MW) /      0.007 (MB)
	Size of irrep 5 of <Ab|Cd> integrals:      0.003 (MW) /      0.020 (MB)
	Size of irrep 6 of <Ab|Cd> integrals:      0.003 (MW) /      0.020 (MB)
	Size of irrep 7 of <Ab|Cd> integrals:      0.003 (MW) /      0.020 (MB)
	Total:                                     0.019 (MW) /      0.149 (MB)

	Size of irrep 0 of <IA|BC> integrals:      0.001 (MW) /      0.006 (MB)
	Size of irrep 1 of <IA|BC> integrals:      0.000 (MW) /      0.002 (MB)
	Size of irrep 2 of <IA|BC> integrals:      0.000 (MW) /      0.002 (MB)
	Size of irrep 3 of <IA|BC> integrals:      0.000 (MW) /      0.002 (MB)
	Size of irrep 4 of <IA|BC> integrals:      0.000 (MW) /      0.001 (MB)
	Size of irrep 5 of <IA|BC> integrals:      0.000 (MW) /      0.004 (MB)
	Size of irrep 6 of <IA|BC> integrals:      0.000 (MW) /      0.004 (MB)
	Size of irrep 7 of <IA|BC> integrals:      0.000 (MW) /      0.004 (MB)
	Total:                                     0.003 (MW) /      0.024 (MB)

	Size of irrep 0 of <ia|bc> integrals:      0.000 (MW) /      0.004 (MB)
	Size of irrep 1 of <ia|bc> integrals:      0.000 (MW) /      0.001 (MB)
	Size of irrep 2 of <ia|bc> integrals:      0.000 (MW) /      0.001 (MB)
	Size of irrep 3 of <ia|bc> integrals:      0.000 (MW) /      0.001 (MB)
	Size of irrep 4 of <ia|bc> integrals:      0.000 (MW) /      0.000 (MB)
	Size of irrep 5 of <ia|bc> integrals:      0.000 (MW) /      0.001 (MB)
	Size of irrep 6 of <ia|bc> integrals:      0.000 (MW) /      0.001 (MB)
	Size of irrep 7 of <ia|bc> integrals:      0.000 (MW) /      0.001 (MB)
	Total:                                     0.001 (MW) /      0.010 (MB)

	Size of irrep 0 of <Ia|Bc> integrals:      0.001 (MW) /      0.008 (MB)
	Size of irrep 1 of <Ia|Bc> integrals:      0.000 (MW) /      0.003 (MB)
	Size of irrep 2 of <Ia|Bc> integrals:      0.000 (MW) /      0.003 (MB)
	Size of irrep 3 of <Ia|Bc> integrals:      0.000 (MW) /      0.003 (MB)
	Size of irrep 4 of <Ia|Bc> integrals:      0.000 (MW) /      0.001 (MB)
	Size of irrep 5 of <Ia|Bc> integrals:      0.001 (MW) /      0.005 (MB)
	Size of irrep 6 of <Ia|Bc> integrals:      0.001 (MW) /      0.005 (MB)
	Size of irrep 7 of <Ia|Bc> integrals:      0.001 (MW) /      0.005 (MB)
	Total:                                     0.004 (MW) /      0.033 (MB)

	Size of irrep 0 of <iA|bC> integrals:      0.000 (MW) /      0.003 (MB)
	Size of irrep 1 of <iA|bC> integrals:      0.000 (MW) /      0.001 (MB)
	Size of irrep 2 of <iA|bC> integrals:      0.000 (MW) /      0.001 (MB)
	Size of irrep 3 of <iA|bC> integrals:      0.000 (MW) /      0.001 (MB)
	Size of irrep 4 of <iA|bC> integrals:      0.000 (MW) /      0.000 (MB)
	Size of irrep 5 of <iA|bC> integrals:      0.000 (MW) /      0.001 (MB)
	Size of irrep 6 of <iA|bC> integrals:      0.000 (MW) /      0.001 (MB)
	Size of irrep 7 of <iA|bC> integrals:      0.000 (MW) /      0.001 (MB)
	Total:                                     0.001 (MW) /      0.008 (MB)

	Size of irrep 0 of tIjAb amplitudes:       0.000 (MW) /      0.001 (MB)
	Size of irrep 1 of tIjAb amplitudes:       0.000 (MW) /      0.000 (MB)
	Size of irrep 2 of tIjAb amplitudes:       0.000 (MW) /      0.000 (MB)
	Size of irrep 3 of tIjAb amplitudes:       0.000 (MW) /      0.000 (MB)
	Size of irrep 4 of tIjAb amplitudes:       0.000 (MW) /      0.000 (MB)
	Size of irrep 5 of tIjAb amplitudes:       0.000 (MW) /      0.000 (MB)
	Size of irrep 6 of tIjAb amplitudes:       0.000 (MW) /      0.000 (MB)
	Size of irrep 7 of tIjAb amplitudes:       0.000 (MW) /      0.000 (MB)
	Total:                                     0.000 (MW) /      0.002 (MB)

	Nuclear Rep. energy          =      0.00000000000000
	SCF energy                   =    -54.39318338964210
	One-electron energy          =    -15.71500125428241
	Two-electron (AA) energy     =      3.41222497033165
	Two-electron (BB) energy     =      0.00000000000000
	Two-electron (AB) energy     =      2.64170768697043
	Two-electron energy          =      6.05393265730208
	Reference energy             =    -54.39318338964210

*** tstop() called on n412-039.vsc4.prov at Tue Jan 26 18:15:21 2021
Module time:
	user time   =       0.02 seconds =       0.00 minutes
	system time =       0.06 seconds =       0.00 minutes
	total time  =          0 seconds =       0.00 minutes
Total time:
	user time   =       4.93 seconds =       0.08 minutes
	system time =       0.27 seconds =       0.00 minutes
	total time  =          1 seconds =       0.02 minutes
            **************************
            *                        *
            *        CCENERGY        *
            *                        *
            **************************

    Nuclear Rep. energy (wfn)     =    0.000000000000000
    SCF energy          (wfn)     =  -54.393183389642104
    Reference energy    (file100) =  -54.393183389642104

    Input parameters:
    -----------------
    Wave function   =     CCSD_T
    Reference wfn   =     UHF
    Brueckner       =     No
    Memory (Mbytes) =     250000.0
    Maxiter         =     50
    R_Convergence   =     1.0e-07
    E_Convergence   =     1.0e-06
    Restart         =     Yes
    DIIS            =     Yes
    AO Basis        =     NONE
    ABCD            =     NEW
    Cache Level     =     2
    Cache Type      =     LRU
    Print Level     =     1
    Num. of threads =     48
    # Amps to Print =     10
    Print MP2 Amps? =     No
    Analyze T2 Amps =     No
    Print Pair Ener =     No
    Local CC        =     No
    SCS-MP2         =     False
    SCSN-MP2        =     False
    SCS-CCSD        =     False

MP2 correlation energy -0.0749901953583354
                Solving CC Amplitude Equations
                ------------------------------
  Iter             Energy              RMS        T1Diag      D1Diag    New D1Diag    D2Diag
  ----     ---------------------    ---------   ----------  ----------  ----------   --------
     0        -0.074990195358335    0.000e+00    0.000000    0.000000    0.000000    0.000000
     1        -0.088248291347514    3.427e-02    0.005676    0.000000    0.000000    0.000000
     2        -0.092272690853626    1.237e-02    0.009172    0.000000    0.000000    0.000000
     3        -0.092523712107895    3.708e-03    0.010859    0.000000    0.000000    0.000000
     4        -0.092514655450939    9.370e-04    0.011030    0.000000    0.000000    0.000000
     5        -0.092521811402872    3.662e-04    0.011067    0.000000    0.000000    0.000000
     6        -0.092523514304536    9.326e-05    0.011045    0.000000    0.000000    0.000000
     7        -0.092524640713346    1.447e-05    0.011041    0.000000    0.000000    0.000000
     8        -0.092524343848929    2.717e-06    0.011040    0.000000    0.000000    0.000000
     9        -0.092524423263993    4.720e-07    0.011039    0.000000    0.000000    0.000000
    10        -0.092524424351794    7.637e-08    0.011039    0.000000    0.000000    0.000000

    Iterations converged.


    Largest TIA Amplitudes:
              1  12        -0.0116059060
              2  14        -0.0116059060
              3  16        -0.0116059060
              0   0         0.0088729981
              1  13        -0.0043073325
              2  15        -0.0043073325
              3  17        -0.0043073325
              0   3        -0.0017841926

    Largest Tia Amplitudes:
              0   3        -0.0071321752
              0   0         0.0041002137

    Largest TIJAB Amplitudes:
      3   2  17  15        -0.0291602556
      3   1  17  13        -0.0291602556
      2   1  15  13        -0.0291602556
      1   0  13   3        -0.0160856397
      2   0  15   3        -0.0160856397
      3   0  17   3        -0.0160856397
      3   2  16  15        -0.0157115657
      3   2  17  14        -0.0157115657
      3   1  16  13        -0.0157115657
      3   1  17  12        -0.0157115657

    Largest TIjAb Amplitudes:
      1   0   2  13        -0.0275395581
      1   0  13   3         0.0259240243
      2   0  15   3         0.0259240243
      3   0  17   3         0.0259240243
      2   0   4  16        -0.0245840566
      3   0   1  19        -0.0244035028
      1   0   2  12        -0.0243752125
      1   0   8  19        -0.0238692204
      1   0  10  16        -0.0238692204
      2   0   6  19        -0.0238692204

    SCF energy       (wfn)                    =  -54.393183389642104
    Reference energy (file100)                =  -54.393183389642104

    Opposite-spin MP2 correlation energy      =   -0.052287430991117
    Same-spin MP2 correlation energy          =   -0.022702764367219
    Singles MP2 correlation energy            =   -0.000000000000000
    MP2 correlation energy                    =   -0.074990195358335
      * MP2 total energy                      =  -54.468173585000436

    Opposite-spin CCSD correlation energy     =   -0.067259572085933
    Same-spin CCSD correlation energy         =   -0.025264852265860
    Singles CCSD correlation energy           =    0.000000000000000
    CCSD correlation energy                   =   -0.092524424351794
      * CCSD total energy                     =  -54.485707813993898

            **************************
            *                        *
            *        CCTRIPLES       *
            *                        *
            **************************


    Wave function   =    CCSD_T
    Reference wfn   =      UHF

    Nuclear Rep. energy (wfn)                =    0.000000000000000
    SCF energy          (wfn)                =  -54.393183389642104
    Reference energy    (file100)            =  -54.393183389642104
    CCSD energy         (file100)            =   -0.092524424351794
    Total CCSD energy   (file100)            =  -54.485707813993898

    Number of ijk index combinations:
    Spin Case AAA:                                   4
    Spin Case BBB:                                   0
    Spin Case AAB:                                   6
    Spin Case ABB:                                   0
    AAA (T) energy                             =   -0.000113895470832
    BBB (T) energy                             =    0.000000000000000
    AAB (T) energy                             =   -0.001159849460365
    ABB (T) energy                             =    0.000000000000000
    (T) energy                                   =   -0.001273744931198
      * CCSD(T) total energy                     =  -54.486981558925095


    Psi4 stopped on: Tuesday, 26 January 2021 06:15PM
    Psi4 wall time for execution: 0:00:03.01

*** Psi4 exiting successfully. Buy a developer a beer!
