
    -----------------------------------------------------------------------
          Psi4: An Open-Source Ab Initio Electronic Structure Package
                               Psi4 1.2a1.dev939 

                         Git: Rev {HEAD} fa1ec19 dirty


    R. M. Parrish, L. A. Burns, D. G. A. Smith, A. C. Simmonett,
    A. E. DePrince III, E. G. Hohenstein, U. Bozkaya, A. Yu. Sokolov,
    R. Di Remigio, R. M. Richard, J. F. Gonthier, A. M. James,
    H. R. McAlexander, A. Kumar, M. Saitow, X. Wang, B. P. Pritchard,
    P. Verma, H. F. Schaefer III, K. Patkowski, R. A. King, E. F. Valeev,
    F. A. Evangelista, J. M. Turney, T. D. Crawford, and C. D. Sherrill,
    J. Chem. Theory Comput. 13(7) pp 3185--3197 (2017).
    (doi: 10.1021/acs.jctc.7b00174)

    -----------------------------------------------------------------------


    Psi4 started on: Friday, 30 October 2020 02:47PM

    Process ID: 165454
    PSIDATADIR: /home/fs71337/airmler/src/psi4_uhf/build/stage/usr/local/psi4/share/psi4
    Memory:     500.0 MiB
    Threads:    48
    
  ==> Input File <==

--------------------------------------------------------------------------
# Any line starting with the # character is a comment line
memory 250000 mb
molecule molecule{
-1 2
C          0.0000000000        0.0000000000        0.0997578423
H          0.0000000000        0.8741780617       -0.5943763735
H          0.0000000000       -0.8741780617       -0.5943763735
}

set {
  reference uhf
  basis aug-cc-pv(6+d)z
  scf_type OUT_OF_CORE
  freeze_core true
}

energy('ccsd')
--------------------------------------------------------------------------

  Memory set to 232.831 GiB by Python driver.

*** tstart() called on n412-020.vsc4.prov
*** at Fri Oct 30 14:47:40 2020

   => Loading Basis Set <=

    Name: AUG-CC-PV(6+D)Z
    Role: ORBITAL
    Keyword: BASIS
    atoms 1   entry C          line   267 file /home/fs71337/airmler/src/psi4_uhf/build/stage/usr/local/psi4/share/psi4/basis/aug-cc-pv_6pd_z.gbs 
    atoms 2-3 entry H          line    51 file /home/fs71337/airmler/src/psi4_uhf/build/stage/usr/local/psi4/share/psi4/basis/aug-cc-pv_6pd_z.gbs 


         ---------------------------------------------------------
                                   SCF
            by Justin Turney, Rob Parrish, Andy Simmonett
                             and Daniel Smith
                              UHF Reference
                       48 Threads, 238418 MiB Core
         ---------------------------------------------------------

  ==> Geometry <==

    Molecular point group: c2v
    Full point group: C2v

    Geometry (in Angstrom), charge = -1, multiplicity = 2:

       Center              X                  Y                   Z               Mass       
    ------------   -----------------  -----------------  -----------------  -----------------
           C         -0.000000000000     0.000000000000     0.099826384805    12.000000000000
           H         -0.000000000000     0.874178061700    -0.594307830995     1.007825032070
           H          0.000000000000    -0.874178061700    -0.594307830995     1.007825032070

  Running in c2v symmetry.

  Rotational constants: A =     20.27339  B =     10.94414  C =      7.10738 [cm^-1]
  Rotational constants: A = 607781.04843  B = 328096.99502  C = 213073.84762 [MHz]
  Nuclear repulsion =    5.991484634084435

  Charge       = -1
  Multiplicity = 2
  Electrons    = 9
  Nalpha       = 5
  Nbeta        = 4

  ==> Algorithm <==

  SCF Algorithm Type is OUT_OF_CORE.
  DIIS enabled.
  MOM disabled.
  Fractional occupation disabled.
  Guess Type is GWH.
  Energy threshold   = 1.00e-08
  Density threshold  = 1.00e-08
  Integral threshold = 0.00e+00

  ==> Primary Basis <==

  Basis Set: AUG-CC-PV(6+D)Z
    Blend: AUG-CC-PV(6+D)Z
    Number of shells: 89
    Number of basis function: 443
    Number of Cartesian functions: 658
    Spherical Harmonics?: true
    Max angular momentum: 6

  ==> Pre-Iterations <==

   -------------------------------------------------------
    Irrep   Nso     Nmo     Nalpha   Nbeta   Ndocc  Nsocc
   -------------------------------------------------------
     A1       143     143       0       0       0       0
     A2        81      81       0       0       0       0
     B1        96      96       0       0       0       0
     B2       123     123       0       0       0       0
   -------------------------------------------------------
    Total     443     443       5       4       4       1
   -------------------------------------------------------

  ==> Integral Setup <==

  ==> DiskJK: Disk-Based J/K Matrices <==

    J tasked:                  Yes
    K tasked:                  Yes
    wK tasked:                  No
    Memory (MB):            178813
    Schwarz Cutoff:          1E-12

  Minimum eigenvalue in the overlap matrix is 1.2187035470E-06.
  Using Symmetric Orthogonalization.

  SCF Guess: Generalized Wolfsberg-Helmholtz.

  ==> Iterations <==

                        Total Energy        Delta E     RMS |[F,P]|

    Occupation by irrep:
             A1    A2    B1    B2 
    DOCC [     2,    0,    1,    1 ]
    SOCC [     1,    0,    0,    0 ]

   @UHF iter   1:   145.36325293613766    1.45363e+02   3.99332e-01 
    Occupation by irrep:
             A1    A2    B1    B2 
    DOCC [     3,    0,    0,    1 ]
    SOCC [     0,    0,    1,    0 ]

   @UHF iter   2:   -29.18556049359906   -1.74549e+02   9.61549e-02 DIIS
   @UHF iter   3:   -32.61844449573653   -3.43288e+00   2.43921e-02 DIIS
   @UHF iter   4:   -36.92728920061040   -4.30884e+00   3.40051e-02 DIIS
   @UHF iter   5:   -38.22009403941112   -1.29280e+00   1.78583e-02 DIIS
   @UHF iter   6:   -38.85172544696816   -6.31631e-01   3.51298e-03 DIIS
   @UHF iter   7:   -38.90162105032684   -4.98956e-02   8.15512e-04 DIIS
   @UHF iter   8:   -38.90344036667576   -1.81932e-03   3.17551e-04 DIIS
   @UHF iter   9:   -38.90383612065869   -3.95754e-04   8.79326e-05 DIIS
   @UHF iter  10:   -38.90391505221522   -7.89316e-05   4.03780e-05 DIIS
   @UHF iter  11:   -38.90394109305100   -2.60408e-05   1.87229e-05 DIIS
   @UHF iter  12:   -38.90395016672271   -9.07367e-06   1.14922e-05 DIIS
   @UHF iter  13:   -38.90395322192148   -3.05520e-06   5.79434e-06 DIIS
   @UHF iter  14:   -38.90395470870475   -1.48678e-06   2.45452e-06 DIIS
   @UHF iter  15:   -38.90395487598472   -1.67280e-07   8.16306e-07 DIIS
   @UHF iter  16:   -38.90395489229626   -1.63115e-08   3.87082e-07 DIIS
   @UHF iter  17:   -38.90395489645696   -4.16070e-09   1.54181e-07 DIIS
   @UHF iter  18:   -38.90395489691913   -4.62173e-10   5.01013e-08 DIIS
   @UHF iter  19:   -38.90395489695258   -3.34452e-11   1.39760e-08 DIIS
   @UHF iter  20:   -38.90395489695567   -3.09797e-12   4.54982e-09 DIIS

  ==> Post-Iterations <==

   @Spin Contamination Metric:   2.363103223E-02
   @S^2 Expected:                7.500000000E-01
   @S^2 Observed:                7.736310322E-01
   @S   Expected:                5.000000000E-01
   @S   Observed:                5.000000000E-01

    Orbital Energies (a.u.)
    -----------------------

    Alpha Occupied:                                                       

       1A1   -10.956672     2A1    -0.614381     1B2    -0.258577  
       3A1    -0.099383     1B1    -0.072493  

    Alpha Virtual:                                                        

       4A1     0.126100     2B2     0.132014     5A1     0.175777  
       2B1     0.178478     3B2     0.201501     6A1     0.234961  
       4B2     0.284711     7A1     0.298916     8A1     0.308116  
       1A2     0.313111     3B1     0.320322     5B2     0.347978  
       9A1     0.359264     6B2     0.372708     4B1     0.385334  
       2A2     0.394160    10A1     0.399625     7B2     0.400285  
       5B1     0.423441    11A1     0.426983    12A1     0.431540  
       8B2     0.468702    13A1     0.562952     9B2     0.578163  
       6B1     0.591864    14A1     0.596941     3A2     0.606347  
       7B1     0.637515    15A1     0.657931    10B2     0.670895  
      11B2     0.675001     4A2     0.685528    16A1     0.693556  
      17A1     0.730363     8B1     0.736613    12B2     0.737015  
       5A2     0.743326     9B1     0.764548    18A1     0.769452  
      19A1     0.794581    13B2     0.798567    14B2     0.820791  
       6A2     0.859095    20A1     0.879021    10B1     0.896670  
      21A1     0.905535    15B2     0.905559    11B1     0.926266  
      16B2     0.969116    22A1     0.969531     7A2     1.112943  
      23A1     1.122108    12B1     1.149557    17B2     1.163881  
      24A1     1.167888    18B2     1.238404    25A1     1.276546  
      13B1     1.277593    26A1     1.325626    14B1     1.341923  
      19B2     1.341965     8A2     1.345431    27A1     1.357871  
      20B2     1.389048    15B1     1.389409     9A2     1.389511  
      10A2     1.395358    21B2     1.426123    28A1     1.456504  
      22B2     1.469800    29A1     1.497862    23B2     1.563057  
      30A1     1.632504    11A2     1.636516    16B1     1.641939  
      17B1     1.647581    12A2     1.654371    24B2     1.665430  
      31A1     1.666213    18B1     1.702908    32A1     1.724820  
      33A1     1.740047    34A1     1.743573    19B1     1.748592  
      25B2     1.750224    35A1     1.762063    13A2     1.812803  
      26B2     1.841887    20B1     1.844369    27B2     1.898615  
      36A1     1.913807    14A2     1.914855    28B2     1.987513  
      37A1     2.007265    21B1     2.086968    38A1     2.241649  
      39A1     2.248275    29B2     2.250585    22B1     2.361568  
      30B2     2.373544    15A2     2.378844    23B1     2.399601  
      16A2     2.463496    31B2     2.477129    40A1     2.480194  
      41A1     2.524618    24B1     2.580311    32B2     2.628022  
      17A2     2.634963    42A1     2.637484    33B2     2.686919  
      25B1     2.721775    34B2     2.727079    43A1     2.737036  
      18A2     2.740018    26B1     2.776600    35B2     2.787721  
      44A1     2.800735    19A2     2.804179    45A1     2.818044  
      36B2     2.868547    20A2     2.887106    27B1     2.916524  
      46A1     2.954536    21A2     2.962354    28B1     3.024851  
      47A1     3.028980    37B2     3.056516    38B2     3.088516  
      48A1     3.109416    29B1     3.156134    39B2     3.165722  
      49A1     3.265801    30B1     3.275357    22A2     3.307160  
      50A1     3.310289    40B2     3.313520    31B1     3.387716  
      41B2     3.390005    51A1     3.395566    32B1     3.422882  
      42B2     3.444048    23A2     3.457375    52A1     3.459471  
      43B2     3.568263    53A1     3.616286    33B1     3.629564  
      54A1     3.652958    24A2     3.654458    55A1     3.693648  
      25A2     3.732046    34B1     3.747996    56A1     3.760051  
      44B2     3.806209    57A1     3.846799    45B2     3.931815  
      35B1     3.934290    46B2     4.060514    26A2     4.075555  
      58A1     4.190866    36B1     4.193111    27A2     4.201555  
      47B2     4.340957    59A1     4.413171    37B1     4.487543  
      28A2     4.518369    60A1     4.527349    48B2     4.567097  
      49B2     4.589549    38B1     4.672007    39B1     4.758400  
      50B2     4.797601    61A1     4.812530    62A1     4.840601  
      29A2     4.920887    63A1     4.950032    30A2     5.003235  
      40B1     5.064271    51B2     5.081509    64A1     5.152091  
      52B2     5.176642    65A1     5.209431    31A2     5.217507  
      41B1     5.255166    53B2     5.314205    54B2     5.363564  
      66A1     5.375594    42B1     5.426809    32A2     5.432264  
      67A1     5.436677    68A1     5.459111    33A2     5.460363  
      55B2     5.483881    43B1     5.484408    44B1     5.515215  
      69A1     5.541833    34A2     5.557370    56B2     5.577914  
      57B2     5.618007    45B1     5.692973    58B2     5.724866  
      70A1     5.732796    35A2     5.797408    71A1     5.891911  
      46B1     5.898374    59B2     5.905334    72A1     5.970666  
      60B2     6.028577    36A2     6.102139    73A1     6.138329  
      37A2     6.145753    47B1     6.179437    61B2     6.204273  
      74A1     6.220389    38A2     6.291709    48B1     6.309641  
      62B2     6.427978    75A1     6.441220    39A2     6.535965  
      76A1     6.538818    77A1     6.586367    49B1     6.592344  
      40A2     6.630503    50B1     6.631463    63B2     6.631613  
      78A1     6.676628    64B2     6.687049    65B2     6.801669  
      51B1     6.803081    79A1     6.807858    52B1     6.823971  
      66B2     6.891396    53B1     6.964215    41A2     7.017513  
      80A1     7.101059    67B2     7.110903    68B2     7.176102  
      81A1     7.194931    42A2     7.245975    54B1     7.284004  
      82A1     7.363195    43A2     7.713210    69B2     7.731242  
      55B1     7.768852    83A1     7.776281    44A2     7.898397  
      70B2     7.913273    84A1     7.979242    85A1     8.000862  
      56B1     8.014827    71B2     8.084488    72B2     8.215194  
      86A1     8.270961    45A2     8.278597    87A1     8.331973  
      57B1     8.450467    46A2     8.465738    73B2     8.572516  
      58B1     8.713320    88A1     8.719042    47A2     8.723454  
      74B2     8.730661    59B1     8.795123    89A1     8.913780  
      75B2     9.154297    90A1     9.154345    60B1     9.285675  
      91A1     9.489392    76B2     9.743458    77B2     9.853228  
      48A2     9.870544    61B1     9.922005    92A1     9.955391  
      78B2    10.071217    49A2    10.131647    62B1    10.135862  
      50A2    10.301929    79B2    10.309964    93A1    10.323329  
      94A1    10.454685    63B1    10.456517    51A2    10.538450  
      80B2    10.587372    95A1    10.605183    96A1    10.692745  
      64B1    10.765164    81B2    10.810325    52A2    10.823194  
      82B2    10.837658    97A1    10.856567    98A1    10.955252  
      53A2    11.099265    99A1    11.113679    65B1    11.125355  
      83B2    11.165200    54A2    11.521759    84B2    11.619039  
      66B1    11.629448   100A1    11.723558    67B1    11.819636  
      85B2    11.892935    86B2    11.962718    55A2    12.072235  
     101A1    12.123013    68B1    12.209277   102A1    12.434878  
      87B2    12.445026    56A2    12.471276   103A1    12.849449  
      88B2    12.866447    69B1    13.162879   104A1    13.167513  
     105A1    13.468401    57A2    13.498112   106A1    13.563310  
      89B2    13.832196    58A2    13.834135    90B2    13.882881  
     107A1    14.008914    70B1    14.065616    71B1    14.121576  
      59A2    14.243620    72B1    14.295372    91B2    14.616205  
      60A2    14.819458   108A1    14.857297    73B1    14.953107  
     109A1    14.989263    74B1    15.006245    92B2    15.028211  
      75B1    15.115964   110A1    15.126022    61A2    15.188479  
      93B2    15.371112   111A1    15.380877    94B2    15.461648  
      62A2    15.470753    76B1    15.512150   112A1    15.816403  
      95B2    16.114607    96B2    16.129883    77B1    16.146468  
     113A1    16.308058    97B2    16.534686   114A1    16.743161  
      78B1    16.998933    63A2    17.202156   115A1    17.278908  
      98B2    17.674713    79B1    17.732216   116A1    17.830628  
     117A1    17.856234    80B1    17.890479   118A1    17.902138  
      99B2    17.917897    64A2    17.927330   100B2    18.102229  
      65A2    18.137530    81B1    18.283404   101B2    18.394832  
      66A2    18.398022   119A1    18.455231   120A1    18.841096  
      67A2    18.922854    82B1    19.040003   102B2    19.175226  
      83B1    19.313503    68A2    19.578636   121A1    19.661738  
     103B2    19.697428   122A1    19.853841   104B2    20.381713  
     123A1    20.520633   105B2    20.848437    84B1    20.864905  
     106B2    20.881047    69A2    20.923853   124A1    21.013517  
      85B1    21.029921   125A1    21.041022    70A2    21.208163  
      71A2    21.386192    86B1    21.449489   126A1    21.497683  
     107B2    21.844486    72A2    21.877766   108B2    21.902067  
     127A1    21.972182   109B2    22.042262    87B1    22.056537  
      88B1    22.187941   128A1    22.215337    73A2    22.220817  
      89B1    22.401905   110B2    22.428845   129A1    22.437607  
      74A2    22.441496    90B1    22.539695   111B2    22.592285  
     130A1    22.694819    75A2    22.898679   112B2    22.929648  
     131A1    23.143356   132A1    23.306145   113B2    23.979596  
      76A2    24.063995    91B1    24.066312   114B2    24.200336  
     133A1    24.310650   134A1    24.498613   135A1    24.673319  
      92B1    24.725339    77A2    24.763895   115B2    24.771474  
     116B2    25.072097    93B1    25.572964   136A1    25.644927  
      78A2    25.716053   117B2    25.788683    94B1    25.816021  
      79A2    25.873366   118B2    26.562369   137A1    26.789822  
     138A1    27.128026   119B2    27.464056    80A2    27.489017  
      95B1    27.514531   120B2    27.640636   139A1    27.709362  
     140A1    27.818164   121B2    28.202898    81A2    36.368433  
      96B1    36.418165   141A1    36.619362   122B2    36.859630  
     142A1    39.145339   123B2    40.005621   143A1    62.001238  

    Beta Occupied:                                                        

       1A1   -10.936832     2A1    -0.532582     1B2    -0.244792  
       3A1    -0.046314  

    Beta Virtual:                                                         

       4A1     0.126218     2B2     0.132061     1B1     0.173796  
       5A1     0.177492     3B2     0.201101     6A1     0.237808  
       4B2     0.285420     7A1     0.299948     8A1     0.309137  
       2B1     0.311749     1A2     0.316151     5B2     0.347677  
       3B1     0.347804     9A1     0.362005     6B2     0.372040  
       4B1     0.391037     2A2     0.396419     7B2     0.399407  
      10A1     0.403393    11A1     0.431867    12A1     0.437365  
       8B2     0.471155     5B1     0.513043    13A1     0.570259  
       9B2     0.582503     6B1     0.598511    14A1     0.603041  
       3A2     0.615309     7B1     0.650417    15A1     0.658411  
      10B2     0.671482    11B2     0.675088     4A2     0.686378  
      16A1     0.700351    17A1     0.733014    12B2     0.738432  
       8B1     0.742662     5A2     0.745711     9B1     0.769443  
      18A1     0.775236    13B2     0.798727    19A1     0.805190  
      14B2     0.821533     6A2     0.879668    20A1     0.895400  
      15B2     0.912010    21A1     0.920146    10B1     0.921816  
      16B2     0.974078    22A1     0.979071    11B1     0.980361  
       7A2     1.121707    23A1     1.125689    17B2     1.163605  
      12B1     1.169685    24A1     1.175814    18B2     1.246724  
      25A1     1.276943    13B1     1.281345    26A1     1.334104  
      19B2     1.342088    14B1     1.343904     8A2     1.346512  
      27A1     1.360400    20B2     1.391803     9A2     1.392376  
      15B1     1.396862    10A2     1.400197    21B2     1.428878  
      28A1     1.459889    22B2     1.470774    29A1     1.504975  
      23B2     1.564226    30A1     1.637138    16B1     1.649065  
      11A2     1.657509    12A2     1.665860    24B2     1.667830  
      17B1     1.669998    31A1     1.672420    18B1     1.718685  
      32A1     1.736498    33A1     1.752985    25B2     1.754923  
      19B1     1.758222    34A1     1.764102    35A1     1.776515  
      13A2     1.818448    26B2     1.845200    20B1     1.872185  
      27B2     1.900384    36A1     1.925864    14A2     1.926405  
      28B2     2.000515    37A1     2.012993    21B1     2.124437  
      38A1     2.243388    39A1     2.252384    29B2     2.254037  
      22B1     2.369744    30B2     2.375023    15A2     2.385836  
      23B1     2.409722    16A2     2.469624    31B2     2.481711  
      40A1     2.483902    41A1     2.534204    24B1     2.582030  
      32B2     2.629740    17A2     2.636225    42A1     2.639739  
      33B2     2.688145    25B1     2.725349    34B2     2.729247  
      43A1     2.738627    18A2     2.742694    26B1     2.778597  
      35B2     2.789370    44A1     2.802837    19A2     2.806286  
      45A1     2.820015    36B2     2.870207    20A2     2.891722  
      27B1     2.928828    46A1     2.961219    21A2     2.977246  
      47A1     3.034998    28B1     3.038914    37B2     3.057820  
      38B2     3.091573    48A1     3.125126    29B1     3.164862  
      39B2     3.171301    49A1     3.277517    30B1     3.288349  
      22A2     3.315290    40B2     3.319197    50A1     3.320420  
      31B1     3.394152    41B2     3.395940    51A1     3.401899  
      32B1     3.435764    42B2     3.453523    23A2     3.462050  
      52A1     3.470181    43B2     3.571251    53A1     3.633889  
      33B1     3.647196    54A1     3.660834    24A2     3.673533  
      55A1     3.698204    25A2     3.744552    34B1     3.762329  
      56A1     3.770513    44B2     3.810931    57A1     3.852812  
      45B2     3.940472    35B1     3.952718    46B2     4.067301  
      26A2     4.085052    27A2     4.210691    36B1     4.211627  
      58A1     4.214979    47B2     4.343493    59A1     4.417370  
      37B1     4.513956    28A2     4.522994    60A1     4.531909  
      48B2     4.574738    49B2     4.591803    38B1     4.677165  
      39B1     4.761327    50B2     4.801322    61A1     4.816936  
      62A1     4.843941    29A2     4.923708    63A1     4.954774  
      30A2     5.005873    40B1     5.068740    51B2     5.083118  
      64A1     5.155362    52B2     5.177387    65A1     5.211813  
      31A2     5.221766    41B1     5.258712    53B2     5.318069  
      54B2     5.365820    66A1     5.381701    42B1     5.428207  
      32A2     5.434295    67A1     5.439044    68A1     5.463093  
      33A2     5.465446    55B2     5.484997    43B1     5.491315  
      44B1     5.521735    69A1     5.545959    34A2     5.558372  
      56B2     5.578910    57B2     5.621169    45B1     5.697305  
      58B2     5.729782    70A1     5.735683    35A2     5.799208  
      71A1     5.895279    46B1     5.906431    59B2     5.909180  
      72A1     5.978722    60B2     6.032123    36A2     6.109768  
      73A1     6.139479    37A2     6.150443    47B1     6.186886  
      61B2     6.205831    74A1     6.226496    38A2     6.305562  
      48B1     6.316520    62B2     6.431822    75A1     6.445924  
      39A2     6.541896    76A1     6.546011    77A1     6.593296  
      49B1     6.608124    40A2     6.638088    63B2     6.638193  
      50B1     6.642640    78A1     6.683411    64B2     6.693909  
      65B2     6.807195    51B1     6.809275    79A1     6.817015  
      52B1     6.833766    66B2     6.894827    53B1     6.974859  
      41A2     7.021546    80A1     7.113826    67B2     7.114818  
      68B2     7.179985    81A1     7.198616    42A2     7.256701  
      54B1     7.302124    82A1     7.375537    43A2     7.723586  
      69B2     7.741989    55B1     7.784979    83A1     7.790515  
      44A2     7.914873    70B2     7.920227    84A1     7.993827  
      85A1     8.017940    56B1     8.029250    71B2     8.092226  
      72B2     8.221691    86A1     8.275951    45A2     8.284811  
      87A1     8.342231    57B1     8.457772    46A2     8.471441  
      73B2     8.574989    58B1     8.723335    88A1     8.723897  
      47A2     8.731355    74B2     8.740696    59B1     8.802813  
      89A1     8.918425    75B2     9.157993    90A1     9.158374  
      60B1     9.306249    91A1     9.498243    76B2     9.746268  
      77B2     9.856806    48A2     9.873700    61B1     9.926715  
      92A1     9.959046    78B2    10.072882    49A2    10.139588  
      62B1    10.139970    50A2    10.304850    79B2    10.311945  
      93A1    10.326888    94A1    10.457845    63B1    10.459103  
      51A2    10.547855    80B2    10.589877    95A1    10.605869  
      96A1    10.694888    64B1    10.765714    81B2    10.811293  
      52A2    10.824529    82B2    10.839404    97A1    10.857653  
      98A1    10.961862    53A2    11.100386    99A1    11.115896  
      65B1    11.127006    83B2    11.167548    54A2    11.527026  
      84B2    11.621928    66B1    11.634634   100A1    11.725225  
      67B1    11.824134    85B2    11.895398    86B2    11.966144  
      55A2    12.077285   101A1    12.125962    68B1    12.216547  
     102A1    12.437930    87B2    12.446750    56A2    12.477043  
     103A1    12.852741    88B2    12.869251    69B1    13.173849  
     104A1    13.177871   105A1    13.478058    57A2    13.506611  
     106A1    13.570633    89B2    13.840259    58A2    13.842321  
      90B2    13.889791   107A1    14.019197    70B1    14.074099  
      71B1    14.129097    59A2    14.249495    72B1    14.304775  
      91B2    14.619745    60A2    14.824541   108A1    14.862486  
      73B1    14.965163   109A1    14.997362    74B1    15.018994  
      92B2    15.038066    75B1    15.127771   110A1    15.137766  
      61A2    15.198792    93B2    15.380339   111A1    15.385615  
      94B2    15.464087    62A2    15.478380    76B1    15.530198  
     112A1    15.826954    95B2    16.121244    96B2    16.139079  
      77B1    16.158724   113A1    16.318766    97B2    16.542090  
     114A1    16.747793    78B1    17.011030    63A2    17.215753  
     115A1    17.289458    98B2    17.678088    79B1    17.746871  
     116A1    17.842311   117A1    17.862545    80B1    17.890807  
     118A1    17.906749    99B2    17.918330    64A2    17.927678  
     100B2    18.109105    65A2    18.138441    81B1    18.284291  
     101B2    18.400579    66A2    18.409720   119A1    18.456520  
     120A1    18.845553    67A2    18.932756    82B1    19.050939  
     102B2    19.176946    83B1    19.315526    68A2    19.580100  
     121A1    19.664853   103B2    19.700969   122A1    19.860318  
     104B2    20.384671   123A1    20.524363   105B2    20.848452  
      84B1    20.864916   106B2    20.883705    69A2    20.923876  
     124A1    21.014138    85B1    21.037067   125A1    21.045096  
      70A2    21.212888    71A2    21.389228    86B1    21.452973  
     126A1    21.499675   107B2    21.844749    72A2    21.878197  
     108B2    21.903662   127A1    21.972377   109B2    22.043045  
      87B1    22.058359    88B1    22.189624   128A1    22.215498  
      73A2    22.221475    89B1    22.404521   110B2    22.428908  
     129A1    22.438594    74A2    22.443921    90B1    22.540807  
     111B2    22.592242   130A1    22.697460    75A2    22.904351  
     112B2    22.929605   131A1    23.143680   132A1    23.308891  
     113B2    23.980827    76A2    24.063490    91B1    24.066099  
     114B2    24.200573   133A1    24.310278   134A1    24.498329  
     135A1    24.672820    92B1    24.724828    77A2    24.763353  
     115B2    24.770971   116B2    25.072053    93B1    25.573106  
     136A1    25.644994    78A2    25.716602   117B2    25.788239  
      94B1    25.816770    79A2    25.873771   118B2    26.562197  
     137A1    26.789694   138A1    27.128271   119B2    27.464411  
      80A2    27.490149    95B1    27.515640   120B2    27.640594  
     139A1    27.709616   140A1    27.818721   121B2    28.203879  
      81A2    36.367857    96B1    36.417603   141A1    36.618417  
     122B2    36.858687   142A1    39.144867   123B2    40.005000  
     143A1    62.006738  

    Final Occupation by Irrep:
             A1    A2    B1    B2 
    DOCC [     3,    0,    0,    1 ]
    SOCC [     0,    0,    1,    0 ]

  Energy converged.

  @UHF Final Energy:   -38.90395489695567

   => Energetics <=

    Nuclear Repulsion Energy =              5.9914846340844354
    One-Electron Energy =                 -66.0288530225261354
    Two-Electron Energy =                  21.1334134914860208
    Total Energy =                        -38.9039548969556819


  UHF NO Occupations:
  HONO-2 :    2 A1 1.9982170
  HONO-1 :    3 A1 1.9906547
  HONO-0 :    1 B1 1.0000000
  LUNO+0 :    4 A1 0.0093453
  LUNO+1 :    5 A1 0.0017830
  LUNO+2 :    2 B2 0.0007318
  LUNO+3 :    6 A1 0.0000010



Properties will be evaluated at   0.000000,   0.000000,   0.000000 Bohr

Properties computed using the SCF density matrix

  Nuclear Dipole Moment: (a.u.)
     X:     0.0000      Y:     0.0000      Z:    -1.1143

  Electronic Dipole Moment: (a.u.)
     X:     0.0000      Y:     0.0000      Z:     0.3487

  Dipole Moment: (a.u.)
     X:     0.0000      Y:     0.0000      Z:    -0.7656     Total:     0.7656

  Dipole Moment: (Debye)
     X:     0.0000      Y:     0.0000      Z:    -1.9459     Total:     1.9459


*** tstop() called on n412-020.vsc4.prov at Fri Oct 30 15:27:54 2020
Module time:
	user time   =    1883.46 seconds =      31.39 minutes
	system time =     207.66 seconds =       3.46 minutes
	total time  =       2414 seconds =      40.23 minutes
Total time:
	user time   =    1883.46 seconds =      31.39 minutes
	system time =     207.66 seconds =       3.46 minutes
	total time  =       2414 seconds =      40.23 minutes

*** tstart() called on n412-020.vsc4.prov
*** at Fri Oct 30 15:27:54 2020


	Wfn Parameters:
	--------------------
	Wavefunction         = CCSD
	Number of irreps     = 4
	Number of MOs        = 443
	Number of active MOs = 442
	AO-Basis             = NONE
	Semicanonical        = false
	Reference            = UHF
	Print Level          = 1

	IRREP	# MOs	# FZDC	# DOCC	# SOCC	# VIRT	# FZVR
	-----	-----	------	------	------	------	------
	 A1	   143	    1	    2	    0	    140	    0
	 A2	   81	    0	    0	    0	    81	    0
	 B1	   96	    0	    0	    1	    95	    0
	 B2	   123	    0	    1	    0	    122	    0
	Transforming integrals...
	IWL integrals will be deleted.
	(OO|OO)...
	Presorting SO-basis two-electron integrals.
	Sorting File: SO Ints (nn|nn) nbuckets = 1
	Transforming the one-electron integrals and constructing Fock matrices
	Starting AA/AB first half-transformation.
	Sorting AA/AB half-transformed integrals.
	Starting BB first half-transformation.
	Sorting BB half-transformed integrals.
	First half integral transformation complete.
	Starting AA second half-transformation.
	Starting AB second half-transformation.
	Starting BB second half-transformation.
	Two-electron integral transformation complete.
	(OO|OV)...
	Starting AA second half-transformation.
	Starting AB second half-transformation.
	Starting BB second half-transformation.
	Two-electron integral transformation complete.
	(OO|VV)...
	Starting AA second half-transformation.
	Starting AB second half-transformation.
	Starting BB second half-transformation.
	Two-electron integral transformation complete.
	(OV|OO)...
	Starting AA/AB first half-transformation.
	Sorting AA/AB half-transformed integrals.
	Starting BB first half-transformation.
	Sorting BB half-transformed integrals.
	First half integral transformation complete.
	Starting AA second half-transformation.
	Starting AB second half-transformation.
	Starting BB second half-transformation.
	Two-electron integral transformation complete.
	(OV|OV)...
	Starting AA second half-transformation.
	Starting AB second half-transformation.
	Starting BB second half-transformation.
	Two-electron integral transformation complete.
	(OV|VV)...
	Starting AA second half-transformation.
	Starting AB second half-transformation.
	Starting BB second half-transformation.
	Two-electron integral transformation complete.
	(VV|OO)...
	Starting AA/AB first half-transformation.
	Sorting AA/AB half-transformed integrals.
	Starting BB first half-transformation.
	Sorting BB half-transformed integrals.
	First half integral transformation complete.
	Starting AA second half-transformation.
	Starting AB second half-transformation.
	Starting BB second half-transformation.
	Two-electron integral transformation complete.
	(VV|OV)...
	Starting AA second half-transformation.
	Starting AB second half-transformation.
	Starting BB second half-transformation.
	Two-electron integral transformation complete.
	(VV|VV)...
	Starting AA second half-transformation.
	Starting AB second half-transformation.
	Starting BB second half-transformation.
	Two-electron integral transformation complete.
	Frozen core energy     =    -34.25627607977696

	Size of irrep 0 of <AB|CD> integrals:    615.834 (MW) /   4926.671 (MB)
	Size of irrep 1 of <AB|CD> integrals:    525.785 (MW) /   4206.279 (MB)
	Size of irrep 2 of <AB|CD> integrals:    537.405 (MW) /   4299.241 (MB)
	Size of irrep 3 of <AB|CD> integrals:    613.801 (MW) /   4910.405 (MB)
	Total:                                  2292.825 (MW) /  18342.596 (MB)

	Size of irrep 0 of <ab|cd> integrals:    620.558 (MW) /   4964.463 (MB)
	Size of irrep 1 of <ab|cd> integrals:    531.395 (MW) /   4251.158 (MB)
	Size of irrep 2 of <ab|cd> integrals:    543.916 (MW) /   4351.325 (MB)
	Size of irrep 3 of <ab|cd> integrals:    617.821 (MW) /   4942.566 (MB)
	Total:                                  2313.689 (MW) /  18509.512 (MB)

	Size of irrep 0 of <Ab|Cd> integrals:   2516.527 (MW) /  20132.218 (MB)
	Size of irrep 1 of <Ab|Cd> integrals:   2114.344 (MW) /  16914.755 (MB)
	Size of irrep 2 of <Ab|Cd> integrals:   2162.622 (MW) /  17300.976 (MB)
	Size of irrep 3 of <Ab|Cd> integrals:   2463.236 (MW) /  19705.889 (MB)
	Total:                                  9256.730 (MW) /  74053.838 (MB)

	Size of irrep 0 of <IA|BC> integrals:     24.885 (MW) /    199.078 (MB)
	Size of irrep 1 of <IA|BC> integrals:     17.381 (MW) /    139.048 (MB)
	Size of irrep 2 of <IA|BC> integrals:     19.056 (MW) /    152.445 (MB)
	Size of irrep 3 of <IA|BC> integrals:     23.041 (MW) /    184.326 (MB)
	Total:                                    84.362 (MW) /    674.897 (MB)

	Size of irrep 0 of <ia|bc> integrals:     20.205 (MW) /    161.639 (MB)
	Size of irrep 1 of <ia|bc> integrals:     11.895 (MW) /     95.159 (MB)
	Size of irrep 2 of <ia|bc> integrals:     12.734 (MW) /    101.870 (MB)
	Size of irrep 3 of <ia|bc> integrals:     19.089 (MW) /    152.715 (MB)
	Total:                                    63.923 (MW) /    511.384 (MB)

	Size of irrep 0 of <Ia|Bc> integrals:     24.982 (MW) /    199.857 (MB)
	Size of irrep 1 of <Ia|Bc> integrals:     17.473 (MW) /    139.785 (MB)
	Size of irrep 2 of <Ia|Bc> integrals:     19.206 (MW) /    153.649 (MB)
	Size of irrep 3 of <Ia|Bc> integrals:     23.078 (MW) /    184.627 (MB)
	Total:                                    84.740 (MW) /    677.919 (MB)

	Size of irrep 0 of <iA|bC> integrals:     20.166 (MW) /    161.331 (MB)
	Size of irrep 1 of <iA|bC> integrals:     11.817 (MW) /     94.539 (MB)
	Size of irrep 2 of <iA|bC> integrals:     12.603 (MW) /    100.821 (MB)
	Size of irrep 3 of <iA|bC> integrals:     19.058 (MW) /    152.466 (MB)
	Total:                                    63.645 (MW) /    509.157 (MB)

	Size of irrep 0 of tIjAb amplitudes:       0.251 (MW) /      2.007 (MB)
	Size of irrep 1 of tIjAb amplitudes:       0.046 (MW) /      0.368 (MB)
	Size of irrep 2 of tIjAb amplitudes:       0.093 (MW) /      0.744 (MB)
	Size of irrep 3 of tIjAb amplitudes:       0.199 (MW) /      1.588 (MB)
	Total:                                     0.588 (MW) /      4.707 (MB)

	Nuclear Rep. energy          =      5.99148463408444
	SCF energy                   =    -38.90395489695567
	One-electron energy          =    -19.40980421547744
	Two-electron (AA) energy     =      2.29658460485087
	Two-electron (BB) energy     =      1.06537501354934
	Two-electron (AB) energy     =      5.40868114581359
	Two-electron energy          =      8.77064076421380
	Reference energy             =    -38.90395489695616

*** tstop() called on n412-020.vsc4.prov at Fri Oct 30 16:08:54 2020
Module time:
	user time   =   10878.28 seconds =     181.30 minutes
	system time =     625.57 seconds =      10.43 minutes
	total time  =       2460 seconds =      41.00 minutes
Total time:
	user time   =   12761.76 seconds =     212.70 minutes
	system time =     833.24 seconds =      13.89 minutes
	total time  =       4874 seconds =      81.23 minutes

*** tstart() called on n412-020.vsc4.prov
*** at Fri Oct 30 16:08:54 2020

            **************************
            *                        *
            *        CCENERGY        *
            *                        *
            **************************

    Nuclear Rep. energy (wfn)     =    5.991484634084435
    SCF energy          (wfn)     =  -38.903954896955675
    Reference energy    (file100) =  -38.903954896956158

    Input parameters:
    -----------------
    Wave function   =     CCSD
    Reference wfn   =     UHF
    Brueckner       =     No
    Memory (Mbytes) =     250000.0
    Maxiter         =     50
    R_Convergence   =     1.0e-07
    E_Convergence   =     1.0e-06
    Restart         =     Yes
    DIIS            =     Yes
    AO Basis        =     NONE
    ABCD            =     NEW
    Cache Level     =     2
    Cache Type      =     LRU
    Print Level     =     1
    Num. of threads =     48
    # Amps to Print =     10
    Print MP2 Amps? =     No
    Analyze T2 Amps =     No
    Print Pair Ener =     No
    Local CC        =     No
    SCS-MP2         =     False
    SCSN-MP2        =     False
    SCS-CCSD        =     False

MP2 correlation energy -0.1879712424649374
                Solving CC Amplitude Equations
                ------------------------------
  Iter             Energy              RMS        T1Diag      D1Diag    New D1Diag    D2Diag
  ----     ---------------------    ---------   ----------  ----------  ----------   --------
     0        -0.187971242464957    0.000e+00    0.000000    0.000000    0.000000    0.000000
     1        -0.193261527687554    5.638e-02    0.015495    0.000000    0.000000    0.000000
     2        -0.198550855213929    2.227e-02    0.018498    0.000000    0.000000    0.000000
     3        -0.200316489590656    1.470e-02    0.023780    0.000000    0.000000    0.000000
     4        -0.200313008989028    7.116e-03    0.027040    0.000000    0.000000    0.000000
     5        -0.200264525719360    4.349e-03    0.029527    0.000000    0.000000    0.000000
     6        -0.200297354403369    2.042e-03    0.030451    0.000000    0.000000    0.000000
     7        -0.200302649609667    1.096e-03    0.030756    0.000000    0.000000    0.000000
     8        -0.200299332763885    5.033e-04    0.030794    0.000000    0.000000    0.000000
     9        -0.200311742211067    2.724e-04    0.030828    0.000000    0.000000    0.000000
    10        -0.200307718977990    1.674e-04    0.030830    0.000000    0.000000    0.000000
    11        -0.200306974768435    8.683e-05    0.030818    0.000000    0.000000    0.000000
    12        -0.200306771053870    5.019e-05    0.030826    0.000000    0.000000    0.000000
    13        -0.200306425590407    2.544e-05    0.030823    0.000000    0.000000    0.000000
    14        -0.200306548346285    1.404e-05    0.030823    0.000000    0.000000    0.000000
    15        -0.200306645645341    8.863e-06    0.030821    0.000000    0.000000    0.000000
    16        -0.200306588923429    5.039e-06    0.030820    0.000000    0.000000    0.000000
    17        -0.200306544446721    3.151e-06    0.030819    0.000000    0.000000    0.000000
    18        -0.200306561482160    1.648e-06    0.030819    0.000000    0.000000    0.000000
    19        -0.200306546614691    8.970e-07    0.030819    0.000000    0.000000    0.000000
    20        -0.200306544677845    5.441e-07    0.030819    0.000000    0.000000    0.000000
    21        -0.200306549973312    2.577e-07    0.030819    0.000000    0.000000    0.000000
    22        -0.200306549337408    1.407e-07    0.030819    0.000000    0.000000    0.000000
    23        -0.200306549483816    7.677e-08    0.030819    0.000000    0.000000    0.000000
    23        -0.200306549483816    7.677e-08    0.030819    0.000000    0.000000    0.000000

    Iterations converged.


    CCSD corr. energy   =   -0.200306549483816
    PPL corr. energy    =    0.059049418505137
    OS PPL corr. energy =    0.051365052200763
    SS PPL corr. energy =    0.007684366304370
    Largest TIA Amplitudes:
              2 221        -0.0464209370
              1   1         0.0298856446
              2 222        -0.0190820214
              2 224        -0.0174177800
              1   6        -0.0150555180
              1   4        -0.0122741668
              1   7        -0.0084721865
              2 225        -0.0066969276
              2 226        -0.0065610580
              0   6         0.0063664487

    Largest Tia Amplitudes:
              1   6         0.0146332300
              1  17        -0.0117614221
              1   2        -0.0107634837
              2 324         0.0094908922
              2 330         0.0090075650
              1   0         0.0085770515
              0  15        -0.0084181769
              1   4        -0.0080323225
              0   9        -0.0074483750
              1  18         0.0074129447

    Largest TIJAB Amplitudes:
      2   1 224   6        -0.0162366593
      2   1 224   1         0.0139551003
      3   1 323  10         0.0127853078
      2   1 221   6        -0.0126184814
      2   1 221   1         0.0126013631
      3   2 322 224        -0.0124620292
      2   1 230   6        -0.0115224568
      3   2 142   9        -0.0113956452
      2   1 224  18        -0.0110030267
      3   2 330 224        -0.0107398673

    Largest Tijab Amplitudes:
      2   1 324  10         0.0109885070
      2   1 324  16         0.0107576142
      2   1 324   4        -0.0093401221
      2   1 330  16         0.0091960792
      2   1 324   9        -0.0090301397
      2   1 324  19        -0.0085094610
      2   1 330  10         0.0084921806
      2   1 330  19        -0.0078505381
      2   1 324   7        -0.0071213348
      2   1 324   1         0.0067827053

    Largest TIjAb Amplitudes:
      1   1 323 324        -0.0288635586
      3   2 323 324        -0.0285051906
      1   1   6   6        -0.0265889727
      2   1 224   1         0.0250519109
      2   1 224   6        -0.0242901149
      2   1 221   1         0.0234100284
      3   2 323 330        -0.0229473416
      3   2 329 330        -0.0227608436
      3   2 329 324        -0.0220578551
      2   1 224   7        -0.0214797096

    SCF energy       (wfn)                    =  -38.903954896955675
    Reference energy (file100)                =  -38.903954896956158

    Opposite-spin MP2 correlation energy      =   -0.150143192628275
    Same-spin MP2 correlation energy          =   -0.037828049836268
    MP2 correlation energy                    =   -0.187971242464937
      * MP2 total energy                      =  -39.091926139421098

    Opposite-spin CCSD correlation energy     =   -0.164578728123941
    Same-spin CCSD correlation energy         =   -0.035727823617796
    CCSD correlation energy                   =   -0.200306549483816
      * CCSD total energy                     =  -39.104261446439978


*** tstop() called on n412-020.vsc4.prov at Fri Oct 30 17:36:29 2020
Module time:
	user time   =   15215.58 seconds =     253.59 minutes
	system time =    2015.48 seconds =      33.59 minutes
	total time  =       5255 seconds =      87.58 minutes
Total time:
	user time   =   27977.34 seconds =     466.29 minutes
	system time =    2848.72 seconds =      47.48 minutes
	total time  =      10129 seconds =     168.82 minutes

*** Psi4 exiting successfully. Buy a developer a beer!
