
    -----------------------------------------------------------------------
          Psi4: An Open-Source Ab Initio Electronic Structure Package
                               Psi4 1.2a1.dev938 

                         Git: Rev {HEAD} fc51d9a dirty


    R. M. Parrish, L. A. Burns, D. G. A. Smith, A. C. Simmonett,
    A. E. DePrince III, E. G. Hohenstein, U. Bozkaya, A. Yu. Sokolov,
    R. Di Remigio, R. M. Richard, J. F. Gonthier, A. M. James,
    H. R. McAlexander, A. Kumar, M. Saitow, X. Wang, B. P. Pritchard,
    P. Verma, H. F. Schaefer III, K. Patkowski, R. A. King, E. F. Valeev,
    F. A. Evangelista, J. M. Turney, T. D. Crawford, and C. D. Sherrill,
    J. Chem. Theory Comput. 13(7) pp 3185--3197 (2017).
    (doi: 10.1021/acs.jctc.7b00174)

    -----------------------------------------------------------------------


    Psi4 started on: Thursday, 20 August 2020 11:48PM

    Process ID: 425997
    PSIDATADIR: /home/irmler/Programs/psi4/beforeGrueneis3/stage/usr/local/psi4/share/psi4
    Memory:     500.0 MiB
    Threads:    4
    
  ==> Input File <==

--------------------------------------------------------------------------
# Any line starting with the # character is a comment line
memory 250000 mb
molecule molecule{
-1 2
C          0.0000000000        0.0000000000        0.0997578423
H          0.0000000000        0.8741780617       -0.5943763735
H          0.0000000000       -0.8741780617       -0.5943763735
}

set {
  reference uhf
  basis aug-cc-pv(5+d)z
  scf_type OUT_OF_CORE
  freeze_core true
}

energy('ccsd')
--------------------------------------------------------------------------

  Memory set to 232.831 GiB by Python driver.

*** tstart() called on cqc05
*** at Thu Aug 20 23:48:45 2020

   => Loading Basis Set <=

    Name: AUG-CC-PV(5+D)Z
    Role: ORBITAL
    Keyword: BASIS
    atoms 1   entry C          line   223 file /home/irmler/Programs/psi4/beforeGrueneis3/stage/usr/local/psi4/share/psi4/basis/aug-cc-pv_5pd_z.gbs 
    atoms 2-3 entry H          line    56 file /home/irmler/Programs/psi4/beforeGrueneis3/stage/usr/local/psi4/share/psi4/basis/aug-cc-pv_5pd_z.gbs 


         ---------------------------------------------------------
                                   SCF
            by Justin Turney, Rob Parrish, Andy Simmonett
                             and Daniel Smith
                              UHF Reference
                        4 Threads, 238418 MiB Core
         ---------------------------------------------------------

  ==> Geometry <==

    Molecular point group: c2v
    Full point group: C2v

    Geometry (in Angstrom), charge = -1, multiplicity = 2:

       Center              X                  Y                   Z               Mass       
    ------------   -----------------  -----------------  -----------------  -----------------
           C         -0.000000000000     0.000000000000     0.099826384805    12.000000000000
           H         -0.000000000000     0.874178061700    -0.594307830995     1.007825032070
           H          0.000000000000    -0.874178061700    -0.594307830995     1.007825032070

  Running in c2v symmetry.

  Rotational constants: A =     20.27339  B =     10.94414  C =      7.10738 [cm^-1]
  Rotational constants: A = 607781.04843  B = 328096.99502  C = 213073.84762 [MHz]
  Nuclear repulsion =    5.991484634084435

  Charge       = -1
  Multiplicity = 2
  Electrons    = 9
  Nalpha       = 5
  Nbeta        = 4

  ==> Algorithm <==

  SCF Algorithm Type is OUT_OF_CORE.
  DIIS enabled.
  MOM disabled.
  Fractional occupation disabled.
  Guess Type is GWH.
  Energy threshold   = 1.00e-08
  Density threshold  = 1.00e-08
  Integral threshold = 0.00e+00

  ==> Primary Basis <==

  Basis Set: AUG-CC-PV(5+D)Z
    Blend: AUG-CC-PV(5+D)Z
    Number of shells: 67
    Number of basis function: 287
    Number of Cartesian functions: 392
    Spherical Harmonics?: true
    Max angular momentum: 5

  ==> Pre-Iterations <==

   -------------------------------------------------------
    Irrep   Nso     Nmo     Nalpha   Nbeta   Ndocc  Nsocc
   -------------------------------------------------------
     A1        96      96       0       0       0       0
     A2        49      49       0       0       0       0
     B1        61      61       0       0       0       0
     B2        81      81       0       0       0       0
   -------------------------------------------------------
    Total     287     287       5       4       4       1
   -------------------------------------------------------

  ==> Integral Setup <==

  ==> DiskJK: Disk-Based J/K Matrices <==

    J tasked:                  Yes
    K tasked:                  Yes
    wK tasked:                  No
    Memory (MB):            178813
    Schwarz Cutoff:          1E-12

  Minimum eigenvalue in the overlap matrix is 9.7488352914E-06.
  Using Symmetric Orthogonalization.

  SCF Guess: Generalized Wolfsberg-Helmholtz.

  ==> Iterations <==

                        Total Energy        Delta E     RMS |[F,P]|

    Occupation by irrep:
             A1    A2    B1    B2 
    DOCC [     3,    0,    1,    0 ]
    SOCC [     0,    0,    0,    1 ]

   @UHF iter   1:    25.97427653968462    2.59743e+01   2.04919e-01 
    Occupation by irrep:
             A1    A2    B1    B2 
    DOCC [     3,    0,    0,    1 ]
    SOCC [     0,    0,    0,    1 ]

   @UHF iter   2:   -37.76202343628487   -6.37363e+01   1.67596e-02 DIIS
    Occupation by irrep:
             A1    A2    B1    B2 
    DOCC [     3,    0,    0,    1 ]
    SOCC [     0,    0,    1,    0 ]

   @UHF iter   3:   -36.38176127002388    1.38026e+00   1.20961e-02 DIIS
   @UHF iter   4:   -38.57470866815781   -2.19295e+00   9.35040e-03 DIIS
   @UHF iter   5:   -38.76277126865244   -1.88063e-01   5.68738e-03 DIIS
   @UHF iter   6:   -38.89001621238292   -1.27245e-01   1.44004e-03 DIIS
   @UHF iter   7:   -38.90315790238364   -1.31417e-02   2.40396e-04 DIIS
   @UHF iter   8:   -38.90367446660110   -5.16564e-04   1.30153e-04 DIIS
   @UHF iter   9:   -38.90382580694587   -1.51340e-04   4.33189e-05 DIIS
   @UHF iter  10:   -38.90385657104534   -3.07641e-05   1.88749e-05 DIIS
   @UHF iter  11:   -38.90386856701757   -1.19960e-05   1.07651e-05 DIIS
   @UHF iter  12:   -38.90387413809444   -5.57108e-06   5.23529e-06 DIIS
   @UHF iter  13:   -38.90387553075533   -1.39266e-06   2.44851e-06 DIIS
   @UHF iter  14:   -38.90387586651574   -3.35760e-07   7.63347e-07 DIIS
   @UHF iter  15:   -38.90387588581764   -1.93019e-08   2.97583e-07 DIIS
   @UHF iter  16:   -38.90387588861007   -2.79243e-09   1.22893e-07 DIIS
   @UHF iter  17:   -38.90387588908995   -4.79872e-10   4.70808e-08 DIIS
   @UHF iter  18:   -38.90387588916025   -7.03011e-11   1.53091e-08 DIIS
   @UHF iter  19:   -38.90387588916386   -3.60956e-12   5.51348e-09 DIIS

  ==> Post-Iterations <==

   @Spin Contamination Metric:   2.299269685E-02
   @S^2 Expected:                7.500000000E-01
   @S^2 Observed:                7.729926969E-01
   @S   Expected:                5.000000000E-01
   @S   Observed:                5.000000000E-01

    Orbital Energies (a.u.)
    -----------------------

    Alpha Occupied:                                                       

       1A1   -10.956447     2A1    -0.614146     1B2    -0.258381  
       3A1    -0.099022     1B1    -0.072249  

    Alpha Virtual:                                                        

       4A1     0.134539     2B2     0.138904     5A1     0.193930  
       2B1     0.198950     3B2     0.217711     6A1     0.256318  
       4B2     0.325065     7A1     0.334164     8A1     0.347434  
       1A2     0.348236     3B1     0.355314     5B2     0.387381  
       9A1     0.399379     6B2     0.401956     4B1     0.416508  
       2A2     0.432803    10A1     0.437327     7B2     0.458861  
      11A1     0.477646    12A1     0.536591     5B1     0.542425  
       8B2     0.594411    13A1     0.647583    14A1     0.691839  
       3A2     0.693142     9B2     0.694152     6B1     0.702345  
       7B1     0.756832    10B2     0.775980    15A1     0.794732  
      11B2     0.811494     4A2     0.822172    16A1     0.829896  
       8B1     0.853332     9B1     0.862298    17A1     0.864921  
       5A2     0.872186    12B2     0.874614    18A1     0.882539  
      19A1     0.897971    13B2     0.908230    14B2     0.960702  
      15B2     0.985638     6A2     0.986104    10B1     1.032798  
      20A1     1.038603    21A1     1.068348    11B1     1.232009  
      22A1     1.251992     7A2     1.328901    23A1     1.338100  
      16B2     1.341597    12B1     1.358182    17B2     1.368964  
      24A1     1.477623    25A1     1.496342    13B1     1.529470  
       8A2     1.566439    18B2     1.569726    26A1     1.580245  
      19B2     1.601215     9A2     1.622701    14B1     1.643282  
      20B2     1.644636    27A1     1.648458    21B2     1.648831  
      15B1     1.651505    10A2     1.674274    28A1     1.700286  
      22B2     1.768397    29A1     1.786900    23B2     1.822678  
      16B1     1.911547    11A2     1.932423    30A1     1.964656  
      17B1     1.969587    31A1     1.990033    18B1     2.007518  
      12A2     2.042459    24B2     2.047635    32A1     2.106037  
      33A1     2.121440    25B2     2.150119    34A1     2.163749  
      19B1     2.166395    13A2     2.228250    26B2     2.276793  
      27B2     2.290368    14A2     2.349096    35A1     2.349831  
      20B1     2.361273    36A1     2.418051    28B2     2.534746  
      37A1     2.636627    21B1     2.754466    38A1     2.761035  
      29B2     2.882837    15A2     2.894967    39A1     2.917870  
      30B2     3.007915    22B1     3.008524    16A2     3.030332  
      23B1     3.031887    40A1     3.144715    31B2     3.174714  
      41A1     3.211471    24B1     3.314125    32B2     3.318102  
      42A1     3.328659    17A2     3.407211    33B2     3.467817  
      25B1     3.476191    18A2     3.504837    43A1     3.525478  
      44A1     3.586043    34B2     3.590526    35B2     3.639405  
      26B1     3.644502    19A2     3.648364    45A1     3.695179  
      27B1     3.757354    36B2     3.758831    20A2     3.765585  
      46A1     3.805897    37B2     3.821655    21A2     3.901577  
      38B2     3.922313    47A1     3.923073    28B1     3.987267  
      29B1     4.035865    48A1     4.054656    39B2     4.112013  
      40B2     4.226712    49A1     4.273100    41B2     4.306236  
      30B1     4.313141    22A2     4.329208    50A1     4.344873  
      31B1     4.374814    51A1     4.417323    52A1     4.483524  
      23A2     4.491937    42B2     4.522023    32B1     4.528940  
      53A1     4.607315    24A2     4.653702    33B1     4.690866  
      43B2     4.718224    34B1     4.722889    25A2     4.732367  
      54A1     4.785244    55A1     4.838674    44B2     4.965307  
      45B2     4.999968    35B1     5.010397    26A2     5.080851  
      56A1     5.098704    57A1     5.187187    27A2     5.375642  
      58A1     5.472503    36B1     5.480769    46B2     5.502040  
      47B2     5.652316    28A2     5.653804    48B2     5.705507  
      59A1     5.784049    60A1     5.935605    37B1     6.047456  
      49B2     6.085164    38B1     6.199496    61A1     6.237928  
      39B1     6.288718    29A2     6.350465    50B2     6.373766  
      51B2     6.529058    62A1     6.562306    63A1     6.599964  
      30A2     6.677598    52B2     6.818642    40B1     6.874031  
      53B2     6.895116    64A1     6.959168    65A1     7.034088  
      31A2     7.064739    32A2     7.237446    41B1     7.298406  
      66A1     7.710520    54B2     7.830229    55B2     7.919893  
      67A1     8.089301    42B1     8.134386    33A2     8.164512  
      56B2     8.241926    57B2     8.401713    68A1     8.419492  
      69A1     9.385567    43B1     9.406952    70A1     9.482961  
      44B1     9.501287    58B2     9.567719    45B1     9.647978  
      34A2     9.753658    46B1     9.869680    71A1    10.056572  
      59B2    10.107113    35A2    10.200412    60B2    10.464652  
      72A1    10.549591    73A1    10.666722    47B1    10.761275  
      36A2    10.768106    74A1    10.790212    61B2    10.808080  
      37A2    10.836362    48B1    10.892844    75A1    10.937804  
      62B2    11.028494    49B1    11.276539    63B2    11.339169  
      76A1    11.360816    77A1    11.630516    78A1    11.919127  
      50B1    11.973582    38A2    12.005148    64B2    12.101833  
      65B2    12.469514    79A1    13.004885    51B1    13.057693  
      39A2    13.354414    80A1    13.485907    52B1    13.497898  
      40A2    13.506751    41A2    13.533082    66B2    13.550822  
      81A1    13.568284    82A1    13.628620    67B2    13.727600  
      42A2    13.757143    53B1    13.776003    68B2    13.800564  
      69B2    13.926297    83A1    14.010382    54B1    14.055854  
      84A1    14.186356    55B1    14.377173    70B2    14.440838  
      85A1    14.660116    43A2    14.696663    56B1    14.702666  
      44A2    14.714847    71B2    14.765819    45A2    14.879112  
      57B1    14.905463    86A1    15.008643    72B2    15.071623  
      87A1    15.136487    46A2    15.212257    58B1    15.336037  
      73B2    15.337538    88A1    15.406387    74B2    15.470570  
      59B1    15.481347    75B2    15.794541    89A1    15.800103  
      47A2    15.908351    90A1    16.143753    76B2    16.155931  
      91A1    16.393611    77B2    16.873447    60B1    18.076544  
      48A2    18.137539    49A2    18.246363    61B1    18.261347  
      92A1    18.278068    78B2    18.290756    93A1    18.471324  
      79B2    18.876816    94A1    19.383389    80B2    19.430385  
      95A1    21.127197    81B2    21.153062    96A1    40.643311  

    Beta Occupied:                                                        

       1A1   -10.936669     2A1    -0.532484     1B2    -0.244639  
       3A1    -0.046506  

    Beta Virtual:                                                         

       4A1     0.134785     2B2     0.138964     1B1     0.191558  
       5A1     0.196293     3B2     0.217532     6A1     0.259605  
       4B2     0.325536     7A1     0.334747     2B1     0.335269  
       8A1     0.351271     1A2     0.352798     3B1     0.385208  
       5B2     0.386948     6B2     0.399913     9A1     0.406084  
       2A2     0.435868    10A1     0.437366     4B1     0.439720  
       7B2     0.462071    11A1     0.485323    12A1     0.545576  
       8B2     0.598142     5B1     0.620235    13A1     0.652239  
       9B2     0.696354    14A1     0.704956     3A2     0.704990  
       6B1     0.720008     7B1     0.763103    10B2     0.775489  
      15A1     0.795802    11B2     0.813925     4A2     0.824170  
      16A1     0.838869     8B1     0.860092     9B1     0.866139  
      17A1     0.869629     5A2     0.874557    12B2     0.877430  
      18A1     0.899029    19A1     0.902397    13B2     0.914960  
      14B2     0.960954    15B2     0.989008     6A2     1.012563  
      20A1     1.052508    10B1     1.058731    21A1     1.088681  
      22A1     1.255471    11B1     1.300107     7A2     1.336655  
      16B2     1.343721    23A1     1.343970    12B1     1.367783  
      17B2     1.370090    24A1     1.477405    25A1     1.505554  
      13B1     1.532708     8A2     1.567623    18B2     1.572650  
      26A1     1.591514    19B2     1.603156     9A2     1.627136  
      20B2     1.650079    27A1     1.652325    14B1     1.653263  
      15B1     1.653917    21B2     1.660233    10A2     1.676447  
      28A1     1.708510    22B2     1.768556    29A1     1.794616  
      23B2     1.824775    16B1     1.925423    11A2     1.969916  
      30A1     1.974847    17B1     1.999645    31A1     2.005918  
      18B1     2.023941    12A2     2.050093    24B2     2.055003  
      32A1     2.126166    33A1     2.131361    25B2     2.152091  
      34A1     2.175839    19B1     2.179397    13A2     2.234369  
      26B2     2.281374    27B2     2.296868    35A1     2.354136  
      14A2     2.360367    20B1     2.375373    36A1     2.432384  
      28B2     2.538206    37A1     2.649687    38A1     2.762168  
      21B1     2.788817    29B2     2.888960    15A2     2.899274  
      39A1     2.925155    30B2     3.013393    22B1     3.019404  
      16A2     3.036883    23B1     3.049737    40A1     3.151489  
      31B2     3.176392    41A1     3.215868    24B1     3.317304  
      32B2     3.322388    42A1     3.338189    17A2     3.414341  
      33B2     3.470693    25B1     3.482382    18A2     3.510198  
      43A1     3.527878    44A1     3.589792    34B2     3.591885  
      35B2     3.641466    26B1     3.646719    19A2     3.659279  
      45A1     3.698626    36B2     3.761389    27B1     3.766080  
      20A2     3.775246    46A1     3.812447    37B2     3.825844  
      21A2     3.902702    38B2     3.924681    47A1     3.932004  
      28B1     4.012961    29B1     4.050573    48A1     4.066951  
      39B2     4.119606    40B2     4.241086    49A1     4.286751  
      41B2     4.310552    30B1     4.325557    22A2     4.341494  
      50A1     4.353886    31B1     4.393131    51A1     4.429252  
      52A1     4.494836    23A2     4.500659    42B2     4.531356  
      32B1     4.540816    53A1     4.617508    24A2     4.663589  
      33B1     4.701793    43B2     4.721600    34B1     4.740207  
      25A2     4.749309    54A1     4.790698    55A1     4.853018  
      44B2     4.968810    45B2     5.011179    35B1     5.023740  
      26A2     5.088498    56A1     5.103875    57A1     5.206704  
      27A2     5.380901    58A1     5.479562    36B1     5.497339  
      46B2     5.505902    47B2     5.656796    28A2     5.664262  
      48B2     5.710769    59A1     5.790375    60A1     5.949801  
      37B1     6.052264    49B2     6.088964    38B1     6.202274  
      61A1     6.238738    39B1     6.302888    29A2     6.351108  
      50B2     6.377087    51B2     6.531980    62A1     6.569279  
      63A1     6.605960    30A2     6.693172    52B2     6.825246  
      40B1     6.883466    53B2     6.897369    64A1     6.965454  
      65A1     7.038179    31A2     7.070988    32A2     7.243929  
      41B1     7.304524    66A1     7.712776    54B2     7.831893  
      55B2     7.921956    67A1     8.092620    42B1     8.143734  
      33A2     8.173045    56B2     8.245997    57B2     8.407148  
      68A1     8.422077    69A1     9.401090    43B1     9.420973  
      70A1     9.497664    44B1     9.529732    58B2     9.578942  
      45B1     9.666696    34A2     9.766459    46B1     9.881792  
      71A1    10.067067    59B2    10.117984    35A2    10.208246  
      60B2    10.472111    72A1    10.558286    73A1    10.684861  
      47B1    10.780115    36A2    10.786829    74A1    10.807648  
      61B2    10.823763    37A2    10.848199    48B1    10.907211  
      75A1    10.955217    62B2    11.042904    49B1    11.293979  
      63B2    11.345135    76A1    11.371873    77A1    11.639262  
      78A1    11.926605    50B1    11.992401    38A2    12.021400  
      64B2    12.108430    65B2    12.475406    79A1    13.018521  
      51B1    13.076679    39A2    13.370830    80A1    13.486581  
      52B1    13.498374    40A2    13.506819    41A2    13.533684  
      66B2    13.551240    81A1    13.574565    82A1    13.629972  
      67B2    13.729259    42A2    13.758288    53B1    13.777387  
      68B2    13.802525    69B2    13.927860    83A1    14.011522  
      54B1    14.056704    84A1    14.188635    55B1    14.378576  
      70B2    14.441717    85A1    14.659335    43A2    14.696115  
      56B1    14.702167    44A2    14.716051    71B2    14.765070  
      45A2    14.880465    57B1    14.906513    86A1    15.008934  
      72B2    15.071898    87A1    15.136961    46A2    15.214236  
      58B1    15.338255    73B2    15.338513    88A1    15.406966  
      74B2    15.470719    59B1    15.482944    75B2    15.795832  
      89A1    15.799977    47A2    15.910737    90A1    16.145581  
      76B2    16.156154    91A1    16.393315    77B2    16.873799  
      60B1    18.080436    48A2    18.140127    49A2    18.247652  
      61B1    18.261334    92A1    18.279353    78B2    18.290808  
      93A1    18.470134    79B2    18.876667    94A1    19.385078  
      80B2    19.432045    95A1    21.127369    81B2    21.153321  
      96A1    40.651482  

    Final Occupation by Irrep:
             A1    A2    B1    B2 
    DOCC [     3,    0,    0,    1 ]
    SOCC [     0,    0,    1,    0 ]

  Energy converged.

  @UHF Final Energy:   -38.90387588916386

   => Energetics <=

    Nuclear Repulsion Energy =              5.9914846340844354
    One-Electron Energy =                 -66.0301784478694458
    Two-Electron Energy =                  21.1348179246211529
    Total Energy =                        -38.9038758891638565


  UHF NO Occupations:
  HONO-2 :    2 A1 1.9982491
  HONO-1 :    3 A1 1.9909414
  HONO-0 :    1 B1 1.0000000
  LUNO+0 :    4 A1 0.0090586
  LUNO+1 :    5 A1 0.0017509
  LUNO+2 :    2 B2 0.0007286
  LUNO+3 :    6 A1 0.0000010



Properties will be evaluated at   0.000000,   0.000000,   0.000000 Bohr

Properties computed using the SCF density matrix

  Nuclear Dipole Moment: (a.u.)
     X:     0.0000      Y:     0.0000      Z:    -1.1143

  Electronic Dipole Moment: (a.u.)
     X:     0.0000      Y:     0.0000      Z:     0.3493

  Dipole Moment: (a.u.)
     X:     0.0000      Y:     0.0000      Z:    -0.7650     Total:     0.7650

  Dipole Moment: (Debye)
     X:     0.0000      Y:     0.0000      Z:    -1.9444     Total:     1.9444


*** tstop() called on cqc05 at Thu Aug 20 23:51:32 2020
Module time:
	user time   =     155.57 seconds =       2.59 minutes
	system time =      12.41 seconds =       0.21 minutes
	total time  =        167 seconds =       2.78 minutes
Total time:
	user time   =     155.57 seconds =       2.59 minutes
	system time =      12.41 seconds =       0.21 minutes
	total time  =        167 seconds =       2.78 minutes

*** tstart() called on cqc05
*** at Thu Aug 20 23:51:32 2020


	Wfn Parameters:
	--------------------
	Wavefunction         = CCSD
	Number of irreps     = 4
	Number of MOs        = 287
	Number of active MOs = 286
	AO-Basis             = NONE
	Semicanonical        = false
	Reference            = UHF
	Print Level          = 1

	IRREP	# MOs	# FZDC	# DOCC	# SOCC	# VIRT	# FZVR
	-----	-----	------	------	------	------	------
	 A1	   96	    1	    2	    0	    93	    0
	 A2	   49	    0	    0	    0	    49	    0
	 B1	   61	    0	    0	    1	    60	    0
	 B2	   81	    0	    1	    0	    80	    0
	Transforming integrals...
	IWL integrals will be deleted.
	(OO|OO)...
	Presorting SO-basis two-electron integrals.
	Sorting File: SO Ints (nn|nn) nbuckets = 1
	Transforming the one-electron integrals and constructing Fock matrices
	Starting AA/AB first half-transformation.
	Sorting AA/AB half-transformed integrals.
	Starting BB first half-transformation.
	Sorting BB half-transformed integrals.
	First half integral transformation complete.
	Starting AA second half-transformation.
	Starting AB second half-transformation.
	Starting BB second half-transformation.
	Two-electron integral transformation complete.
	(OO|OV)...
	Starting AA second half-transformation.
	Starting AB second half-transformation.
	Starting BB second half-transformation.
	Two-electron integral transformation complete.
	(OO|VV)...
	Starting AA second half-transformation.
	Starting AB second half-transformation.
	Starting BB second half-transformation.
	Two-electron integral transformation complete.
	(OV|OO)...
	Starting AA/AB first half-transformation.
	Sorting AA/AB half-transformed integrals.
	Starting BB first half-transformation.
	Sorting BB half-transformed integrals.
	First half integral transformation complete.
	Starting AA second half-transformation.
	Starting AB second half-transformation.
	Starting BB second half-transformation.
	Two-electron integral transformation complete.
	(OV|OV)...
	Starting AA second half-transformation.
	Starting AB second half-transformation.
	Starting BB second half-transformation.
	Two-electron integral transformation complete.
	(OV|VV)...
	Starting AA second half-transformation.
	Starting AB second half-transformation.
	Starting BB second half-transformation.
	Two-electron integral transformation complete.
	(VV|OO)...
	Starting AA/AB first half-transformation.
	Sorting AA/AB half-transformed integrals.
	Starting BB first half-transformation.
	Sorting BB half-transformed integrals.
	First half integral transformation complete.
	Starting AA second half-transformation.
	Starting AB second half-transformation.
	Starting BB second half-transformation.
	Two-electron integral transformation complete.
	(VV|OV)...
	Starting AA second half-transformation.
	Starting AB second half-transformation.
	Starting BB second half-transformation.
	Two-electron integral transformation complete.
	(VV|VV)...
	Starting AA second half-transformation.
	Starting AB second half-transformation.
	Starting BB second half-transformation.
	Two-electron integral transformation complete.
	Frozen core energy     =    -34.25626073320053

	Size of irrep 0 of <AB|CD> integrals:    107.827 (MW) /    862.620 (MB)
	Size of irrep 1 of <AB|CD> integrals:     87.553 (MW) /    700.428 (MB)
	Size of irrep 2 of <AB|CD> integrals:     90.250 (MW) /    722.000 (MB)
	Size of irrep 3 of <AB|CD> integrals:    107.744 (MW) /    861.955 (MB)
	Total:                                   393.375 (MW) /   3147.002 (MB)

	Size of irrep 0 of <ab|cd> integrals:    109.077 (MW) /    872.617 (MB)
	Size of irrep 1 of <ab|cd> integrals:     89.057 (MW) /    712.456 (MB)
	Size of irrep 2 of <ab|cd> integrals:     92.026 (MW) /    736.205 (MB)
	Size of irrep 3 of <ab|cd> integrals:    108.764 (MW) /    870.112 (MB)
	Total:                                   398.924 (MW) /   3191.390 (MB)

	Size of irrep 0 of <Ab|Cd> integrals:    445.632 (MW) /   3565.057 (MB)
	Size of irrep 1 of <Ab|Cd> integrals:    353.214 (MW) /   2825.715 (MB)
	Size of irrep 2 of <Ab|Cd> integrals:    364.543 (MW) /   2916.341 (MB)
	Size of irrep 3 of <Ab|Cd> integrals:    433.014 (MW) /   3464.116 (MB)
	Total:                                  1596.404 (MW) /  12771.229 (MB)

	Size of irrep 0 of <IA|BC> integrals:      6.862 (MW) /     54.898 (MB)
	Size of irrep 1 of <IA|BC> integrals:      4.454 (MW) /     35.631 (MB)
	Size of irrep 2 of <IA|BC> integrals:      4.978 (MW) /     39.824 (MB)
	Size of irrep 3 of <IA|BC> integrals:      6.270 (MW) /     50.156 (MB)
	Total:                                    22.564 (MW) /    180.510 (MB)

	Size of irrep 0 of <ia|bc> integrals:      5.631 (MW) /     45.052 (MB)
	Size of irrep 1 of <ia|bc> integrals:      3.001 (MW) /     24.008 (MB)
	Size of irrep 2 of <ia|bc> integrals:      3.281 (MW) /     26.246 (MB)
	Size of irrep 3 of <ia|bc> integrals:      5.277 (MW) /     42.217 (MB)
	Total:                                    17.190 (MW) /    137.523 (MB)

	Size of irrep 0 of <Ia|Bc> integrals:      6.903 (MW) /     55.224 (MB)
	Size of irrep 1 of <Ia|Bc> integrals:      4.492 (MW) /     35.934 (MB)
	Size of irrep 2 of <Ia|Bc> integrals:      5.041 (MW) /     40.324 (MB)
	Size of irrep 3 of <Ia|Bc> integrals:      6.284 (MW) /     50.275 (MB)
	Total:                                    22.720 (MW) /    181.757 (MB)

	Size of irrep 0 of <iA|bC> integrals:      5.615 (MW) /     44.922 (MB)
	Size of irrep 1 of <iA|bC> integrals:      2.969 (MW) /     23.756 (MB)
	Size of irrep 2 of <iA|bC> integrals:      3.227 (MW) /     25.814 (MB)
	Size of irrep 3 of <iA|bC> integrals:      5.265 (MW) /     42.117 (MB)
	Total:                                    17.076 (MW) /    136.609 (MB)

	Size of irrep 0 of tIjAb amplitudes:       0.106 (MW) /      0.844 (MB)
	Size of irrep 1 of tIjAb amplitudes:       0.019 (MW) /      0.150 (MB)
	Size of irrep 2 of tIjAb amplitudes:       0.038 (MW) /      0.305 (MB)
	Size of irrep 3 of tIjAb amplitudes:       0.083 (MW) /      0.666 (MB)
	Total:                                     0.246 (MW) /      1.966 (MB)

	Nuclear Rep. energy          =      5.99148463408444
	SCF energy                   =    -38.90387588916386
	One-electron energy          =    -19.41077325561214
	Two-electron (AA) energy     =      2.29608934941875
	Two-electron (BB) energy     =      1.06596539137516
	Two-electron (AB) energy     =      5.40961872476973
	Two-electron energy          =      8.77167346556363
	Reference energy             =    -38.90387588916461

*** tstop() called on cqc05 at Fri Aug 21 00:00:50 2020
Module time:
	user time   =     181.38 seconds =       3.02 minutes
	system time =      91.02 seconds =       1.52 minutes
	total time  =        558 seconds =       9.30 minutes
Total time:
	user time   =     336.95 seconds =       5.62 minutes
	system time =     103.43 seconds =       1.72 minutes
	total time  =        725 seconds =      12.08 minutes

*** tstart() called on cqc05
*** at Fri Aug 21 00:00:50 2020

            **************************
            *                        *
            *        CCENERGY        *
            *                        *
            **************************

    Nuclear Rep. energy (wfn)     =    5.991484634084435
    SCF energy          (wfn)     =  -38.903875889163857
    Reference energy    (file100) =  -38.903875889164610

    Input parameters:
    -----------------
    Wave function   =     CCSD
    Reference wfn   =     UHF
    Brueckner       =     No
    Memory (Mbytes) =     250000.0
    Maxiter         =     50
    R_Convergence   =     1.0e-07
    E_Convergence   =     1.0e-06
    Restart         =     Yes
    DIIS            =     Yes
    AO Basis        =     NONE
    ABCD            =     NEW
    Cache Level     =     2
    Cache Type      =     LRU
    Print Level     =     1
    Num. of threads =     4
    # Amps to Print =     10
    Print MP2 Amps? =     No
    Analyze T2 Amps =     No
    Print Pair Ener =     No
    Local CC        =     No
    SCS-MP2         =     False
    SCSN-MP2        =     False
    SCS-CCSD        =     False

MP2 correlation energy -0.1864378412020130
                Solving CC Amplitude Equations
                ------------------------------
  Iter             Energy              RMS        T1Diag      D1Diag    New D1Diag    D2Diag
  ----     ---------------------    ---------   ----------  ----------  ----------   --------
     0        -0.186437841202027    0.000e+00    0.000000    0.000000    0.000000    0.000000
     1        -0.192631348325509    5.593e-02    0.015319    0.000000    0.000000    0.000000
     2        -0.197829618026031    2.182e-02    0.018450    0.000000    0.000000    0.000000
     3        -0.199524150805020    1.410e-02    0.023661    0.000000    0.000000    0.000000
     4        -0.199514747446751    6.744e-03    0.026806    0.000000    0.000000    0.000000
     5        -0.199476372161124    3.973e-03    0.029046    0.000000    0.000000    0.000000
     6        -0.199502117322162    1.799e-03    0.029809    0.000000    0.000000    0.000000
     7        -0.199505613416170    9.778e-04    0.030036    0.000000    0.000000    0.000000
     8        -0.199505766144296    4.474e-04    0.030068    0.000000    0.000000    0.000000
     9        -0.199516070671534    2.385e-04    0.030088    0.000000    0.000000    0.000000
    10        -0.199512270358467    1.506e-04    0.030088    0.000000    0.000000    0.000000
    11        -0.199511791105350    7.686e-05    0.030077    0.000000    0.000000    0.000000
    12        -0.199511692391182    4.082e-05    0.030084    0.000000    0.000000    0.000000
    13        -0.199511584277366    2.071e-05    0.030082    0.000000    0.000000    0.000000
    14        -0.199511780581945    1.159e-05    0.030082    0.000000    0.000000    0.000000
    15        -0.199511851759701    7.311e-06    0.030081    0.000000    0.000000    0.000000
    16        -0.199511793863332    4.085e-06    0.030081    0.000000    0.000000    0.000000
    17        -0.199511757245765    2.567e-06    0.030080    0.000000    0.000000    0.000000
    18        -0.199511764773661    1.267e-06    0.030080    0.000000    0.000000    0.000000
    19        -0.199511752087234    6.299e-07    0.030080    0.000000    0.000000    0.000000
    20        -0.199511754048424    3.786e-07    0.030080    0.000000    0.000000    0.000000
    21        -0.199511758899966    1.664e-07    0.030080    0.000000    0.000000    0.000000
    22        -0.199511758015707    8.777e-08    0.030080    0.000000    0.000000    0.000000
    22        -0.199511758015707    8.777e-08    0.030080    0.000000    0.000000    0.000000

    Iterations converged.


    CCSD corr. energy   =   -0.199511758015707
    PPL corr. energy    =    0.058299714989188
    OS PPL corr. energy =    0.050643772685345
    SS PPL corr. energy =    0.007655942303846
    Largest TIA Amplitudes:
              2 142        -0.0461130657
              1   1        -0.0307517402
              2 143        -0.0205348656
              1   4         0.0116737575
              2 145        -0.0090642139
              1   5         0.0082369420
              2 146        -0.0078616199
              1   8        -0.0077949142
              1   6         0.0074733830
              1   3        -0.0069743698

    Largest Tia Amplitudes:
              1   6        -0.0126714440
              1   2         0.0109982127
              1  13         0.0099868154
              2 209         0.0096871566
              1   0        -0.0090703140
              0  14        -0.0089685455
              2 214         0.0087180788
              1   7        -0.0085487309
              1  17         0.0082585134
              1   8         0.0078889516

    Largest TIJAB Amplitudes:
      2   1 142   1        -0.0158707012
      2   1 145   8        -0.0149772161
      2   1 145   1        -0.0146628474
      2   1 146  10        -0.0138516319
      2   1 143   4         0.0134131009
      2   1 145   4         0.0128469720
      2   1 142   4         0.0128004166
      3   1 208   9         0.0125005847
      3   1 208  17        -0.0124957369
      2   1 142   8        -0.0124369208

    Largest Tijab Amplitudes:
      2   1 209   9         0.0142544817
      2   1 209  16         0.0112744293
      2   1 216  16         0.0092283899
      2   1 216   9         0.0092263005
      2   1 209   3        -0.0090903898
      2   1 209   8        -0.0090200808
      2   1 209   4         0.0085866127
      2   1 209  17        -0.0084117600
      2   1 209  10        -0.0083602346
      2   1 214   8        -0.0077255051

    Largest TIjAb Amplitudes:
      1   1 208 209        -0.0361290757
      3   2 208 209        -0.0320406674
      2   1 142   1        -0.0285988951
      1   1   1   1        -0.0254430535
      2   1 145   1        -0.0253633811
      2   1 145   8        -0.0234292756
      1   1  10  10        -0.0223812817
      1   1   4   4        -0.0218595786
      1   1   4   1         0.0214890082
      1   1 208 216        -0.0207589494

    SCF energy       (wfn)                    =  -38.903875889163857
    Reference energy (file100)                =  -38.903875889164610

    Opposite-spin MP2 correlation energy      =   -0.148693971126956
    Same-spin MP2 correlation energy          =   -0.037743870074813
    MP2 correlation energy                    =   -0.186437841202013
      * MP2 total energy                      =  -39.090313730366624

    Opposite-spin CCSD correlation energy     =   -0.163841417804571
    Same-spin CCSD correlation energy         =   -0.035670348317162
    CCSD correlation energy                   =   -0.199511758015707
      * CCSD total energy                     =  -39.103387647180320


*** tstop() called on cqc05 at Fri Aug 21 00:05:55 2020
Module time:
	user time   =     128.80 seconds =       2.15 minutes
	system time =     170.13 seconds =       2.84 minutes
	total time  =        305 seconds =       5.08 minutes
Total time:
	user time   =     465.75 seconds =       7.76 minutes
	system time =     273.56 seconds =       4.56 minutes
	total time  =       1030 seconds =      17.17 minutes

*** Psi4 exiting successfully. Buy a developer a beer!
