
    -----------------------------------------------------------------------
          Psi4: An Open-Source Ab Initio Electronic Structure Package
                               Psi4 1.2a1.dev938 

                         Git: Rev {HEAD} fc51d9a dirty


    R. M. Parrish, L. A. Burns, D. G. A. Smith, A. C. Simmonett,
    A. E. DePrince III, E. G. Hohenstein, U. Bozkaya, A. Yu. Sokolov,
    R. Di Remigio, R. M. Richard, J. F. Gonthier, A. M. James,
    H. R. McAlexander, A. Kumar, M. Saitow, X. Wang, B. P. Pritchard,
    P. Verma, H. F. Schaefer III, K. Patkowski, R. A. King, E. F. Valeev,
    F. A. Evangelista, J. M. Turney, T. D. Crawford, and C. D. Sherrill,
    J. Chem. Theory Comput. 13(7) pp 3185--3197 (2017).
    (doi: 10.1021/acs.jctc.7b00174)

    -----------------------------------------------------------------------


    Psi4 started on: Thursday, 20 August 2020 07:58PM

    Process ID: 423326
    PSIDATADIR: /home/irmler/Programs/psi4/beforeGrueneis3/stage/usr/local/psi4/share/psi4
    Memory:     500.0 MiB
    Threads:    4
    
  ==> Input File <==

--------------------------------------------------------------------------
# Any line starting with the # character is a comment line
memory 250000 mb
molecule molecule{
-1 2
C          0.0000000000        0.0000000000        0.0997578423
H          0.0000000000        0.8741780617       -0.5943763735
H          0.0000000000       -0.8741780617       -0.5943763735
}

set {
  reference uhf
  basis aug-cc-pv(t+d)z
  scf_type OUT_OF_CORE
  freeze_core true
}

energy('ccsd')
--------------------------------------------------------------------------

  Memory set to 232.831 GiB by Python driver.

*** tstart() called on cqc05
*** at Thu Aug 20 19:58:24 2020

   => Loading Basis Set <=

    Name: AUG-CC-PV(T+D)Z
    Role: ORBITAL
    Keyword: BASIS
    atoms 1   entry C          line   255 file /home/irmler/Programs/psi4/beforeGrueneis3/stage/usr/local/psi4/share/psi4/basis/aug-cc-pv_tpd_z.gbs 
    atoms 2-3 entry H          line    56 file /home/irmler/Programs/psi4/beforeGrueneis3/stage/usr/local/psi4/share/psi4/basis/aug-cc-pv_tpd_z.gbs 


         ---------------------------------------------------------
                                   SCF
            by Justin Turney, Rob Parrish, Andy Simmonett
                             and Daniel Smith
                              UHF Reference
                        4 Threads, 238418 MiB Core
         ---------------------------------------------------------

  ==> Geometry <==

    Molecular point group: c2v
    Full point group: C2v

    Geometry (in Angstrom), charge = -1, multiplicity = 2:

       Center              X                  Y                   Z               Mass       
    ------------   -----------------  -----------------  -----------------  -----------------
           C         -0.000000000000     0.000000000000     0.099826384805    12.000000000000
           H         -0.000000000000     0.874178061700    -0.594307830995     1.007825032070
           H          0.000000000000    -0.874178061700    -0.594307830995     1.007825032070

  Running in c2v symmetry.

  Rotational constants: A =     20.27339  B =     10.94414  C =      7.10738 [cm^-1]
  Rotational constants: A = 607781.04843  B = 328096.99502  C = 213073.84762 [MHz]
  Nuclear repulsion =    5.991484634084435

  Charge       = -1
  Multiplicity = 2
  Electrons    = 9
  Nalpha       = 5
  Nbeta        = 4

  ==> Algorithm <==

  SCF Algorithm Type is OUT_OF_CORE.
  DIIS enabled.
  MOM disabled.
  Fractional occupation disabled.
  Guess Type is GWH.
  Energy threshold   = 1.00e-08
  Density threshold  = 1.00e-08
  Integral threshold = 0.00e+00

  ==> Primary Basis <==

  Basis Set: AUG-CC-PV(T+D)Z
    Blend: AUG-CC-PV(T+D)Z
    Number of shells: 32
    Number of basis function: 92
    Number of Cartesian functions: 105
    Spherical Harmonics?: true
    Max angular momentum: 3

  ==> Pre-Iterations <==

   -------------------------------------------------------
    Irrep   Nso     Nmo     Nalpha   Nbeta   Ndocc  Nsocc
   -------------------------------------------------------
     A1        35      35       0       0       0       0
     A2        12      12       0       0       0       0
     B1        18      18       0       0       0       0
     B2        27      27       0       0       0       0
   -------------------------------------------------------
    Total      92      92       5       4       4       1
   -------------------------------------------------------

  ==> Integral Setup <==

  ==> DiskJK: Disk-Based J/K Matrices <==

    J tasked:                  Yes
    K tasked:                  Yes
    wK tasked:                  No
    Memory (MB):            178813
    Schwarz Cutoff:          1E-12

  Minimum eigenvalue in the overlap matrix is 1.5582544164E-04.
  Using Symmetric Orthogonalization.

  SCF Guess: Generalized Wolfsberg-Helmholtz.

  ==> Iterations <==

                        Total Energy        Delta E     RMS |[F,P]|

   @UHF iter   1:   -34.62772728423352   -3.46277e+01   1.06866e-01 
   @UHF iter   2:   -38.73164377118680   -4.10392e+00   1.67977e-02 DIIS
   @UHF iter   3:   -38.87268559118286   -1.41042e-01   5.61148e-03 DIIS
   @UHF iter   4:   -38.89686429402160   -2.41787e-02   1.71967e-03 DIIS
   @UHF iter   5:   -38.90053799805433   -3.67370e-03   5.07658e-04 DIIS
   @UHF iter   6:   -38.90111969619304   -5.81698e-04   1.82212e-04 DIIS
   @UHF iter   7:   -38.90119841204928   -7.87159e-05   5.72666e-05 DIIS
   @UHF iter   8:   -38.90121382064790   -1.54086e-05   2.31140e-05 DIIS
   @UHF iter   9:   -38.90121634510501   -2.52446e-06   6.83189e-06 DIIS
   @UHF iter  10:   -38.90121657270644   -2.27601e-07   3.03883e-06 DIIS
   @UHF iter  11:   -38.90121663250930   -5.98029e-08   2.22023e-06 DIIS
   @UHF iter  12:   -38.90121668518388   -5.26746e-08   8.62302e-07 DIIS
   @UHF iter  13:   -38.90121669109395   -5.91007e-09   1.93766e-07 DIIS
   @UHF iter  14:   -38.90121669124032   -1.46372e-10   8.43436e-08 DIIS
   @UHF iter  15:   -38.90121669128004   -3.97193e-11   3.76613e-08 DIIS
   @UHF iter  16:   -38.90121669128802   -7.97939e-12   1.72818e-08 DIIS
   @UHF iter  17:   -38.90121669128953   -1.51346e-12   8.74868e-09 DIIS

  ==> Post-Iterations <==

   @Spin Contamination Metric:   2.072834754E-02
   @S^2 Expected:                7.500000000E-01
   @S^2 Observed:                7.707283475E-01
   @S   Expected:                5.000000000E-01
   @S   Observed:                5.000000000E-01

    Orbital Energies (a.u.)
    -----------------------

    Alpha Occupied:                                                       

       1A1   -10.956805     2A1    -0.613557     1B2    -0.257603  
       3A1    -0.097628     1B1    -0.071174  

    Alpha Virtual:                                                        

       4A1     0.153878     2B2     0.161597     5A1     0.246065  
       2B1     0.252378     3B2     0.276873     6A1     0.308544  
       4B2     0.410397     7A1     0.437653     8A1     0.463134  
       1A2     0.465674     3B1     0.477552     5B2     0.525220  
       9A1     0.550362     4B1     0.562399     6B2     0.568504  
       2A2     0.594744    10A1     0.601214    11A1     0.621817  
       7B2     0.644405     5B1     0.853493    12A1     0.873097  
       8B2     0.879236    13A1     0.957167     6B1     1.067669  
       9B2     1.081468    14A1     1.089148     3A2     1.092009  
      10B2     1.177547     7B1     1.185068    15A1     1.204113  
      11B2     1.228095     4A2     1.270841    16A1     1.272307  
      12B2     1.293824    17A1     1.316471     8B1     1.368451  
      18A1     1.396216     5A2     1.409654     9B1     1.537071  
      19A1     1.543867    13B2     1.569631     6A2     1.597940  
      20A1     1.703698    10B1     1.726783    14B2     1.778328  
      21A1     1.816203    15B2     1.892214    11B1     1.968568  
      16B2     2.100015    17B2     2.228905     7A2     2.245446  
      22A1     2.321340    23A1     2.458932    12B1     3.128096  
      24A1     3.171785    18B2     3.215857    25A1     3.362862  
       8A2     3.529463    13B1     3.598194    26A1     3.673730  
      14B1     3.726990    19B2     3.781201    27A1     3.820652  
      20B2     3.868456    15B1     3.925160    28A1     3.941795  
       9A2     4.004323    21B2     4.046996    29A1     4.156573  
      10A2     4.267202    22B2     4.294621    23B2     4.479488  
      30A1     4.516794    16B1     4.641362    31A1     4.796843  
      17B1     4.872280    11A2     4.958777    24B2     5.115988  
      18B1     5.319601    25B2     5.323337    12A2     5.471228  
      32A1     5.521623    33A1     5.596280    26B2     5.864754  
      34A1     5.960579    27B2     6.798348    35A1    14.367862  

    Beta Occupied:                                                        

       1A1   -10.937383     2A1    -0.532333     1B2    -0.243943  
       3A1    -0.047078  

    Beta Virtual:                                                         

       4A1     0.154491     2B2     0.161781     1B1     0.232964  
       5A1     0.250564     3B2     0.277022     6A1     0.313946  
       2B1     0.398285     4B2     0.411681     7A1     0.440768  
       8A1     0.474031     1A2     0.477152     3B1     0.510124  
       5B2     0.524747     6B2     0.566219     9A1     0.566502  
       4B1     0.590999     2A2     0.603495    10A1     0.608049  
      11A1     0.624597     7B2     0.652108     8B2     0.885134  
      12A1     0.889769     5B1     0.937860    13A1     0.974907  
       6B1     1.082214     9B2     1.087157    14A1     1.101728  
       3A2     1.106778    10B2     1.178080     7B1     1.199199  
      15A1     1.222280    11B2     1.237464    16A1     1.273221  
       4A2     1.287462    12B2     1.295221    17A1     1.326046  
       8B1     1.406768    18A1     1.425862     5A2     1.433226  
      19A1     1.555079     9B1     1.555863    13B2     1.581219  
       6A2     1.609469    20A1     1.706905    10B1     1.741148  
      14B2     1.780583    21A1     1.843263    15B2     1.901276  
      11B1     2.006634    16B2     2.102801    17B2     2.232260  
       7A2     2.263180    22A1     2.332893    23A1     2.474857  
      24A1     3.180493    12B1     3.186560    18B2     3.225516  
      25A1     3.382093     8A2     3.565242    13B1     3.636291  
      26A1     3.690088    14B1     3.749424    19B2     3.793915  
      27A1     3.855230    20B2     3.882190    15B1     3.964296  
      28A1     3.973571     9A2     4.032728    21B2     4.056989  
      29A1     4.169371    10A2     4.272806    22B2     4.300290  
      23B2     4.486875    30A1     4.522252    16B1     4.650534  
      31A1     4.796665    17B1     4.876979    11A2     4.959976  
      24B2     5.114527    25B2     5.326044    18B1     5.333438  
      12A2     5.487255    32A1     5.526934    33A1     5.601284  
      26B2     5.868543    34A1     5.966205    27B2     6.803558  
      35A1    14.382814  

    Final Occupation by Irrep:
             A1    A2    B1    B2 
    DOCC [     3,    0,    0,    1 ]
    SOCC [     0,    0,    1,    0 ]

  Energy converged.

  @UHF Final Energy:   -38.90121669128953

   => Energetics <=

    Nuclear Repulsion Energy =              5.9914846340844354
    One-Electron Energy =                 -66.0278977692612017
    Two-Electron Energy =                  21.1351964438872280
    PCM Polarization Energy =               0.0000000000000000
    Total Energy =                        -38.9012166912895339

    Alert: EFP and PCM quantities not currently incorporated into SCF psivars.
  UHF NO Occupations:
  HONO-2 :    2 A1 1.9983768
  HONO-1 :    3 A1 1.9919399
  HONO-0 :    1 B1 1.0000000
  LUNO+0 :    4 A1 0.0080601
  LUNO+1 :    5 A1 0.0016232
  LUNO+2 :    2 B2 0.0007142
  LUNO+3 :    6 A1 0.0000008



Properties will be evaluated at   0.000000,   0.000000,   0.000000 Bohr

Properties computed using the SCF density matrix

  Nuclear Dipole Moment: (a.u.)
     X:     0.0000      Y:     0.0000      Z:    -1.1143

  Electronic Dipole Moment: (a.u.)
     X:     0.0000      Y:     0.0000      Z:     0.3496

  Dipole Moment: (a.u.)
     X:     0.0000      Y:     0.0000      Z:    -0.7647     Total:     0.7647

  Dipole Moment: (Debye)
     X:     0.0000      Y:     0.0000      Z:    -1.9436     Total:     1.9436


*** tstop() called on cqc05 at Thu Aug 20 19:58:26 2020
Module time:
	user time   =       2.17 seconds =       0.04 minutes
	system time =       0.10 seconds =       0.00 minutes
	total time  =          2 seconds =       0.03 minutes
Total time:
	user time   =       2.17 seconds =       0.04 minutes
	system time =       0.10 seconds =       0.00 minutes
	total time  =          2 seconds =       0.03 minutes

*** tstart() called on cqc05
*** at Thu Aug 20 19:58:26 2020


	Wfn Parameters:
	--------------------
	Wavefunction         = CCSD
	Number of irreps     = 4
	Number of MOs        = 92
	Number of active MOs = 91
	AO-Basis             = NONE
	Semicanonical        = false
	Reference            = UHF
	Print Level          = 1

	IRREP	# MOs	# FZDC	# DOCC	# SOCC	# VIRT	# FZVR
	-----	-----	------	------	------	------	------
	 A1	   35	    1	    2	    0	    32	    0
	 A2	   12	    0	    0	    0	    12	    0
	 B1	   18	    0	    0	    1	    17	    0
	 B2	   27	    0	    1	    0	    26	    0
	Transforming integrals...
	IWL integrals will be deleted.
	(OO|OO)...
	Presorting SO-basis two-electron integrals.
	Sorting File: SO Ints (nn|nn) nbuckets = 1
	Transforming the one-electron integrals and constructing Fock matrices
	Starting AA/AB first half-transformation.
	Sorting AA/AB half-transformed integrals.
	Starting BB first half-transformation.
	Sorting BB half-transformed integrals.
	First half integral transformation complete.
	Starting AA second half-transformation.
	Starting AB second half-transformation.
	Starting BB second half-transformation.
	Two-electron integral transformation complete.
	(OO|OV)...
	Starting AA second half-transformation.
	Starting AB second half-transformation.
	Starting BB second half-transformation.
	Two-electron integral transformation complete.
	(OO|VV)...
	Starting AA second half-transformation.
	Starting AB second half-transformation.
	Starting BB second half-transformation.
	Two-electron integral transformation complete.
	(OV|OO)...
	Starting AA/AB first half-transformation.
	Sorting AA/AB half-transformed integrals.
	Starting BB first half-transformation.
	Sorting BB half-transformed integrals.
	First half integral transformation complete.
	Starting AA second half-transformation.
	Starting AB second half-transformation.
	Starting BB second half-transformation.
	Two-electron integral transformation complete.
	(OV|OV)...
	Starting AA second half-transformation.
	Starting AB second half-transformation.
	Starting BB second half-transformation.
	Two-electron integral transformation complete.
	(OV|VV)...
	Starting AA second half-transformation.
	Starting AB second half-transformation.
	Starting BB second half-transformation.
	Two-electron integral transformation complete.
	(VV|OO)...
	Starting AA/AB first half-transformation.
	Sorting AA/AB half-transformed integrals.
	Starting BB first half-transformation.
	Sorting BB half-transformed integrals.
	First half integral transformation complete.
	Starting AA second half-transformation.
	Starting AB second half-transformation.
	Starting BB second half-transformation.
	Two-electron integral transformation complete.
	(VV|OV)...
	Starting AA second half-transformation.
	Starting AB second half-transformation.
	Starting BB second half-transformation.
	Two-electron integral transformation complete.
	(VV|VV)...
	Starting AA second half-transformation.
	Starting AB second half-transformation.
	Starting BB second half-transformation.
	Two-electron integral transformation complete.
	Frozen core energy     =    -34.25546020074267

	Size of irrep 0 of <AB|CD> integrals:      1.047 (MW) /      8.372 (MB)
	Size of irrep 1 of <AB|CD> integrals:      0.682 (MW) /      5.458 (MB)
	Size of irrep 2 of <AB|CD> integrals:      0.733 (MW) /      5.862 (MB)
	Size of irrep 3 of <AB|CD> integrals:      1.073 (MW) /      8.586 (MB)
	Total:                                     3.535 (MW) /     28.279 (MB)

	Size of irrep 0 of <ab|cd> integrals:      1.082 (MW) /      8.653 (MB)
	Size of irrep 1 of <ab|cd> integrals:      0.726 (MW) /      5.807 (MB)
	Size of irrep 2 of <ab|cd> integrals:      0.789 (MW) /      6.308 (MB)
	Size of irrep 3 of <ab|cd> integrals:      1.098 (MW) /      8.786 (MB)
	Total:                                     3.694 (MW) /     29.555 (MB)

	Size of irrep 0 of <Ab|Cd> integrals:      4.622 (MW) /     36.980 (MB)
	Size of irrep 1 of <Ab|Cd> integrals:      2.816 (MW) /     22.525 (MB)
	Size of irrep 2 of <Ab|Cd> integrals:      3.042 (MW) /     24.332 (MB)
	Size of irrep 3 of <Ab|Cd> integrals:      4.343 (MW) /     34.744 (MB)
	Total:                                    14.823 (MW) /    118.582 (MB)

	Size of irrep 0 of <IA|BC> integrals:      0.228 (MW) /      1.826 (MB)
	Size of irrep 1 of <IA|BC> integrals:      0.111 (MW) /      0.885 (MB)
	Size of irrep 2 of <IA|BC> integrals:      0.134 (MW) /      1.068 (MB)
	Size of irrep 3 of <IA|BC> integrals:      0.199 (MW) /      1.591 (MB)
	Total:                                     0.671 (MW) /      5.371 (MB)

	Size of irrep 0 of <ia|bc> integrals:      0.195 (MW) /      1.561 (MB)
	Size of irrep 1 of <ia|bc> integrals:      0.072 (MW) /      0.573 (MB)
	Size of irrep 2 of <ia|bc> integrals:      0.085 (MW) /      0.682 (MB)
	Size of irrep 3 of <ia|bc> integrals:      0.176 (MW) /      1.409 (MB)
	Total:                                     0.528 (MW) /      4.224 (MB)

	Size of irrep 0 of <Ia|Bc> integrals:      0.232 (MW) /      1.858 (MB)
	Size of irrep 1 of <Ia|Bc> integrals:      0.114 (MW) /      0.913 (MB)
	Size of irrep 2 of <Ia|Bc> integrals:      0.140 (MW) /      1.116 (MB)
	Size of irrep 3 of <Ia|Bc> integrals:      0.200 (MW) /      1.601 (MB)
	Total:                                     0.686 (MW) /      5.487 (MB)

	Size of irrep 0 of <iA|bC> integrals:      0.194 (MW) /      1.548 (MB)
	Size of irrep 1 of <iA|bC> integrals:      0.069 (MW) /      0.550 (MB)
	Size of irrep 2 of <iA|bC> integrals:      0.080 (MW) /      0.642 (MB)
	Size of irrep 3 of <iA|bC> integrals:      0.175 (MW) /      1.400 (MB)
	Total:                                     0.518 (MW) /      4.141 (MB)

	Size of irrep 0 of tIjAb amplitudes:       0.011 (MW) /      0.086 (MB)
	Size of irrep 1 of tIjAb amplitudes:       0.002 (MW) /      0.013 (MB)
	Size of irrep 2 of tIjAb amplitudes:       0.003 (MW) /      0.028 (MB)
	Size of irrep 3 of tIjAb amplitudes:       0.008 (MW) /      0.067 (MB)
	Total:                                     0.024 (MW) /      0.194 (MB)

	Nuclear Rep. energy          =      5.99148463408444
	SCF energy                   =    -38.90121669128953
	One-electron energy          =    -19.41116498550296
	Two-electron (AA) energy     =      2.29375026498637
	Two-electron (BB) energy     =      1.06796970458892
	Two-electron (AB) energy     =      5.41220389129590
	Two-electron energy          =      8.77392386087118
	Reference energy             =    -38.90121669129001

*** tstop() called on cqc05 at Thu Aug 20 19:58:28 2020
Module time:
	user time   =       1.42 seconds =       0.02 minutes
	system time =       0.67 seconds =       0.01 minutes
	total time  =          2 seconds =       0.03 minutes
Total time:
	user time   =       3.59 seconds =       0.06 minutes
	system time =       0.77 seconds =       0.01 minutes
	total time  =          4 seconds =       0.07 minutes

*** tstart() called on cqc05
*** at Thu Aug 20 19:58:28 2020

            **************************
            *                        *
            *        CCENERGY        *
            *                        *
            **************************

    Nuclear Rep. energy (wfn)     =    5.991484634084435
    SCF energy          (wfn)     =  -38.901216691289534
    Reference energy    (file100) =  -38.901216691290010

    Input parameters:
    -----------------
    Wave function   =     CCSD
    Reference wfn   =     UHF
    Brueckner       =     No
    Memory (Mbytes) =     250000.0
    Maxiter         =     50
    R_Convergence   =     1.0e-07
    E_Convergence   =     1.0e-06
    Restart         =     Yes
    DIIS            =     Yes
    AO Basis        =     NONE
    ABCD            =     NEW
    Cache Level     =     2
    Cache Type      =     LRU
    Print Level     =     1
    Num. of threads =     4
    # Amps to Print =     10
    Print MP2 Amps? =     No
    Analyze T2 Amps =     No
    Print Pair Ener =     No
    Local CC        =     No
    SCS-MP2         =     False
    SCSN-MP2        =     False
    SCS-CCSD        =     False

MP2 correlation energy -0.1741390305077858
                Solving CC Amplitude Equations
                ------------------------------
  Iter             Energy              RMS        T1Diag      D1Diag    New D1Diag    D2Diag
  ----     ---------------------    ---------   ----------  ----------  ----------   --------
     0        -0.174139030507803    0.000e+00    0.000000    0.000000    0.000000    0.000000
     1        -0.184592476542457    5.520e-02    0.014769    0.000000    0.000000    0.000000
     2        -0.189615273961531    2.083e-02    0.018386    0.000000    0.000000    0.000000
     3        -0.191079766818376    1.252e-02    0.023133    0.000000    0.000000    0.000000
     4        -0.191078630103064    5.824e-03    0.025915    0.000000    0.000000    0.000000
     5        -0.191050143857468    3.071e-03    0.027389    0.000000    0.000000    0.000000
     6        -0.191063376351163    1.413e-03    0.027878    0.000000    0.000000    0.000000
     7        -0.191069666219840    7.438e-04    0.027979    0.000000    0.000000    0.000000
     8        -0.191077854078724    3.596e-04    0.028001    0.000000    0.000000    0.000000
     9        -0.191079931536266    1.755e-04    0.028001    0.000000    0.000000    0.000000
    10        -0.191077842174661    1.033e-04    0.028000    0.000000    0.000000    0.000000
    11        -0.191078112664296    5.512e-05    0.027996    0.000000    0.000000    0.000000
    12        -0.191077996679226    2.584e-05    0.027999    0.000000    0.000000    0.000000
    13        -0.191078453066961    1.380e-05    0.027999    0.000000    0.000000    0.000000
    14        -0.191078691218966    7.133e-06    0.028000    0.000000    0.000000    0.000000
    15        -0.191078654915190    3.886e-06    0.028000    0.000000    0.000000    0.000000
    16        -0.191078615677188    2.128e-06    0.028000    0.000000    0.000000    0.000000
    17        -0.191078602995843    1.114e-06    0.028000    0.000000    0.000000    0.000000
    18        -0.191078592172128    5.406e-07    0.028000    0.000000    0.000000    0.000000
    19        -0.191078597039335    2.767e-07    0.028000    0.000000    0.000000    0.000000
    20        -0.191078603455370    1.578e-07    0.028000    0.000000    0.000000    0.000000
    21        -0.191078603389216    8.896e-08    0.028000    0.000000    0.000000    0.000000
    21        -0.191078603389216    8.896e-08    0.028000    0.000000    0.000000    0.000000

    Iterations converged.


    CCSD corr. energy   =   -0.191078603389216
    PPL corr. energy    =    0.052782568456232
    OS PPL corr. energy =    0.045501970852800
    SS PPL corr. energy =    0.007280597603427
    Largest TIA Amplitudes:
              2  44        -0.0441844225
              1   1         0.0321763952
              2  45        -0.0180993374
              1   3         0.0095774954
              1   5        -0.0092865940
              1   4        -0.0085106062
              0   1        -0.0076649917
              1   2         0.0066738463
              0   5         0.0049572759
              3  70         0.0048574651

    Largest Tia Amplitudes:
              1   7        -0.0120730928
              1   2        -0.0109313099
              1   5         0.0105400396
              1   8        -0.0101795838
              1   0         0.0098804491
              0   9        -0.0097143731
              2  67         0.0085133558
              0   4         0.0076945819
              1  17         0.0072065017
              2  69         0.0069949489

    Largest TIJAB Amplitudes:
      2   1  44   1         0.0248984809
      2   1  45   4        -0.0216743146
      2   1  44   4        -0.0174265911
      2   1  47   1         0.0158453334
      3   2  66  47        -0.0155314578
      2   1  47   4        -0.0151535936
      2   1  47   9         0.0148166897
      3   2  66  44        -0.0143624507
      3   1  66   8         0.0140646863
      2   1  47   8         0.0134406843

    Largest Tijab Amplitudes:
      2   1  67   8         0.0134465890
      2   1  67   4        -0.0117015712
      2   1  67   1         0.0115722507
      2   1  64   3         0.0110063844
      2   1  68   3         0.0105823708
      2   1  64   8         0.0104553399
      2   1  64   1         0.0099761817
      2   1  67   3         0.0096196234
      2   1  68  10        -0.0096067207
      1   0  46  45         0.0093242911

    Largest TIjAb Amplitudes:
      2   1  44   1         0.0418631295
      1   1   1   1        -0.0402439029
      1   1   4   4        -0.0340978957
      1   1   4   1         0.0318107719
      3   2  67  68        -0.0297213808
      3   2   9   9        -0.0291236795
      3   2  66  67        -0.0288761406
      1   1   1   4         0.0277038540
      2   1   1  45         0.0268456091
      1   1   8   8        -0.0261088792

    SCF energy       (wfn)                    =  -38.901216691289534
    Reference energy (file100)                =  -38.901216691290010

    Opposite-spin MP2 correlation energy      =   -0.137597540112853
    Same-spin MP2 correlation energy          =   -0.036541490394550
    MP2 correlation energy                    =   -0.174139030507786
      * MP2 total energy                      =  -39.075355721797798

    Opposite-spin CCSD correlation energy     =   -0.156383167970747
    Same-spin CCSD correlation energy         =   -0.034695435934001
    CCSD correlation energy                   =   -0.191078603389216
      * CCSD total energy                     =  -39.092295294679225


*** tstop() called on cqc05 at Thu Aug 20 19:58:33 2020
Module time:
	user time   =       1.80 seconds =       0.03 minutes
	system time =       1.54 seconds =       0.03 minutes
	total time  =          5 seconds =       0.08 minutes
Total time:
	user time   =       5.39 seconds =       0.09 minutes
	system time =       2.31 seconds =       0.04 minutes
	total time  =          9 seconds =       0.15 minutes

*** Psi4 exiting successfully. Buy a developer a beer!
