
    -----------------------------------------------------------------------
          Psi4: An Open-Source Ab Initio Electronic Structure Package
                               Psi4 1.4a3.dev88 

                         Git: Rev {master} 262e345 


    D. G. A. Smith, L. A. Burns, A. C. Simmonett, R. M. Parrish,
    M. C. Schieber, R. Galvelis, P. Kraus, H. Kruse, R. Di Remigio,
    A. Alenaizan, A. M. James, S. Lehtola, J. P. Misiewicz, M. Scheurer,
    R. A. Shaw, J. B. Schriber, Y. Xie, Z. L. Glick, D. A. Sirianni,
    J. S. O'Brien, J. M. Waldrop, A. Kumar, E. G. Hohenstein,
    B. P. Pritchard, B. R. Brooks, H. F. Schaefer III, A. Yu. Sokolov,
    K. Patkowski, A. E. DePrince III, U. Bozkaya, R. A. King,
    F. A. Evangelista, J. M. Turney, T. D. Crawford, C. D. Sherrill,
    J. Chem. Phys. 152(18) 184108 (2020). https://doi.org/10.1063/5.0006002

                            Additional Code Authors
    E. T. Seidl, C. L. Janssen, E. F. Valeev, M. L. Leininger,
    J. F. Gonthier, R. M. Richard, H. R. McAlexander, M. Saitow, X. Wang,
    P. Verma, and M. H. Lechner

             Previous Authors, Complete List of Code Contributors,
                       and Citations for Specific Modules
    https://github.com/psi4/psi4/blob/master/codemeta.json
    https://github.com/psi4/psi4/graphs/contributors
    http://psicode.org/psi4manual/master/introduction.html#citing-psifour

    -----------------------------------------------------------------------


    Psi4 started on: Tuesday, 26 January 2021 06:16PM

    Process ID: 405429
    Host:       n412-040.vsc4.prov
    PSIDATADIR: /home/fs71337/gallo4/psi4/eri-6/psi4/build/stage/share/psi4
    Memory:     500.0 MiB
    Threads:    48
    
  ==> Input File <==

--------------------------------------------------------------------------
# Any line starting with the # character is a comment line
memory 250000 mb
molecule molecule{
0 1
N          0.0000000000        0.0000000000       -0.6018924656
C          0.0000000000        0.0000000000        0.5651392093
H          0.0000000000        0.0000000000        1.6297003342
}

set {
  reference rhf
  basis aug-cc-pV(t+d)Z
  scf_type OUT_OF_CORE
  freeze_core true
}

energy('ccsd(t)')
--------------------------------------------------------------------------

  Memory set to 232.831 GiB by Python driver.

Scratch directory: /binfl/lv71337/airmler/temp/

*** tstart() called on n412-040.vsc4.prov
*** at Tue Jan 26 18:16:42 2021

   => Loading Basis Set <=

    Name: AUG-CC-PV(T+D)Z
    Role: ORBITAL
    Keyword: BASIS
    atoms 1 entry N          line   313 file /home/fs71337/gallo4/psi4/eri-6/psi4/build/stage/share/psi4/basis/aug-cc-pv_tpd_z.gbs 
    atoms 2 entry C          line   267 file /home/fs71337/gallo4/psi4/eri-6/psi4/build/stage/share/psi4/basis/aug-cc-pv_tpd_z.gbs 
    atoms 3 entry H          line    68 file /home/fs71337/gallo4/psi4/eri-6/psi4/build/stage/share/psi4/basis/aug-cc-pv_tpd_z.gbs 


         ---------------------------------------------------------
                                   SCF
               by Justin Turney, Rob Parrish, Andy Simmonett
                          and Daniel G. A. Smith
                              RHF Reference
                       48 Threads, 238418 MiB Core
         ---------------------------------------------------------

  ==> Geometry <==

    Molecular point group: c2v
    Full point group: C_inf_v

    Geometry (in Angstrom), charge = 0, multiplicity = 1:

       Center              X                  Y                   Z               Mass       
    ------------   -----------------  -----------------  -----------------  -----------------
         N            0.000000000000     0.000000000000    -0.601736179241    14.003074004430
         C            0.000000000000     0.000000000000     0.565295495659    12.000000000000
         H            0.000000000000     0.000000000000     1.629856620559     1.007825032230

  Running in c2v symmetry.

  Rotational constants: A = ************  B =      1.45547  C =      1.45547 [cm^-1]
  Rotational constants: A = ************  B =  43633.92219  C =  43633.92219 [MHz]
  Nuclear repulsion =   23.686839163517778

  Charge       = 0
  Multiplicity = 1
  Electrons    = 14
  Nalpha       = 7
  Nbeta        = 7

  ==> Algorithm <==

  SCF Algorithm Type is OUT_OF_CORE.
  DIIS enabled.
  MOM disabled.
  Fractional occupation disabled.
  Guess Type is SAD.
  Energy threshold   = 1.00e-08
  Density threshold  = 1.00e-08
  Integral threshold = 1.00e-12

  ==> Primary Basis <==

  Basis Set: AUG-CC-PV(T+D)Z
    Blend: AUG-CC-PV(T+D)Z
    Number of shells: 37
    Number of basis function: 115
    Number of Cartesian functions: 135
    Spherical Harmonics?: true
    Max angular momentum: 3

  ==> Integral Setup <==

  ==> DiskJK: Disk-Based J/K Matrices <==

    J tasked:                  Yes
    K tasked:                  Yes
    wK tasked:                  No
    Memory [MiB]:           178813
    Schwarz Cutoff:          1E-12

  Minimum eigenvalue in the overlap matrix is 8.6849934552E-05.
  Reciprocal condition number of the overlap matrix is 1.2960848747E-05.
    Using symmetric orthogonalization.

  ==> Pre-Iterations <==

  SCF Guess: Superposition of Atomic Densities via on-the-fly atomic UHF (no occupation information).


 WARNING: Atomic UHF is not converging! Try casting from a smaller basis or call Rob at CCMST.

 WARNING: Atomic UHF is not converging! Try casting from a smaller basis or call Rob at CCMST.

 WARNING: Atomic UHF is not converging! Try casting from a smaller basis or call Rob at CCMST.
   -------------------------
    Irrep   Nso     Nmo    
   -------------------------
     A1        49      49 
     A2        12      12 
     B1        27      27 
     B2        27      27 
   -------------------------
    Total     115     115
   -------------------------

  ==> Iterations <==

                        Total Energy        Delta E     RMS |[F,P]|

   @RHF iter SAD:   -59.36461554781185   -5.93646e+01   0.00000e+00 
   @RHF iter   1:   -86.60541931795302   -2.72408e+01   7.17533e-02 DIIS
   @RHF iter   2:   -87.74898683170483   -1.14357e+00   3.68746e-02 DIIS
   @RHF iter   3:   -89.62583001263744   -1.87684e+00   3.72615e-02 DIIS
   @RHF iter   4:   -92.83619450548866   -3.21036e+00   5.23806e-03 DIIS
   @RHF iter   5:   -92.90138403497478   -6.51895e-02   1.53050e-03 DIIS
   @RHF iter   6:   -92.90629120907785   -4.90717e-03   3.13595e-04 DIIS
   @RHF iter   7:   -92.90666502806653   -3.73819e-04   6.75142e-05 DIIS
   @RHF iter   8:   -92.90667557308366   -1.05450e-05   1.81608e-05 DIIS
   @RHF iter   9:   -92.90667650887011   -9.35786e-07   2.46594e-06 DIIS
   @RHF iter  10:   -92.90667656144420   -5.25741e-08   1.37126e-06 DIIS
   @RHF iter  11:   -92.90667658957578   -2.81316e-08   4.48994e-07 DIIS
   @RHF iter  12:   -92.90667659257714   -3.00136e-09   9.81831e-08 DIIS
   @RHF iter  13:   -92.90667659261072   -3.35802e-11   1.42563e-08 DIIS
   @RHF iter  14:   -92.90667659261167   -9.52127e-13   1.46051e-09 DIIS
  Energy and wave function converged.


  ==> Post-Iterations <==

    Orbital Energies [Eh]
    ---------------------

    Doubly Occupied:                                                      

       1A1   -15.605098     2A1   -11.297362     3A1    -1.230692  
       4A1    -0.815718     5A1    -0.582963     1B1    -0.492798  
       1B2    -0.492798  

    Virtual:                                                              

       6A1     0.023017     7A1     0.071517     2B2     0.072771  
       2B1     0.072771     8A1     0.127490     3B1     0.134862  
       3B2     0.134862     9A1     0.145861     4B2     0.194991  
       4B1     0.194991    10A1     0.223968    11A1     0.266108  
       1A2     0.293962    12A1     0.293962     5B1     0.302565  
       5B2     0.302565    13A1     0.374837    14A1     0.406299  
       6B1     0.438789     6B2     0.438789     2A2     0.550014  
      15A1     0.550014    16A1     0.560949     7B1     0.578668  
       7B2     0.578668    17A1     0.602780     8B1     0.653631  
       8B2     0.653631    18A1     0.778762    19A1     0.852911  
       9B1     0.874848     9B2     0.874848     3A2     0.878800  
      20A1     0.878800    21A1     0.958697    22A1     1.068235  
      10B1     1.078704    10B2     1.078704    11B1     1.087380  
      11B2     1.087380     4A2     1.119806    23A1     1.119806  
      24A1     1.235584    12B1     1.236908    12B2     1.236908  
       5A2     1.342854    25A1     1.342854    26A1     1.413733  
      13B1     1.585039    13B2     1.585039    14B1     1.635486  
      14B2     1.635486    15B1     1.651834    15B2     1.651834  
      27A1     1.762573     6A2     1.762573    28A1     1.874420  
      29A1     1.921118    16B1     2.066761    16B2     2.066761  
      30A1     2.074240    31A1     2.258105     7A2     2.258105  
      17B1     2.400742    17B2     2.400742    32A1     2.435526  
      33A1     2.577161    18B2     2.955931    18B1     2.955931  
      34A1     3.002959    19B2     3.308868    19B1     3.308868  
       8A2     3.389881    35A1     3.389881    20B1     3.439236  
      20B2     3.439236    36A1     3.449885     9A2     3.449885  
      37A1     3.710254    21B2     3.790523    21B1     3.790523  
      38A1     3.876503    39A1     4.217974    10A2     4.217974  
      22B1     4.359338    22B2     4.359338    40A1     4.500580  
      41A1     4.615735    23B2     4.742421    23B1     4.742421  
      24B2     4.965888    24B1     4.965888    42A1     5.226300  
      11A2     5.226300    43A1     5.332984    25B1     5.368323  
      25B2     5.368323    44A1     5.493747    12A2     5.493747  
      45A1     5.725064    26B1     5.739973    26B2     5.739973  
      46A1     6.357653    27B2     6.819838    27B1     6.819838  
      47A1     6.942168    48A1    14.208347    49A1    17.788328  

    Final Occupation by Irrep:
             A1    A2    B1    B2 
    DOCC [     5,    0,    1,    1 ]

  @RHF Final Energy:   -92.90667659261167

   => Energetics <=

    Nuclear Repulsion Energy =             23.6868391635177780
    One-Electron Energy =                -172.1521728868266905
    Two-Electron Energy =                  55.5586571306972203
    Total Energy =                        -92.9066765926116886

Computation Completed


Properties will be evaluated at   0.000000,   0.000000,   0.000000 [a0]

Properties computed using the SCF density matrix

  Nuclear Dipole Moment: [e a0]
     X:     0.0000      Y:     0.0000      Z:     1.5297

  Electronic Dipole Moment: [e a0]
     X:     0.0000      Y:     0.0000      Z:    -0.2310

  Dipole Moment: [e a0]
     X:     0.0000      Y:     0.0000      Z:     1.2987     Total:     1.2987

  Dipole Moment: [D]
     X:     0.0000      Y:     0.0000      Z:     3.3010     Total:     3.3010


*** tstop() called on n412-040.vsc4.prov at Tue Jan 26 18:16:49 2021
Module time:
	user time   =      37.60 seconds =       0.63 minutes
	system time =       1.47 seconds =       0.02 minutes
	total time  =          7 seconds =       0.12 minutes
Total time:
	user time   =      37.60 seconds =       0.63 minutes
	system time =       1.47 seconds =       0.02 minutes
	total time  =          7 seconds =       0.12 minutes

*** tstart() called on n412-040.vsc4.prov
*** at Tue Jan 26 18:16:49 2021


	Wfn Parameters:
	--------------------
	Wavefunction         = CCSD_T
	Number of irreps     = 4
	Number of MOs        = 115
	Number of active MOs = 113
	AO-Basis             = NONE
	Semicanonical        = false
	Reference            = RHF
	Print Level          = 1

	IRREP	# MOs	# FZDC	# DOCC	# SOCC	# VIRT	# FZVR
	-----	-----	------	------	------	------	------
	 A1	   49	    2	    3	    0	    44	    0
	 A2	   12	    0	    0	    0	    12	    0
	 B1	   27	    0	    1	    0	    26	    0
	 B2	   27	    0	    1	    0	    26	    0
	Transforming integrals...
	IWL integrals will be deleted.
	(OO|OO)...
	Presorting SO-basis two-electron integrals.
	Sorting File: SO Ints (nn|nn) nbuckets = 1
	Constructing frozen core operators
	Starting first half-transformation.
	Sorting half-transformed integrals.
	First half integral transformation complete.
	Starting second half-transformation.
	Two-electron integral transformation complete.
	(OO|OV)...
	Starting second half-transformation.
	Two-electron integral transformation complete.
	(OO|VV)...
	Starting second half-transformation.
	Two-electron integral transformation complete.
	(OV|OO)...
	Starting first half-transformation.
	Sorting half-transformed integrals.
	First half integral transformation complete.
	Starting second half-transformation.
	Two-electron integral transformation complete.
	(OV|OV)...
	Starting second half-transformation.
	Two-electron integral transformation complete.
	(OV|VV)...
	Starting second half-transformation.
	Two-electron integral transformation complete.
	(VV|OO)...
	Starting first half-transformation.
	Sorting half-transformed integrals.
	First half integral transformation complete.
	Starting second half-transformation.
	Two-electron integral transformation complete.
	(VV|OV)...
	Starting second half-transformation.
	Two-electron integral transformation complete.
	(VV|VV)...
	Starting second half-transformation.
	Two-electron integral transformation complete.
	Frozen core energy     =    -88.53577422879677

	Size of irrep 0 of <ab|cd> integrals:     11.779 (MW) /     94.229 (MB)
	Size of irrep 1 of <ab|cd> integrals:      5.798 (MW) /     46.388 (MB)
	Size of irrep 2 of <ab|cd> integrals:      8.480 (MW) /     67.838 (MB)
	Size of irrep 3 of <ab|cd> integrals:      8.480 (MW) /     67.838 (MB)
	Total:                                    34.537 (MW) /    276.293 (MB)

	Size of irrep 0 of <ia|bc> integrals:      0.631 (MW) /      5.052 (MB)
	Size of irrep 1 of <ia|bc> integrals:      0.212 (MW) /      1.695 (MB)
	Size of irrep 2 of <ia|bc> integrals:      0.390 (MW) /      3.122 (MB)
	Size of irrep 3 of <ia|bc> integrals:      0.390 (MW) /      3.122 (MB)
	Total:                                     1.624 (MW) /     12.990 (MB)

	Size of irrep 0 of tijab amplitudes:       0.038 (MW) /      0.302 (MB)
	Size of irrep 1 of tijab amplitudes:       0.005 (MW) /      0.039 (MB)
	Size of irrep 2 of tijab amplitudes:       0.017 (MW) /      0.140 (MB)
	Size of irrep 3 of tijab amplitudes:       0.017 (MW) /      0.140 (MB)
	Total:                                     0.078 (MW) /      0.620 (MB)

	Nuclear Rep. energy          =     23.68683916351778
	SCF energy                   =    -92.90667659261167
	One-electron energy          =    -48.88554360673074
	Two-electron energy          =     20.82780207939789
	Reference energy             =    -92.90667659261183

*** tstop() called on n412-040.vsc4.prov at Tue Jan 26 18:16:59 2021
Module time:
	user time   =       2.48 seconds =       0.04 minutes
	system time =       1.23 seconds =       0.02 minutes
	total time  =         10 seconds =       0.17 minutes
Total time:
	user time   =      40.09 seconds =       0.67 minutes
	system time =       2.70 seconds =       0.05 minutes
	total time  =         17 seconds =       0.28 minutes
            **************************
            *                        *
            *        CCENERGY        *
            *                        *
            **************************

    Nuclear Rep. energy (wfn)     =   23.686839163517778
    SCF energy          (wfn)     =  -92.906676592611674
    Reference energy    (file100) =  -92.906676592611831

    Input parameters:
    -----------------
    Wave function   =     CCSD_T
    Reference wfn   =     RHF
    Brueckner       =     No
    Memory (Mbytes) =     250000.0
    Maxiter         =     50
    R_Convergence   =     1.0e-07
    E_Convergence   =     1.0e-06
    Restart         =     Yes
    DIIS            =     Yes
    AO Basis        =     NONE
    ABCD            =     NEW
    Cache Level     =     2
    Cache Type      =     LOW
    Print Level     =     1
    Num. of threads =     48
    # Amps to Print =     10
    Print MP2 Amps? =     No
    Analyze T2 Amps =     No
    Print Pair Ener =     No
    Local CC        =     No
    SCS-MP2         =     False
    SCSN-MP2        =     False
    SCS-CCSD        =     False

MP2 correlation energy -0.3530733350353343
                Solving CC Amplitude Equations
                ------------------------------
  Iter             Energy              RMS        T1Diag      D1Diag    New D1Diag    D2Diag
  ----     ---------------------    ---------   ----------  ----------  ----------   --------
     0        -0.353073335035334    0.000e+00    0.000000    0.000000    0.000000    0.169040
     1        -0.340292083127455    6.143e-02    0.012781    0.025830    0.025830    0.161615
     2        -0.352240372523314    2.559e-02    0.012369    0.024857    0.024857    0.172482
     3        -0.355210407612983    1.022e-02    0.014481    0.028871    0.028871    0.178769
     4        -0.355342147305482    2.835e-03    0.014597    0.029114    0.029114    0.180250
     5        -0.355479623681958    1.062e-03    0.014671    0.029202    0.029202    0.180910
     6        -0.355490997353556    2.372e-04    0.014659    0.029183    0.029183    0.180993
     7        -0.355492448278624    6.670e-05    0.014652    0.029167    0.029167    0.181002
     8        -0.355494190134967    1.864e-05    0.014650    0.029165    0.029165    0.181007
     9        -0.355494469025526    5.625e-06    0.014650    0.029164    0.029164    0.181008
    10        -0.355494236162605    1.801e-06    0.014650    0.029164    0.029164    0.181008
    11        -0.355494326426331    6.012e-07    0.014650    0.029164    0.029164    0.181008
    12        -0.355494298533569    2.162e-07    0.014650    0.029164    0.029164    0.181008
    13        -0.355494302447024    8.315e-08    0.014650    0.029164    0.029164    0.181008

    Iterations converged.


    Largest TIA Amplitudes:
              4  86         0.0150804337
              3  60         0.0150804336
              3  65         0.0138003783
              4  91         0.0138003783
              4  83        -0.0124771066
              3  57        -0.0124771063
              2   8        -0.0082430141
              3  67         0.0075935667
              4  93         0.0075935667
              2   5         0.0070034238

    Largest TIjAb Amplitudes:
      3   3  58  58        -0.0497656612
      4   4  84  84        -0.0497656612
      3   3  57  58        -0.0338764845
      3   3  58  57        -0.0338764845
      4   4  83  84        -0.0338764845
      4   4  84  83        -0.0338764845
      3   4  58  84        -0.0312494481
      4   3  84  58        -0.0312494481
      3   3  57  57        -0.0263923082
      4   4  83  83        -0.0263923082

    SCF energy       (wfn)                    =  -92.906676592611674
    Reference energy (file100)                =  -92.906676592611831

    Opposite-spin MP2 correlation energy      =   -0.266678764927118
    Same-spin MP2 correlation energy          =   -0.086394570108216
    Singles MP2 correlation energy            =   -0.000000000000000
    MP2 correlation energy                    =   -0.353073335035334
      * MP2 total energy                      =  -93.259749927647164

    Opposite-spin CCSD correlation energy     =   -0.283676478784365
    Same-spin CCSD correlation energy         =   -0.071817823662660
    Singles CCSD correlation energy           =    0.000000000000000
    CCSD correlation energy                   =   -0.355494302447024
      * CCSD total energy                     =  -93.262170895058858

            **************************
            *                        *
            *        CCTRIPLES       *
            *                        *
            **************************


    Wave function   =    CCSD_T
    Reference wfn   =      RHF

    Nuclear Rep. energy (wfn)                =   23.686839163517778
    SCF energy          (wfn)                =  -92.906676592611674
    Reference energy    (file100)            =  -92.906676592611831
    CCSD energy         (file100)            =   -0.355494302447024
    Total CCSD energy   (file100)            =  -93.262170895058858

    Number of ijk index combinations:               35
    Memory available in words        :     31250000000
    ~Words needed per explicit thread:          340736
    Number of threads for explicit ijk threading:   48

    (T) energy                                =   -0.018891434812902
      * CCSD(T) total energy                  =  -93.281062329871759


    Psi4 stopped on: Tuesday, 26 January 2021 06:17PM
    Psi4 wall time for execution: 0:00:24.41

*** Psi4 exiting successfully. Buy a developer a beer!
