
    -----------------------------------------------------------------------
          Psi4: An Open-Source Ab Initio Electronic Structure Package
                               Psi4 1.4a3.dev88 

                         Git: Rev {master} 262e345 


    D. G. A. Smith, L. A. Burns, A. C. Simmonett, R. M. Parrish,
    M. C. Schieber, R. Galvelis, P. Kraus, H. Kruse, R. Di Remigio,
    A. Alenaizan, A. M. James, S. Lehtola, J. P. Misiewicz, M. Scheurer,
    R. A. Shaw, J. B. Schriber, Y. Xie, Z. L. Glick, D. A. Sirianni,
    J. S. O'Brien, J. M. Waldrop, A. Kumar, E. G. Hohenstein,
    B. P. Pritchard, B. R. Brooks, H. F. Schaefer III, A. Yu. Sokolov,
    K. Patkowski, A. E. DePrince III, U. Bozkaya, R. A. King,
    F. A. Evangelista, J. M. Turney, T. D. Crawford, C. D. Sherrill,
    J. Chem. Phys. 152(18) 184108 (2020). https://doi.org/10.1063/5.0006002

                            Additional Code Authors
    E. T. Seidl, C. L. Janssen, E. F. Valeev, M. L. Leininger,
    J. F. Gonthier, R. M. Richard, H. R. McAlexander, M. Saitow, X. Wang,
    P. Verma, and M. H. Lechner

             Previous Authors, Complete List of Code Contributors,
                       and Citations for Specific Modules
    https://github.com/psi4/psi4/blob/master/codemeta.json
    https://github.com/psi4/psi4/graphs/contributors
    http://psicode.org/psi4manual/master/introduction.html#citing-psifour

    -----------------------------------------------------------------------


    Psi4 started on: Tuesday, 26 January 2021 06:18PM

    Process ID: 403874
    Host:       n412-039.vsc4.prov
    PSIDATADIR: /home/fs71337/gallo4/psi4/eri-6/psi4/build/stage/share/psi4
    Memory:     500.0 MiB
    Threads:    48
    
  ==> Input File <==

--------------------------------------------------------------------------
# Any line starting with the # character is a comment line
memory 250000 mb
molecule molecule{
0 1
N          0.0000000000        0.0000000000       -0.6018924656
C          0.0000000000        0.0000000000        0.5651392093
H          0.0000000000        0.0000000000        1.6297003342
}

set {
  reference rhf
  basis aug-cc-pV(d+d)Z
  scf_type OUT_OF_CORE
  freeze_core true
}

energy('ccsd(t)')
--------------------------------------------------------------------------

  Memory set to 232.831 GiB by Python driver.

Scratch directory: /binfl/lv71337/airmler/temp/

*** tstart() called on n412-039.vsc4.prov
*** at Tue Jan 26 18:18:56 2021

   => Loading Basis Set <=

    Name: AUG-CC-PV(D+D)Z
    Role: ORBITAL
    Keyword: BASIS
    atoms 1 entry N          line   246 file /home/fs71337/gallo4/psi4/eri-6/psi4/build/stage/share/psi4/basis/aug-cc-pv_dpd_z.gbs 
    atoms 2 entry C          line   210 file /home/fs71337/gallo4/psi4/eri-6/psi4/build/stage/share/psi4/basis/aug-cc-pv_dpd_z.gbs 
    atoms 3 entry H          line    68 file /home/fs71337/gallo4/psi4/eri-6/psi4/build/stage/share/psi4/basis/aug-cc-pv_dpd_z.gbs 


         ---------------------------------------------------------
                                   SCF
               by Justin Turney, Rob Parrish, Andy Simmonett
                          and Daniel G. A. Smith
                              RHF Reference
                       48 Threads, 238418 MiB Core
         ---------------------------------------------------------

  ==> Geometry <==

    Molecular point group: c2v
    Full point group: C_inf_v

    Geometry (in Angstrom), charge = 0, multiplicity = 1:

       Center              X                  Y                   Z               Mass       
    ------------   -----------------  -----------------  -----------------  -----------------
         N            0.000000000000     0.000000000000    -0.601736179241    14.003074004430
         C            0.000000000000     0.000000000000     0.565295495659    12.000000000000
         H            0.000000000000     0.000000000000     1.629856620559     1.007825032230

  Running in c2v symmetry.

  Rotational constants: A = ************  B =      1.45547  C =      1.45547 [cm^-1]
  Rotational constants: A = ************  B =  43633.92219  C =  43633.92219 [MHz]
  Nuclear repulsion =   23.686839163517778

  Charge       = 0
  Multiplicity = 1
  Electrons    = 14
  Nalpha       = 7
  Nbeta        = 7

  ==> Algorithm <==

  SCF Algorithm Type is OUT_OF_CORE.
  DIIS enabled.
  MOM disabled.
  Fractional occupation disabled.
  Guess Type is SAD.
  Energy threshold   = 1.00e-08
  Density threshold  = 1.00e-08
  Integral threshold = 1.00e-12

  ==> Primary Basis <==

  Basis Set: AUG-CC-PV(D+D)Z
    Blend: AUG-CC-PV(D+D)Z
    Number of shells: 23
    Number of basis function: 55
    Number of Cartesian functions: 59
    Spherical Harmonics?: true
    Max angular momentum: 2

  ==> Integral Setup <==

  ==> DiskJK: Disk-Based J/K Matrices <==

    J tasked:                  Yes
    K tasked:                  Yes
    wK tasked:                  No
    Memory [MiB]:           178813
    Schwarz Cutoff:          1E-12

  Minimum eigenvalue in the overlap matrix is 6.5547688225E-04.
  Reciprocal condition number of the overlap matrix is 1.1707372441E-04.
    Using symmetric orthogonalization.

  ==> Pre-Iterations <==

  SCF Guess: Superposition of Atomic Densities via on-the-fly atomic UHF (no occupation information).


 WARNING: Atomic UHF is not converging! Try casting from a smaller basis or call Rob at CCMST.

 WARNING: Atomic UHF is not converging! Try casting from a smaller basis or call Rob at CCMST.
   -------------------------
    Irrep   Nso     Nmo    
   -------------------------
     A1        27      27 
     A2         4       4 
     B1        12      12 
     B2        12      12 
   -------------------------
    Total      55      55
   -------------------------

  ==> Iterations <==

                        Total Energy        Delta E     RMS |[F,P]|

   @RHF iter SAD:   -90.92936383673864   -9.09294e+01   0.00000e+00 
   @RHF iter   1:   -92.69884762601355   -1.76948e+00   1.82052e-02 DIIS
   @RHF iter   2:   -92.74815408244423   -4.93065e-02   1.72520e-02 DIIS
   @RHF iter   3:   -92.88217700165923   -1.34023e-01   1.28817e-03 DIIS
   @RHF iter   4:   -92.88437892038975   -2.20192e-03   7.19663e-04 DIIS
   @RHF iter   5:   -92.88524695674619   -8.68036e-04   3.07241e-04 DIIS
   @RHF iter   6:   -92.88557741445103   -3.30458e-04   1.30091e-04 DIIS
   @RHF iter   7:   -92.88564459107634   -6.71766e-05   4.00206e-05 DIIS
   @RHF iter   8:   -92.88564913931648   -4.54824e-06   6.18843e-06 DIIS
   @RHF iter   9:   -92.88564916881622   -2.94997e-08   1.14816e-06 DIIS
   @RHF iter  10:   -92.88564916983381   -1.01760e-09   8.99400e-08 DIIS
   @RHF iter  11:   -92.88564916984657   -1.27613e-11   1.32997e-08 DIIS
   @RHF iter  12:   -92.88564916984681   -2.41585e-13   1.80855e-09 DIIS
  Energy and wave function converged.


  ==> Post-Iterations <==

    Orbital Energies [Eh]
    ---------------------

    Doubly Occupied:                                                      

       1A1   -15.616206     2A1   -11.308058     3A1    -1.235156  
       4A1    -0.815688     5A1    -0.582923     1B1    -0.492793  
       1B2    -0.492793  

    Virtual:                                                              

       6A1     0.028808     7A1     0.082321     2B1     0.083856  
       2B2     0.083856     8A1     0.157168     3B1     0.158251  
       3B2     0.158251     9A1     0.181840     4B1     0.243485  
       4B2     0.243485    10A1     0.269502    11A1     0.338214  
       5B1     0.412840     5B2     0.412840    12A1     0.431464  
       1A2     0.431464    13A1     0.497469    14A1     0.573188  
       6B1     0.656325     6B2     0.656325    15A1     0.758885  
      16A1     0.818735     2A2     0.818735     7B1     0.820198  
       7B2     0.820198    17A1     0.870168     8B1     0.995282  
       8B2     0.995282    18A1     1.093972    19A1     1.289172  
      20A1     1.515265     9B1     1.587390     9B2     1.587390  
      21A1     1.635381     3A2     1.635381    10B1     1.678261  
      10B2     1.678261    22A1     1.887731    11B1     2.221968  
      11B2     2.221968    23A1     2.345802    24A1     2.578316  
       4A2     2.578316    25A1     2.614206    12B2     2.953576  
      12B1     2.953576    26A1     3.393750    27A1     3.701852  

    Final Occupation by Irrep:
             A1    A2    B1    B2 
    DOCC [     5,    0,    1,    1 ]

  @RHF Final Energy:   -92.88564916984681

   => Energetics <=

    Nuclear Repulsion Energy =             23.6868391635177780
    One-Electron Energy =                -172.0577393449578096
    Two-Electron Energy =                  55.4852510115932063
    Total Energy =                        -92.8856491698468147

Computation Completed


Properties will be evaluated at   0.000000,   0.000000,   0.000000 [a0]

Properties computed using the SCF density matrix

  Nuclear Dipole Moment: [e a0]
     X:     0.0000      Y:     0.0000      Z:     1.5297

  Electronic Dipole Moment: [e a0]
     X:     0.0000      Y:     0.0000      Z:    -0.2300

  Dipole Moment: [e a0]
     X:     0.0000      Y:     0.0000      Z:     1.2997     Total:     1.2997

  Dipole Moment: [D]
     X:     0.0000      Y:     0.0000      Z:     3.3035     Total:     3.3035


*** tstop() called on n412-039.vsc4.prov at Tue Jan 26 18:18:57 2021
Module time:
	user time   =      23.36 seconds =       0.39 minutes
	system time =       0.96 seconds =       0.02 minutes
	total time  =          1 seconds =       0.02 minutes
Total time:
	user time   =      23.36 seconds =       0.39 minutes
	system time =       0.96 seconds =       0.02 minutes
	total time  =          1 seconds =       0.02 minutes

*** tstart() called on n412-039.vsc4.prov
*** at Tue Jan 26 18:18:57 2021


	Wfn Parameters:
	--------------------
	Wavefunction         = CCSD_T
	Number of irreps     = 4
	Number of MOs        = 55
	Number of active MOs = 53
	AO-Basis             = NONE
	Semicanonical        = false
	Reference            = RHF
	Print Level          = 1

	IRREP	# MOs	# FZDC	# DOCC	# SOCC	# VIRT	# FZVR
	-----	-----	------	------	------	------	------
	 A1	   27	    2	    3	    0	    22	    0
	 A2	   4	    0	    0	    0	    4	    0
	 B1	   12	    0	    1	    0	    11	    0
	 B2	   12	    0	    1	    0	    11	    0
	Transforming integrals...
	IWL integrals will be deleted.
	(OO|OO)...
	Presorting SO-basis two-electron integrals.
	Sorting File: SO Ints (nn|nn) nbuckets = 1
	Constructing frozen core operators
	Starting first half-transformation.
	Sorting half-transformed integrals.
	First half integral transformation complete.
	Starting second half-transformation.
	Two-electron integral transformation complete.
	(OO|OV)...
	Starting second half-transformation.
	Two-electron integral transformation complete.
	(OO|VV)...
	Starting second half-transformation.
	Two-electron integral transformation complete.
	(OV|OO)...
	Starting first half-transformation.
	Sorting half-transformed integrals.
	First half integral transformation complete.
	Starting second half-transformation.
	Two-electron integral transformation complete.
	(OV|OV)...
	Starting second half-transformation.
	Two-electron integral transformation complete.
	(OV|VV)...
	Starting second half-transformation.
	Two-electron integral transformation complete.
	(VV|OO)...
	Starting first half-transformation.
	Sorting half-transformed integrals.
	First half integral transformation complete.
	Starting second half-transformation.
	Two-electron integral transformation complete.
	(VV|OV)...
	Starting second half-transformation.
	Two-electron integral transformation complete.
	(VV|VV)...
	Starting second half-transformation.
	Two-electron integral transformation complete.
	Frozen core energy     =    -88.53539163498831

	Size of irrep 0 of <ab|cd> integrals:      0.551 (MW) /      4.405 (MB)
	Size of irrep 1 of <ab|cd> integrals:      0.175 (MW) /      1.398 (MB)
	Size of irrep 2 of <ab|cd> integrals:      0.327 (MW) /      2.617 (MB)
	Size of irrep 3 of <ab|cd> integrals:      0.327 (MW) /      2.617 (MB)
	Total:                                     1.380 (MW) /     11.037 (MB)

	Size of irrep 0 of <ia|bc> integrals:      0.065 (MW) /      0.522 (MB)
	Size of irrep 1 of <ia|bc> integrals:      0.014 (MW) /      0.114 (MB)
	Size of irrep 2 of <ia|bc> integrals:      0.034 (MW) /      0.270 (MB)
	Size of irrep 3 of <ia|bc> integrals:      0.034 (MW) /      0.270 (MB)
	Total:                                     0.147 (MW) /      1.176 (MB)

	Size of irrep 0 of tijab amplitudes:       0.008 (MW) /      0.065 (MB)
	Size of irrep 1 of tijab amplitudes:       0.001 (MW) /      0.007 (MB)
	Size of irrep 2 of tijab amplitudes:       0.003 (MW) /      0.027 (MB)
	Size of irrep 3 of tijab amplitudes:       0.003 (MW) /      0.027 (MB)
	Total:                                     0.016 (MW) /      0.127 (MB)

	Nuclear Rep. energy          =     23.68683916351778
	SCF energy                   =    -92.88564916984681
	One-electron energy          =    -48.83548508688315
	Two-electron energy          =     20.79838838850690
	Reference energy             =    -92.88564916984679

*** tstop() called on n412-039.vsc4.prov at Tue Jan 26 18:18:59 2021
Module time:
	user time   =       0.16 seconds =       0.00 minutes
	system time =       0.17 seconds =       0.00 minutes
	total time  =          2 seconds =       0.03 minutes
Total time:
	user time   =      23.52 seconds =       0.39 minutes
	system time =       1.13 seconds =       0.02 minutes
	total time  =          3 seconds =       0.05 minutes
            **************************
            *                        *
            *        CCENERGY        *
            *                        *
            **************************

    Nuclear Rep. energy (wfn)     =   23.686839163517778
    SCF energy          (wfn)     =  -92.885649169846815
    Reference energy    (file100) =  -92.885649169846786

    Input parameters:
    -----------------
    Wave function   =     CCSD_T
    Reference wfn   =     RHF
    Brueckner       =     No
    Memory (Mbytes) =     250000.0
    Maxiter         =     50
    R_Convergence   =     1.0e-07
    E_Convergence   =     1.0e-06
    Restart         =     Yes
    DIIS            =     Yes
    AO Basis        =     NONE
    ABCD            =     NEW
    Cache Level     =     2
    Cache Type      =     LOW
    Print Level     =     1
    Num. of threads =     48
    # Amps to Print =     10
    Print MP2 Amps? =     No
    Analyze T2 Amps =     No
    Print Pair Ener =     No
    Local CC        =     No
    SCS-MP2         =     False
    SCSN-MP2        =     False
    SCS-CCSD        =     False

MP2 correlation energy -0.2974061205395173
                Solving CC Amplitude Equations
                ------------------------------
  Iter             Energy              RMS        T1Diag      D1Diag    New D1Diag    D2Diag
  ----     ---------------------    ---------   ----------  ----------  ----------   --------
     0        -0.297406120539517    0.000e+00    0.000000    0.000000    0.000000    0.165312
     1        -0.291264721615088    5.831e-02    0.011817    0.023207    0.023207    0.161581
     2        -0.301659795593129    2.430e-02    0.012024    0.023252    0.023252    0.172519
     3        -0.304612608214561    1.042e-02    0.014145    0.026941    0.026941    0.179160
     4        -0.304804409563119    3.057e-03    0.014271    0.027170    0.027170    0.180866
     5        -0.304950973574411    1.099e-03    0.014348    0.027247    0.027247    0.181615
     6        -0.304958611961501    2.385e-04    0.014332    0.027223    0.027223    0.181700
     7        -0.304959596635331    6.549e-05    0.014324    0.027208    0.027208    0.181708
     8        -0.304961348306133    1.872e-05    0.014322    0.027206    0.027206    0.181713
     9        -0.304961495083034    5.396e-06    0.014322    0.027206    0.027206    0.181714
    10        -0.304961299345522    1.767e-06    0.014322    0.027206    0.027206    0.181714
    11        -0.304961386622690    6.849e-07    0.014321    0.027206    0.027206    0.181714
    12        -0.304961364186770    2.283e-07    0.014321    0.027206    0.027206    0.181714
    13        -0.304961369150927    8.599e-08    0.014321    0.027206    0.027206    0.181714

    Iterations converged.


    Largest TIA Amplitudes:
              4  41         0.0155043921
              3  30         0.0155043917
              4  45         0.0146972630
              3  34         0.0146972629
              3  27        -0.0143950802
              4  38        -0.0143950794
              2   5        -0.0119800792
              2   3         0.0104533599
              2   8         0.0073930571
              2   0        -0.0063465198

    Largest TIjAb Amplitudes:
      3   3  27  27        -0.0435750220
      4   4  38  38        -0.0435750220
      4   4  39  39        -0.0431276520
      3   3  28  28        -0.0431276520
      3   3  27  28        -0.0387681333
      3   3  28  27        -0.0387681333
      4   4  38  39        -0.0387681332
      4   4  39  38        -0.0387681332
      4   4  37  39        -0.0274718651
      4   4  39  37        -0.0274718651

    SCF energy       (wfn)                    =  -92.885649169846815
    Reference energy (file100)                =  -92.885649169846786

    Opposite-spin MP2 correlation energy      =   -0.221375586213191
    Same-spin MP2 correlation energy          =   -0.076030534326326
    Singles MP2 correlation energy            =   -0.000000000000000
    MP2 correlation energy                    =   -0.297406120539517
      * MP2 total energy                      =  -93.183055290386307

    Opposite-spin CCSD correlation energy     =   -0.242643082168594
    Same-spin CCSD correlation energy         =   -0.062318286982334
    Singles CCSD correlation energy           =    0.000000000000000
    CCSD correlation energy                   =   -0.304961369150927
      * CCSD total energy                     =  -93.190610538997717

            **************************
            *                        *
            *        CCTRIPLES       *
            *                        *
            **************************


    Wave function   =    CCSD_T
    Reference wfn   =      RHF

    Nuclear Rep. energy (wfn)                =   23.686839163517778
    SCF energy          (wfn)                =  -92.885649169846815
    Reference energy    (file100)            =  -92.885649169846786
    CCSD energy         (file100)            =   -0.304961369150927
    Total CCSD energy   (file100)            =  -93.190610538997717

    Number of ijk index combinations:               35
    Memory available in words        :     31250000000
    ~Words needed per explicit thread:           42592
    Number of threads for explicit ijk threading:   48

    (T) energy                                =   -0.013909459971035
      * CCSD(T) total energy                  =  -93.204519998968749


    Psi4 stopped on: Tuesday, 26 January 2021 06:19PM
    Psi4 wall time for execution: 0:00:05.93

*** Psi4 exiting successfully. Buy a developer a beer!
