
    -----------------------------------------------------------------------
          Psi4: An Open-Source Ab Initio Electronic Structure Package
                               Psi4 1.4a3.dev88 

                         Git: Rev {master} 262e345 


    D. G. A. Smith, L. A. Burns, A. C. Simmonett, R. M. Parrish,
    M. C. Schieber, R. Galvelis, P. Kraus, H. Kruse, R. Di Remigio,
    A. Alenaizan, A. M. James, S. Lehtola, J. P. Misiewicz, M. Scheurer,
    R. A. Shaw, J. B. Schriber, Y. Xie, Z. L. Glick, D. A. Sirianni,
    J. S. O'Brien, J. M. Waldrop, A. Kumar, E. G. Hohenstein,
    B. P. Pritchard, B. R. Brooks, H. F. Schaefer III, A. Yu. Sokolov,
    K. Patkowski, A. E. DePrince III, U. Bozkaya, R. A. King,
    F. A. Evangelista, J. M. Turney, T. D. Crawford, C. D. Sherrill,
    J. Chem. Phys. 152(18) 184108 (2020). https://doi.org/10.1063/5.0006002

                            Additional Code Authors
    E. T. Seidl, C. L. Janssen, E. F. Valeev, M. L. Leininger,
    J. F. Gonthier, R. M. Richard, H. R. McAlexander, M. Saitow, X. Wang,
    P. Verma, and M. H. Lechner

             Previous Authors, Complete List of Code Contributors,
                       and Citations for Specific Modules
    https://github.com/psi4/psi4/blob/master/codemeta.json
    https://github.com/psi4/psi4/graphs/contributors
    http://psicode.org/psi4manual/master/introduction.html#citing-psifour

    -----------------------------------------------------------------------


    Psi4 started on: Thursday, 21 January 2021 03:46PM

    Process ID: 433749
    Host:       n412-045.vsc4.prov
    PSIDATADIR: /home/fs71337/gallo4/psi4/psi4/build/stage/share/psi4
    Memory:     500.0 MiB
    Threads:    48
    
  ==> Input File <==

--------------------------------------------------------------------------
# Any line starting with the # character is a comment line
memory 250000 mb
molecule molecule{
0 1
N          0.0000000000        0.0000000000       -0.6018924656
C          0.0000000000        0.0000000000        0.5651392093
H          0.0000000000        0.0000000000        1.6297003342
}

set {
  reference rhf
  basis aug-cc-pV(5+d)Z
  scf_type OUT_OF_CORE
  freeze_core true
}

energy('ccsd(t)')
--------------------------------------------------------------------------

  Memory set to 232.831 GiB by Python driver.

Scratch directory: /binfl/lv71337/airmler/temp/

*** tstart() called on n412-045.vsc4.prov
*** at Thu Jan 21 15:46:53 2021

   => Loading Basis Set <=

    Name: AUG-CC-PV(5+D)Z
    Role: ORBITAL
    Keyword: BASIS
    atoms 1 entry N          line   491 file /home/fs71337/gallo4/psi4/psi4/build/stage/share/psi4/basis/aug-cc-pv_5pd_z.gbs 
    atoms 2 entry C          line   414 file /home/fs71337/gallo4/psi4/psi4/build/stage/share/psi4/basis/aug-cc-pv_5pd_z.gbs 
    atoms 3 entry H          line    69 file /home/fs71337/gallo4/psi4/psi4/build/stage/share/psi4/basis/aug-cc-pv_5pd_z.gbs 


         ---------------------------------------------------------
                                   SCF
               by Justin Turney, Rob Parrish, Andy Simmonett
                          and Daniel G. A. Smith
                              RHF Reference
                       48 Threads, 238418 MiB Core
         ---------------------------------------------------------

  ==> Geometry <==

    Molecular point group: c2v
    Full point group: C_inf_v

    Geometry (in Angstrom), charge = 0, multiplicity = 1:

       Center              X                  Y                   Z               Mass       
    ------------   -----------------  -----------------  -----------------  -----------------
         N            0.000000000000     0.000000000000    -0.601736179241    14.003074004430
         C            0.000000000000     0.000000000000     0.565295495659    12.000000000000
         H            0.000000000000     0.000000000000     1.629856620559     1.007825032230

  Running in c2v symmetry.

  Rotational constants: A = ************  B =      1.45547  C =      1.45547 [cm^-1]
  Rotational constants: A = ************  B =  43633.92219  C =  43633.92219 [MHz]
  Nuclear repulsion =   23.686839163517778

  Charge       = 0
  Multiplicity = 1
  Electrons    = 14
  Nalpha       = 7
  Nbeta        = 7

  ==> Algorithm <==

  SCF Algorithm Type is OUT_OF_CORE.
  DIIS enabled.
  MOM disabled.
  Fractional occupation disabled.
  Guess Type is SAD.
  Energy threshold   = 1.00e-08
  Density threshold  = 1.00e-08
  Integral threshold = 1.00e-12

  ==> Primary Basis <==

  Basis Set: AUG-CC-PV(5+D)Z
    Blend: AUG-CC-PV(5+D)Z
    Number of shells: 74
    Number of basis function: 334
    Number of Cartesian functions: 469
    Spherical Harmonics?: true
    Max angular momentum: 5

  ==> Integral Setup <==

  ==> DiskJK: Disk-Based J/K Matrices <==

    J tasked:                  Yes
    K tasked:                  Yes
    wK tasked:                  No
    Memory [MiB]:           178813
    Schwarz Cutoff:          1E-12

  Minimum eigenvalue in the overlap matrix is 2.6484691016E-06.
  Reciprocal condition number of the overlap matrix is 3.0751718943E-07.
    Using symmetric orthogonalization.

  ==> Pre-Iterations <==

  SCF Guess: Superposition of Atomic Densities via on-the-fly atomic UHF (no occupation information).


 WARNING: Atomic UHF is not converging! Try casting from a smaller basis or call Rob at CCMST.

 WARNING: Atomic UHF is not converging! Try casting from a smaller basis or call Rob at CCMST.

 WARNING: Atomic UHF is not converging! Try casting from a smaller basis or call Rob at CCMST.
   -------------------------
    Irrep   Nso     Nmo    
   -------------------------
     A1       123     123 
     A2        49      49 
     B1        81      81 
     B2        81      81 
   -------------------------
    Total     334     334
   -------------------------

  ==> Iterations <==

                        Total Energy        Delta E     RMS |[F,P]|

   @RHF iter SAD:   -43.22328923453091   -4.32233e+01   0.00000e+00 
   @RHF iter   1:   -86.14315235149134   -4.29199e+01   2.80833e-02 DIIS
   @RHF iter   2:   -87.54155153704177   -1.39840e+00   1.32895e-02 DIIS
   @RHF iter   3:   -88.47646634674700   -9.34915e-01   1.47847e-02 DIIS
   @RHF iter   4:   -92.83427377101854   -4.35781e+00   2.05189e-03 DIIS
   @RHF iter   5:   -92.90773202854498   -7.34583e-02   5.81742e-04 DIIS
   @RHF iter   6:   -92.91284587114724   -5.11384e-03   1.05832e-04 DIIS
   @RHF iter   7:   -92.91317628133937   -3.30410e-04   3.41984e-05 DIIS
   @RHF iter   8:   -92.91319142389051   -1.51426e-05   1.29094e-05 DIIS
   @RHF iter   9:   -92.91319400372102   -2.57983e-06   1.43601e-06 DIIS
   @RHF iter  10:   -92.91319406255506   -5.88340e-08   3.55441e-07 DIIS
   @RHF iter  11:   -92.91319407215728   -9.60222e-09   1.73368e-07 DIIS
   @RHF iter  12:   -92.91319407584078   -3.68350e-09   5.12777e-08 DIIS
   @RHF iter  13:   -92.91319407609443   -2.53650e-10   9.35072e-09 DIIS
  Energy and wave function converged.


  ==> Post-Iterations <==

    Orbital Energies [Eh]
    ---------------------

    Doubly Occupied:                                                      

       1A1   -15.602994     2A1   -11.295976     3A1    -1.229931  
       4A1    -0.815690     5A1    -0.583053     1B1    -0.492879  
       1B2    -0.492879  

    Virtual:                                                              

       6A1     0.017524     2B1     0.052473     2B2     0.052473  
       7A1     0.053188     8A1     0.097697     9A1     0.099937  
       3B2     0.101215     3B1     0.101215     4B1     0.149561  
       4B2     0.149561    10A1     0.163686    11A1     0.193043  
      12A1     0.202897     1A2     0.202897     5B2     0.218629  
       5B1     0.218629     6B2     0.259126     6B1     0.259126  
      13A1     0.266098    14A1     0.280339    15A1     0.327283  
       2A2     0.327283    16A1     0.365361     7B1     0.368283  
       7B2     0.368283    17A1     0.396070     8B2     0.403893  
       8B1     0.403893    18A1     0.442007     9B1     0.516619  
       9B2     0.516619    19A1     0.538656     3A2     0.544262  
      20A1     0.544262    10B1     0.552229    10B2     0.552229  
      21A1     0.596461    11B1     0.599433    11B2     0.599433  
      22A1     0.644025    23A1     0.660859     4A2     0.660859  
      24A1     0.765171    12B1     0.768007    12B2     0.768007  
      25A1     0.769483     5A2     0.769483    26A1     0.846283  
      13B1     0.876607    13B2     0.876607    14B1     0.889254  
      14B2     0.889254    27A1     0.943629    28A1     0.957887  
       6A2     0.957887    15B2     0.960688    15B1     0.960688  
      29A1     1.054353    16B1     1.090104    16B2     1.090104  
      30A1     1.123262    17B2     1.185400    17B1     1.185400  
      31A1     1.227172    32A1     1.255214    18B1     1.272167  
      18B2     1.272167    33A1     1.286670     7A2     1.286670  
      19B2     1.363032    19B1     1.363032     8A2     1.370930  
      34A1     1.370930    20B1     1.457426    20B2     1.457426  
      35A1     1.480929    36A1     1.514929     9A2     1.563246  
      37A1     1.563246    21B1     1.642688    21B2     1.642688  
      38A1     1.646547    39A1     1.655461    10A2     1.655461  
      22B1     1.770996    22B2     1.770996    40A1     1.803032  
      11A2     1.803032    23B1     1.922220    23B2     1.922220  
      41A1     1.934673    24B1     1.974963    24B2     1.974963  
      42A1     1.984944    25B1     2.099629    25B2     2.099629  
      43A1     2.128301    12A2     2.128301    44A1     2.256800  
      13A2     2.305386    45A1     2.305386    46A1     2.320409  
      26B1     2.373217    26B2     2.373217    27B1     2.429097  
      27B2     2.429097    28B1     2.481720    28B2     2.481720  
      47A1     2.485470    14A2     2.525669    48A1     2.525669  
      29B2     2.622324    29B1     2.622324    49A1     2.714608  
      50A1     2.722769    15A2     2.722769    30B1     2.842692  
      30B2     2.842692    31B1     2.893898    31B2     2.893898  
      16A2     2.931266    51A1     2.931266    52A1     2.979915  
      17A2     3.051594    53A1     3.051594    54A1     3.080125  
      32B2     3.237016    32B1     3.237016    33B2     3.310906  
      33B1     3.310906    55A1     3.377655    18A2     3.380862  
      56A1     3.380862    34B1     3.451455    34B2     3.451455  
      35B2     3.482532    35B1     3.482532    57A1     3.487761  
      19A2     3.487761    58A1     3.595386    59A1     3.636023  
      36B1     3.856047    36B2     3.856047    60A1     3.884441  
      37B2     3.973826    37B1     3.973826    20A2     4.002730  
      61A1     4.002730    21A2     4.062943    62A1     4.062943  
      38B1     4.074246    38B2     4.074246    22A2     4.097802  
      63A1     4.097802    64A1     4.102706    39B1     4.154055  
      39B2     4.154055    40B1     4.184539    40B2     4.184539  
      23A2     4.416515    65A1     4.416515    66A1     4.454047  
      41B1     4.615397    41B2     4.615397    67A1     4.655977  
      42B1     4.791621    42B2     4.791621    43B1     4.863186  
      43B2     4.863186    44B1     4.979071    44B2     4.979071  
      24A2     4.980141    68A1     4.980141    69A1     5.091432  
      45B1     5.221763    45B2     5.221763    25A2     5.383176  
      70A1     5.383176    26A2     5.530784    71A1     5.530784  
      72A1     5.592789    46B1     5.644501    46B2     5.644501  
      47B2     5.667743    47B1     5.667743    48B2     5.752232  
      48B1     5.752232    49B2     5.768249    49B1     5.768249  
      27A2     5.804904    73A1     5.804904    74A1     5.852302  
      28A2     5.852302    29A2     5.943680    75A1     5.943680  
      76A1     5.967556    77A1     6.184727    50B2     6.188138  
      50B1     6.188138    51B2     6.268060    51B1     6.268060  
      78A1     6.483044    79A1     6.673442    30A2     6.673442  
      80A1     6.802386    52B1     6.956217    52B2     6.956217  
      31A2     6.982228    81A1     6.982228    82A1     7.038184  
      53B1     7.038417    53B2     7.038417    83A1     7.281310  
      32A2     7.281310    84A1     7.418340    85A1     7.678280  
      54B2     7.704447    54B1     7.704447    55B2     8.234759  
      55B1     8.234759    33A2     8.313292    86A1     8.313292  
      87A1     8.360330    56B1     8.391733    56B2     8.391733  
      57B1     8.879722    57B2     8.879722    58B1     8.940734  
      58B2     8.940734    88A1     8.987667    34A2     9.109451  
      89A1     9.109451    59B2     9.481105    59B1     9.481105  
      90A1     9.736213    35A2     9.814565    91A1     9.814565  
      60B1    10.043048    60B2    10.043048    61B1    10.317932  
      61B2    10.317932    36A2    10.380668    92A1    10.380668  
      62B1    10.462798    62B2    10.462798    93A1    10.522404  
      37A2    10.655665    94A1    10.655665    63B1    10.811607  
      63B2    10.811607    64B1    11.122314    64B2    11.122314  
      95A1    11.229145    96A1    11.425983    38A2    12.033041  
      97A1    12.033041    98A1    12.195105    65B1    12.437603  
      65B2    12.437603    66B2    12.454323    66B1    12.454323  
      39A2    12.504429    99A1    12.504429    40A2    12.771220  
     100A1    12.771220   101A1    13.135376    41A2    13.135376  
     102A1    13.196550    67B2    13.200684    67B1    13.200684  
      68B1    13.217956    68B2    13.217956    69B2    13.592393  
      69B1    13.592393    70B1    13.711749    70B2    13.711749  
     103A1    13.814339   104A1    13.913043    42A2    13.913043  
      71B2    13.992052    71B1    13.992052    43A2    14.296928  
     105A1    14.296928    72B2    14.321965    72B1    14.321965  
     106A1    14.554959   107A1    14.715751    44A2    14.715751  
      45A2    14.764355   108A1    14.764355    73B2    14.811080  
      73B1    14.811080   109A1    15.003552    74B1    15.087832  
      74B2    15.087832   110A1    15.171898    46A2    15.171898  
      75B2    15.196621    75B1    15.196621   111A1    15.619225  
     112A1    15.792541    47A2    15.792541    76B2    16.005649  
      76B1    16.005649   113A1    16.117105    77B2    16.479417  
      77B1    16.479417   114A1    16.888327   115A1    17.185734  
      48A2    17.284796   116A1    17.284796    78B2    17.340758  
      78B1    17.340758    79B2    18.382641    79B1    18.382641  
     117A1    18.504424    49A2    18.504424   118A1    19.113316  
      80B2    19.404324    80B1    19.404324   119A1    19.932998  
      81B2    20.355642    81B1    20.355642   120A1    22.382698  
     121A1    23.497167   122A1    40.206996   123A1    52.387071  

    Final Occupation by Irrep:
             A1    A2    B1    B2 
    DOCC [     5,    0,    1,    1 ]

  @RHF Final Energy:   -92.91319407609443

   => Energetics <=

    Nuclear Repulsion Energy =             23.6868391635177780
    One-Electron Energy =                -172.1732634146663941
    Two-Electron Energy =                  55.5732301750541779
    Total Energy =                        -92.9131940760944275

Computation Completed


Properties will be evaluated at   0.000000,   0.000000,   0.000000 [a0]

Properties computed using the SCF density matrix

  Nuclear Dipole Moment: [e a0]
     X:     0.0000      Y:     0.0000      Z:     1.5297

  Electronic Dipole Moment: [e a0]
     X:     0.0000      Y:     0.0000      Z:    -0.2315

  Dipole Moment: [e a0]
     X:     0.0000      Y:     0.0000      Z:     1.2981     Total:     1.2981

  Dipole Moment: [D]
     X:     0.0000      Y:     0.0000      Z:     3.2996     Total:     3.2996


*** tstop() called on n412-045.vsc4.prov at Thu Jan 21 15:53:27 2021
Module time:
	user time   =     372.78 seconds =       6.21 minutes
	system time =      37.23 seconds =       0.62 minutes
	total time  =        394 seconds =       6.57 minutes
Total time:
	user time   =     372.78 seconds =       6.21 minutes
	system time =      37.23 seconds =       0.62 minutes
	total time  =        394 seconds =       6.57 minutes

*** tstart() called on n412-045.vsc4.prov
*** at Thu Jan 21 15:53:27 2021


	Wfn Parameters:
	--------------------
	Wavefunction         = CCSD_T
	Number of irreps     = 4
	Number of MOs        = 334
	Number of active MOs = 332
	AO-Basis             = NONE
	Semicanonical        = false
	Reference            = RHF
	Print Level          = 1

	IRREP	# MOs	# FZDC	# DOCC	# SOCC	# VIRT	# FZVR
	-----	-----	------	------	------	------	------
	 A1	   123	    2	    3	    0	    118	    0
	 A2	   49	    0	    0	    0	    49	    0
	 B1	   81	    0	    1	    0	    80	    0
	 B2	   81	    0	    1	    0	    80	    0
	Transforming integrals...
	IWL integrals will be deleted.
	(OO|OO)...
	Presorting SO-basis two-electron integrals.
	Sorting File: SO Ints (nn|nn) nbuckets = 1
	Constructing frozen core operators
	Starting first half-transformation.
	Sorting half-transformed integrals.
	First half integral transformation complete.
	Starting second half-transformation.
	Two-electron integral transformation complete.
	(OO|OV)...
	Starting second half-transformation.
	Two-electron integral transformation complete.
	(OO|VV)...
	Starting second half-transformation.
	Two-electron integral transformation complete.
	(OV|OO)...
	Starting first half-transformation.
	Sorting half-transformed integrals.
	First half integral transformation complete.
	Starting second half-transformation.
	Two-electron integral transformation complete.
	(OV|OV)...
	Starting second half-transformation.
	Two-electron integral transformation complete.
	(OV|VV)...
	Starting second half-transformation.
	Two-electron integral transformation complete.
	(VV|OO)...
	Starting first half-transformation.
	Sorting half-transformed integrals.
	First half integral transformation complete.
	Starting second half-transformation.
	Two-electron integral transformation complete.
	(VV|OV)...
	Starting second half-transformation.
	Two-electron integral transformation complete.
	(VV|VV)...
	Starting second half-transformation.
	Two-electron integral transformation complete.
	Frozen core energy     =    -88.53753527144137

	Size of irrep 0 of <ab|cd> integrals:    848.266 (MW) /   6786.125 (MB)
	Size of irrep 1 of <ab|cd> integrals:    593.604 (MW) /   4748.836 (MB)
	Size of irrep 2 of <ab|cd> integrals:    713.958 (MW) /   5711.667 (MB)
	Size of irrep 3 of <ab|cd> integrals:    713.958 (MW) /   5711.667 (MB)
	Total:                                  2869.787 (MW) /  22958.295 (MB)

	Size of irrep 0 of <ia|bc> integrals:     14.970 (MW) /    119.762 (MB)
	Size of irrep 1 of <ia|bc> integrals:      7.480 (MW) /     59.838 (MB)
	Size of irrep 2 of <ia|bc> integrals:     10.875 (MW) /     87.000 (MB)
	Size of irrep 3 of <ia|bc> integrals:     10.875 (MW) /     87.000 (MB)
	Total:                                    44.200 (MW) /    353.601 (MB)

	Size of irrep 0 of tijab amplitudes:       0.320 (MW) /      2.563 (MB)
	Size of irrep 1 of tijab amplitudes:       0.049 (MW) /      0.390 (MB)
	Size of irrep 2 of tijab amplitudes:       0.160 (MW) /      1.283 (MB)
	Size of irrep 3 of tijab amplitudes:       0.160 (MW) /      1.283 (MB)
	Total:                                     0.690 (MW) /      5.518 (MB)

	Nuclear Rep. energy          =     23.68683916351778
	SCF energy                   =    -92.91319407609443
	One-electron energy          =    -48.89613069651531
	Two-electron energy          =     20.83363272833966
	Reference energy             =    -92.91319407609924

*** tstop() called on n412-045.vsc4.prov at Thu Jan 21 16:00:32 2021
Module time:
	user time   =     160.75 seconds =       2.68 minutes
	system time =      91.33 seconds =       1.52 minutes
	total time  =        425 seconds =       7.08 minutes
Total time:
	user time   =     533.53 seconds =       8.89 minutes
	system time =     128.56 seconds =       2.14 minutes
	total time  =        819 seconds =      13.65 minutes
            **************************
            *                        *
            *        CCENERGY        *
            *                        *
            **************************

    Nuclear Rep. energy (wfn)     =   23.686839163517778
    SCF energy          (wfn)     =  -92.913194076094427
    Reference energy    (file100) =  -92.913194076099245

    Input parameters:
    -----------------
    Wave function   =     CCSD_T
    Reference wfn   =     RHF
    Brueckner       =     No
    Memory (Mbytes) =     250000.0
    Maxiter         =     50
    R_Convergence   =     1.0e-07
    E_Convergence   =     1.0e-06
    Restart         =     Yes
    DIIS            =     Yes
    AO Basis        =     NONE
    ABCD            =     NEW
    Cache Level     =     2
    Cache Type      =     LOW
    Print Level     =     1
    Num. of threads =     48
    # Amps to Print =     10
    Print MP2 Amps? =     No
    Analyze T2 Amps =     No
    Print Pair Ener =     No
    Local CC        =     No
    SCS-MP2         =     False
    SCSN-MP2        =     False
    SCS-CCSD        =     False

MP2 correlation energy -0.3804215464207000
                Solving CC Amplitude Equations
                ------------------------------
  Iter             Energy              RMS        T1Diag      D1Diag    New D1Diag    D2Diag
  ----     ---------------------    ---------   ----------  ----------  ----------   --------
     0        -0.380421546420700    0.000e+00    0.000000    0.000000    0.000000    0.170371
     1        -0.360294012179103    6.294e-02    0.013337    0.027219    0.027219    0.160313
     2        -0.373049971025221    2.651e-02    0.012646    0.025747    0.025747    0.171285
     3        -0.376093911656581    1.016e-02    0.014750    0.029864    0.029864    0.177542
     4        -0.376179938880755    2.751e-03    0.014833    0.030052    0.030052    0.178882
     5        -0.376320562975211    1.069e-03    0.014904    0.030145    0.030145    0.179543
     6        -0.376335915281236    2.323e-04    0.014897    0.030135    0.030135    0.179623
     7        -0.376336775089972    7.006e-05    0.014888    0.030118    0.030118    0.179633
     8        -0.376338248080341    1.858e-05    0.014887    0.030115    0.030115    0.179637
     9        -0.376338719678738    6.052e-06    0.014887    0.030115    0.030115    0.179639
    10        -0.376338497544459    1.927e-06    0.014886    0.030115    0.030115    0.179639
    11        -0.376338577758752    5.918e-07    0.014886    0.030115    0.030115    0.179639
    12        -0.376338550208826    2.295e-07    0.014886    0.030115    0.030115    0.179639
    13        -0.376338549800094    8.517e-08    0.014886    0.030115    0.030115    0.179639

    Iterations converged.


    Largest TIA Amplitudes:
              3 171         0.0141975873
              4 251         0.0141975791
              4 256         0.0140029410
              3 176         0.0140029370
              3 182         0.0095060947
              4 262         0.0095060946
              4 267         0.0089931397
              3 187         0.0089931351
              3 168        -0.0078534820
              4 248        -0.0078534524

    Largest TIjAb Amplitudes:
      4   4 249 249        -0.0494742205
      3   3 169 169        -0.0494742157
      3   4 169 249        -0.0311912325
      4   3 249 169        -0.0311912325
      4   4 249 250        -0.0301621160
      4   4 250 249        -0.0301621160
      3   3 169 170        -0.0301621107
      3   3 170 169        -0.0301621107
      4   4 249 252        -0.0293655848
      4   4 252 249        -0.0293655848

    SCF energy       (wfn)                    =  -92.913194076094427
    Reference energy (file100)                =  -92.913194076099245

    Opposite-spin MP2 correlation energy      =   -0.290998487979206
    Same-spin MP2 correlation energy          =   -0.089423058441494
    Singles MP2 correlation energy            =   -0.000000000000000
    MP2 correlation energy                    =   -0.380421546420700
      * MP2 total energy                      =  -93.293615622519951

    Opposite-spin CCSD correlation energy     =   -0.301916234054806
    Same-spin CCSD correlation energy         =   -0.074422315745270
    Singles CCSD correlation energy           =    0.000000000000000
    CCSD correlation energy                   =   -0.376338549800094
      * CCSD total energy                     =  -93.289532625899341

            **************************
            *                        *
            *        CCTRIPLES       *
            *                        *
            **************************


    Wave function   =    CCSD_T
    Reference wfn   =      RHF

    Nuclear Rep. energy (wfn)                =   23.686839163517778
    SCF energy          (wfn)                =  -92.913194076094427
    Reference energy    (file100)            =  -92.913194076099245
    CCSD energy         (file100)            =   -0.376338549800094
    Total CCSD energy   (file100)            =  -93.289532625899341

    Number of ijk index combinations:               35
    Memory available in words        :     31250000000
    ~Words needed per explicit thread:         6572128
    Number of threads for explicit ijk threading:   48

    (T) energy                                =   -0.020448739540452
      * CCSD(T) total energy                  =  -93.309981365439796


    Psi4 stopped on: Thursday, 21 January 2021 04:04PM
    Psi4 wall time for execution: 0:17:39.07

*** Psi4 exiting successfully. Buy a developer a beer!
