
    -----------------------------------------------------------------------
          Psi4: An Open-Source Ab Initio Electronic Structure Package
                               Psi4 1.2a1.dev939 

                         Git: Rev {HEAD} fa1ec19 


    R. M. Parrish, L. A. Burns, D. G. A. Smith, A. C. Simmonett,
    A. E. DePrince III, E. G. Hohenstein, U. Bozkaya, A. Yu. Sokolov,
    R. Di Remigio, R. M. Richard, J. F. Gonthier, A. M. James,
    H. R. McAlexander, A. Kumar, M. Saitow, X. Wang, B. P. Pritchard,
    P. Verma, H. F. Schaefer III, K. Patkowski, R. A. King, E. F. Valeev,
    F. A. Evangelista, J. M. Turney, T. D. Crawford, and C. D. Sherrill,
    J. Chem. Theory Comput. 13(7) pp 3185--3197 (2017).
    (doi: 10.1021/acs.jctc.7b00174)

    -----------------------------------------------------------------------


    Psi4 started on: Friday, 26 April 2019 03:41PM

    Process ID:  15372
    PSIDATADIR: /home/grueneis/src/psi4/objdir/stage/usr/local/psi4/share/psi4
    Memory:     500.0 MiB
    Threads:    1
    
  ==> Input File <==

--------------------------------------------------------------------------
# Any line starting with the # character is a comment line

memory 32000 mb

molecule molecule {
1 1
P          0.0000000000        0.0000000000        0.0598478687
H          0.0000000000        1.0213497563       -0.9195554905
H          0.0000000000       -1.0213497563       -0.9195554905
}

set {
  reference rhf
  basis aug-cc-pv(D+d)z
  scf_type OUT_OF_CORE
  freeze_core true
}

energy('ccsd')
--------------------------------------------------------------------------

  Memory set to  29.802 GiB by Python driver.

*** tstart() called on cqc01
*** at Fri Apr 26 15:41:03 2019

   => Loading Basis Set <=

    Name: AUG-CC-PV(D+D)Z
    Role: ORBITAL
    Keyword: BASIS
    atoms 1   entry P          line   656 file /home/grueneis/src/psi4/objdir/stage/usr/local/psi4/share/psi4/basis/aug-cc-pv_dpd_z.gbs 
    atoms 2-3 entry H          line    56 file /home/grueneis/src/psi4/objdir/stage/usr/local/psi4/share/psi4/basis/aug-cc-pv_dpd_z.gbs 


         ---------------------------------------------------------
                                   SCF
            by Justin Turney, Rob Parrish, Andy Simmonett
                             and Daniel Smith
                              RHF Reference
                        1 Threads,  30517 MiB Core
         ---------------------------------------------------------

  ==> Geometry <==

    Molecular point group: c2v
    Full point group: C2v

    Geometry (in Angstrom), charge = 1, multiplicity = 1:

       Center              X                  Y                   Z               Mass       
    ------------   -----------------  -----------------  -----------------  -----------------
           P         -0.000000000000     0.000000000000     0.059841456470    30.973761629000
           H         -0.000000000000     1.021349756300    -0.919561902730     1.007825032070
           H          0.000000000000    -1.021349756300    -0.919561902730     1.007825032070

  Running in c2v symmetry.

  Rotational constants: A =      9.28622  B =      8.01738  C =      4.30264 [cm^-1]
  Rotational constants: A = 278393.76205  B = 240354.95523  C = 128989.85190 [MHz]
  Nuclear repulsion =   11.477910769969043

  Charge       = 1
  Multiplicity = 1
  Electrons    = 16
  Nalpha       = 8
  Nbeta        = 8

  ==> Algorithm <==

  SCF Algorithm Type is OUT_OF_CORE.
  DIIS enabled.
  MOM disabled.
  Fractional occupation disabled.
  Guess Type is SAD.
  Energy threshold   = 1.00e-08
  Density threshold  = 1.00e-08
  Integral threshold = 0.00e+00

  ==> Primary Basis <==

  Basis Set: AUG-CC-PV(D+D)Z
    Blend: AUG-CC-PV(D+D)Z
    Number of shells: 22
    Number of basis function: 50
    Number of Cartesian functions: 53
    Spherical Harmonics?: true
    Max angular momentum: 2

  ==> Pre-Iterations <==

   -------------------------------------------------------
    Irrep   Nso     Nmo     Nalpha   Nbeta   Ndocc  Nsocc
   -------------------------------------------------------
     A1        22      22       0       0       0       0
     A2         5       5       0       0       0       0
     B1         9       9       0       0       0       0
     B2        14      14       0       0       0       0
   -------------------------------------------------------
    Total      50      50       8       8       8       0
   -------------------------------------------------------

  ==> Integral Setup <==

  ==> DiskJK: Disk-Based J/K Matrices <==

    J tasked:                  Yes
    K tasked:                  Yes
    wK tasked:                  No
    Memory (MB):             22888
    Schwarz Cutoff:          1E-12

  Minimum eigenvalue in the overlap matrix is 5.7625244992E-04.
  Using Symmetric Orthogonalization.

  SCF Guess: Superposition of Atomic Densities via on-the-fly atomic UHF.

  ==> Iterations <==

                        Total Energy        Delta E     RMS |[F,P]|

   @RHF iter   0:  -328.69491998176011   -3.28695e+02   4.88682e-02 
   @RHF iter   1:  -341.44956118899154   -1.27546e+01   1.69386e-02 
   @RHF iter   2:  -341.53340184708674   -8.38407e-02   1.99396e-03 DIIS
   @RHF iter   3:  -341.53527130996753   -1.86946e-03   4.14032e-04 DIIS
   @RHF iter   4:  -341.53548550878219   -2.14199e-04   9.86272e-05 DIIS
   @RHF iter   5:  -341.53549992066957   -1.44119e-05   1.77259e-05 DIIS
   @RHF iter   6:  -341.53550035479537   -4.34126e-07   2.06206e-06 DIIS
   @RHF iter   7:  -341.53550035930795   -4.51257e-09   2.04888e-07 DIIS
   @RHF iter   8:  -341.53550035935820   -5.02496e-11   3.12954e-08 DIIS
   @RHF iter   9:  -341.53550035935945   -1.25056e-12   5.39207e-09 DIIS

  ==> Post-Iterations <==

    Orbital Energies (a.u.)
    -----------------------

    Doubly Occupied:                                                      

       1A1   -80.345445     2A1    -7.877714     1B1    -5.771007  
       1B2    -5.767830     3A1    -5.766775     4A1    -1.139345  
       2B2    -0.829133     5A1    -0.728810  

    Virtual:                                                              

       2B1    -0.313200     6A1    -0.122498     3B2    -0.113781  
       4B2    -0.073821     7A1    -0.062089     3B1    -0.057002  
       8A1    -0.028525     9A1    -0.001932     5B2     0.006565  
      10A1     0.016771     1A2     0.024369     4B1     0.029492  
      11A1     0.179041     6B2     0.182838     7B2     0.257246  
       2A2     0.258395    12A1     0.265000     5B1     0.268330  
      13A1     0.322799     8B2     0.360131     6B1     0.454393  
      14A1     0.476909    15A1     0.529171     3A2     0.545335  
       9B2     0.548890     7B1     0.552798    16A1     0.567352  
      10B2     0.705544    17A1     0.787452    11B2     0.918339  
      18A1     1.020674    12B2     1.521258     4A2     1.582193  
       8B1     1.627618    19A1     1.706701    20A1     2.013104  
      13B2     2.050450     5A2     3.993585     9B1     3.999032  
      21A1     4.011103    22A1     4.058740    14B2     4.145556  

    Final Occupation by Irrep:
             A1    A2    B1    B2 
    DOCC [     5,    0,    1,    2 ]

  Energy converged.

  @RHF Final Energy:  -341.53550035935945

   => Energetics <=

    Nuclear Repulsion Energy =             11.4779107699690428
    One-Electron Energy =                -489.5747032689484399
    Two-Electron Energy =                 136.5612921396200079
    Total Energy =                       -341.5355003593593892



Properties will be evaluated at   0.000000,   0.000000,   0.000000 Bohr

Properties computed using the SCF density matrix

  Nuclear Dipole Moment: (a.u.)
     X:     0.0000      Y:     0.0000      Z:    -1.7792

  Electronic Dipole Moment: (a.u.)
     X:     0.0000      Y:     0.0000      Z:     1.3110

  Dipole Moment: (a.u.)
     X:     0.0000      Y:     0.0000      Z:    -0.4682     Total:     0.4682

  Dipole Moment: (Debye)
     X:     0.0000      Y:     0.0000      Z:    -1.1899     Total:     1.1899


*** tstop() called on cqc01 at Fri Apr 26 15:41:07 2019
Module time:
	user time   =       0.73 seconds =       0.01 minutes
	system time =       0.53 seconds =       0.01 minutes
	total time  =          4 seconds =       0.07 minutes
Total time:
	user time   =       0.73 seconds =       0.01 minutes
	system time =       0.53 seconds =       0.01 minutes
	total time  =          4 seconds =       0.07 minutes

*** tstart() called on cqc01
*** at Fri Apr 26 15:41:07 2019


	Wfn Parameters:
	--------------------
	Wavefunction         = CCSD
	Number of irreps     = 4
	Number of MOs        = 50
	Number of active MOs = 45
	AO-Basis             = NONE
	Semicanonical        = false
	Reference            = RHF
	Print Level          = 1

	IRREP	# MOs	# FZDC	# DOCC	# SOCC	# VIRT	# FZVR
	-----	-----	------	------	------	------	------
	 A1	   22	    3	    2	    0	    17	    0
	 A2	   5	    0	    0	    0	    5	    0
	 B1	   9	    1	    0	    0	    8	    0
	 B2	   14	    1	    1	    0	    12	    0
	Transforming integrals...
	IWL integrals will be deleted.
	(OO|OO)...
	Presorting SO-basis two-electron integrals.
	Sorting File: SO Ints (nn|nn) nbuckets = 1
	Transforming the one-electron integrals and constructing Fock matrices
	Starting first half-transformation.
	Sorting half-transformed integrals.
	First half integral transformation complete.
	Starting second half-transformation.
	Two-electron integral transformation complete.
	(OO|OV)...
	Starting second half-transformation.
	Two-electron integral transformation complete.
	(OO|VV)...
	Starting second half-transformation.
	Two-electron integral transformation complete.
	(OV|OO)...
	Starting first half-transformation.
	Sorting half-transformed integrals.
	First half integral transformation complete.
	Starting second half-transformation.
	Two-electron integral transformation complete.
	(OV|OV)...
	Starting second half-transformation.
	Two-electron integral transformation complete.
	(OV|VV)...
	Starting second half-transformation.
	Two-electron integral transformation complete.
	(VV|OO)...
	Starting first half-transformation.
	Sorting half-transformed integrals.
	First half integral transformation complete.
	Starting second half-transformation.
	Two-electron integral transformation complete.
	(VV|OV)...
	Starting second half-transformation.
	Two-electron integral transformation complete.
	(VV|VV)...
	Starting second half-transformation.
	Two-electron integral transformation complete.
	Frozen core energy     =   -341.83615240792835

	Size of irrep 0 of <ab|cd> integrals:      0.272 (MW) /      2.180 (MB)
	Size of irrep 1 of <ab|cd> integrals:      0.131 (MW) /      1.048 (MB)
	Size of irrep 2 of <ab|cd> integrals:      0.154 (MW) /      1.229 (MB)
	Size of irrep 3 of <ab|cd> integrals:      0.238 (MW) /      1.905 (MB)
	Total:                                     0.795 (MW) /      6.363 (MB)

	Size of irrep 0 of <ia|bc> integrals:      0.024 (MW) /      0.192 (MB)
	Size of irrep 1 of <ia|bc> integrals:      0.007 (MW) /      0.052 (MB)
	Size of irrep 2 of <ia|bc> integrals:      0.008 (MW) /      0.066 (MB)
	Size of irrep 3 of <ia|bc> integrals:      0.020 (MW) /      0.160 (MB)
	Total:                                     0.059 (MW) /      0.470 (MB)

	Size of irrep 0 of tijab amplitudes:       0.003 (MW) /      0.021 (MB)
	Size of irrep 1 of tijab amplitudes:       0.000 (MW) /      0.000 (MB)
	Size of irrep 2 of tijab amplitudes:       0.000 (MW) /      0.000 (MB)
	Size of irrep 3 of tijab amplitudes:       0.002 (MW) /      0.016 (MB)
	Total:                                     0.005 (MW) /      0.036 (MB)

	Nuclear Rep. energy          =     11.47791076996904
	SCF energy                   =   -341.53550035935945
	One-electron energy          =    -16.95994111998066
	Two-electron energy          =      5.78268239858039
	Reference energy             =   -341.53550035935956

*** tstop() called on cqc01 at Fri Apr 26 15:41:07 2019
Module time:
	user time   =       0.07 seconds =       0.00 minutes
	system time =       0.05 seconds =       0.00 minutes
	total time  =          0 seconds =       0.00 minutes
Total time:
	user time   =       0.80 seconds =       0.01 minutes
	system time =       0.58 seconds =       0.01 minutes
	total time  =          4 seconds =       0.07 minutes

*** tstart() called on cqc01
*** at Fri Apr 26 15:41:07 2019

            **************************
            *                        *
            *        CCENERGY        *
            *                        *
            **************************

    Nuclear Rep. energy (wfn)     =   11.477910769969043
    SCF energy          (wfn)     = -341.535500359359446
    Reference energy    (file100) = -341.535500359359560

    Input parameters:
    -----------------
    Wave function   =     CCSD
    Reference wfn   =     RHF
    Brueckner       =     No
    Memory (Mbytes) =     32000.0
    Maxiter         =     50
    R_Convergence   =     1.0e-07
    E_Convergence   =     1.0e-06
    Restart         =     Yes
    DIIS            =     Yes
    AO Basis        =     NONE
    ABCD            =     NEW
    Cache Level     =     2
    Cache Type      =     LOW
    Print Level     =     1
    Num. of threads =     1
    # Amps to Print =     10
    Print MP2 Amps? =     No
    Analyze T2 Amps =     No
    Print Pair Ener =     No
    Local CC        =     No
    SCS-MP2         =     False
    SCSN-MP2        =     False
    SCS-CCSD        =     False

MP2 correlation energy -0.0998506044944596
                Solving CC Amplitude Equations
                ------------------------------
  Iter             Energy              RMS        T1Diag      D1Diag    New D1Diag    D2Diag
  ----     ---------------------    ---------   ----------  ----------  ----------   --------
     0        -0.099850604494457    0.000e+00    0.000000    0.000000    0.000000    0.135407
     1        -0.145176441596992    1.119e-01    0.012453    0.023670    0.023670    0.226207
     2        -0.130214230080837    2.689e-02    0.012452    0.024504    0.024504    0.210788
     3        -0.130170834584052    4.818e-03    0.012470    0.024796    0.024796    0.211951
     4        -0.130003196507997    2.632e-03    0.012665    0.025332    0.025332    0.213357
     5        -0.130081557912424    1.244e-03    0.012827    0.025763    0.025763    0.214722
     6        -0.130194481242407    4.044e-04    0.012850    0.025828    0.025828    0.215309
     7        -0.130182585901779    1.018e-04    0.012834    0.025793    0.025793    0.215330
     8        -0.130181659398866    3.551e-05    0.012825    0.025773    0.025773    0.215334
     9        -0.130180427347256    1.049e-05    0.012821    0.025765    0.025765    0.215330
    10        -0.130180163684082    2.419e-06    0.012821    0.025764    0.025764    0.215328
    11        -0.130180077394858    6.779e-07    0.012821    0.025764    0.025764    0.215328
    12        -0.130180067619388    1.450e-07    0.012821    0.025764    0.025764    0.215328
    13        -0.130180069716562    4.142e-08    0.012821    0.025764    0.025764    0.215328
    13        -0.130180069716562    4.142e-08    0.012821    0.025764    0.025764    0.215328

    Iterations converged.


    CCSD corr. energy   =   -0.130180069716562
    PPL corr. energy    =    0.040025364402156
    OS PPL corr. energy =    0.037424503273906
    SS PPL corr. energy =    0.002600861128250
    Largest TIA Amplitudes:
              0   2        -0.0126488217
              2  30        -0.0119168986
              1   4        -0.0115419513
              1   2        -0.0104137014
              2  38         0.0072954903
              1   0         0.0068441091
              0   8        -0.0058315672
              0   0         0.0054050887
              1   1        -0.0051925376
              2  32        -0.0050124466

    Largest TIjAb Amplitudes:
      1   1  22  22        -0.1575086371
      1   1  30  30        -0.0795081037
      0   0  22  22        -0.0726414744
      0   1  22  22        -0.0545883073
      1   0  22  22        -0.0545883073
      2   2  30  30        -0.0545596324
      1   1  22  24         0.0514163132
      1   1  24  22         0.0514163132
      1   1   4   4        -0.0442433382
      0   1  22  24         0.0403040063

    SCF energy       (wfn)                    = -341.535500359359446
    Reference energy (file100)                = -341.535500359359560

    Opposite-spin MP2 correlation energy      =   -0.087642468859085
    Same-spin MP2 correlation energy          =   -0.012208135635372
    MP2 correlation energy                    =   -0.099850604494460
      * MP2 total energy                      = -341.635350963854023

    Opposite-spin CCSD correlation energy     =   -0.117135673333614
    Same-spin CCSD correlation energy         =   -0.013044396148560
    CCSD correlation energy                   =   -0.130180069716562
      * CCSD total energy                     = -341.665680429076133


*** tstop() called on cqc01 at Fri Apr 26 15:41:10 2019
Module time:
	user time   =       0.60 seconds =       0.01 minutes
	system time =       1.66 seconds =       0.03 minutes
	total time  =          3 seconds =       0.05 minutes
Total time:
	user time   =       1.40 seconds =       0.02 minutes
	system time =       2.24 seconds =       0.04 minutes
	total time  =          7 seconds =       0.12 minutes

*** Psi4 exiting successfully. Buy a developer a beer!
