
    -----------------------------------------------------------------------
          Psi4: An Open-Source Ab Initio Electronic Structure Package
                               Psi4 1.2a1.dev939 

                         Git: Rev {HEAD} fa1ec19 dirty


    R. M. Parrish, L. A. Burns, D. G. A. Smith, A. C. Simmonett,
    A. E. DePrince III, E. G. Hohenstein, U. Bozkaya, A. Yu. Sokolov,
    R. Di Remigio, R. M. Richard, J. F. Gonthier, A. M. James,
    H. R. McAlexander, A. Kumar, M. Saitow, X. Wang, B. P. Pritchard,
    P. Verma, H. F. Schaefer III, K. Patkowski, R. A. King, E. F. Valeev,
    F. A. Evangelista, J. M. Turney, T. D. Crawford, and C. D. Sherrill,
    J. Chem. Theory Comput. 13(7) pp 3185--3197 (2017).
    (doi: 10.1021/acs.jctc.7b00174)

    -----------------------------------------------------------------------


    Psi4 started on: Wednesday, 13 January 2021 03:42PM

    Process ID: 357103
    PSIDATADIR: /home/fs71337/airmler/src/psi4_uhf/build/stage/usr/local/psi4/share/psi4
    Memory:     500.0 MiB
    Threads:    1
    
  ==> Input File <==

--------------------------------------------------------------------------
# Any line starting with the # character is a comment line
memory 250000 mb
molecule molecule{
1 1
P          0.0000000000        0.0000000000        0.0598478687
H          0.0000000000        1.0213497563       -0.9195554905
H          0.0000000000       -1.0213497563       -0.9195554905
}

set {
  reference rhf
  basis aug-cc-pv(6+d)z
  scf_type OUT_OF_CORE
  freeze_core true
}

energy('ccsd')
--------------------------------------------------------------------------

  Memory set to 232.831 GiB by Python driver.

*** tstart() called on l43
*** at Wed Jan 13 15:42:20 2021

   => Loading Basis Set <=

    Name: AUG-CC-PV(6+D)Z
    Role: ORBITAL
    Keyword: BASIS
    atoms 1   entry P          line  1025 file /home/fs71337/airmler/src/psi4_uhf/build/stage/usr/local/psi4/share/psi4/basis/aug-cc-pv_6pd_z.gbs 
    atoms 2-3 entry H          line    51 file /home/fs71337/airmler/src/psi4_uhf/build/stage/usr/local/psi4/share/psi4/basis/aug-cc-pv_6pd_z.gbs 


         ---------------------------------------------------------
                                   SCF
            by Justin Turney, Rob Parrish, Andy Simmonett
                             and Daniel Smith
                              RHF Reference
                        1 Threads, 238418 MiB Core
         ---------------------------------------------------------

  ==> Geometry <==

    Molecular point group: c2v
    Full point group: C2v

    Geometry (in Angstrom), charge = 1, multiplicity = 1:

       Center              X                  Y                   Z               Mass       
    ------------   -----------------  -----------------  -----------------  -----------------
           P         -0.000000000000     0.000000000000     0.059841456470    30.973761629000
           H         -0.000000000000     1.021349756300    -0.919561902730     1.007825032070
           H          0.000000000000    -1.021349756300    -0.919561902730     1.007825032070

  Running in c2v symmetry.

  Rotational constants: A =      9.28622  B =      8.01738  C =      4.30264 [cm^-1]
  Rotational constants: A = 278393.76205  B = 240354.95523  C = 128989.85190 [MHz]
  Nuclear repulsion =   11.477910769969043

  Charge       = 1
  Multiplicity = 1
  Electrons    = 16
  Nalpha       = 8
  Nbeta        = 8

  ==> Algorithm <==

  SCF Algorithm Type is OUT_OF_CORE.
  DIIS enabled.
  MOM disabled.
  Fractional occupation disabled.
  Guess Type is SAD.
  Energy threshold   = 1.00e-08
  Density threshold  = 1.00e-08
  Integral threshold = 0.00e+00

  ==> Primary Basis <==

  Basis Set: AUG-CC-PV(6+D)Z
    Blend: AUG-CC-PV(6+D)Z
    Number of shells: 92
    Number of basis function: 452
    Number of Cartesian functions: 668
    Spherical Harmonics?: true
    Max angular momentum: 6

  ==> Pre-Iterations <==

   -------------------------------------------------------
    Irrep   Nso     Nmo     Nalpha   Nbeta   Ndocc  Nsocc
   -------------------------------------------------------
     A1       147     147       0       0       0       0
     A2        82      82       0       0       0       0
     B1        98      98       0       0       0       0
     B2       125     125       0       0       0       0
   -------------------------------------------------------
    Total     452     452       8       8       8       0
   -------------------------------------------------------

  ==> Integral Setup <==

  ==> DiskJK: Disk-Based J/K Matrices <==

    J tasked:                  Yes
    K tasked:                  Yes
    wK tasked:                  No
    Memory (MB):            178813
    Schwarz Cutoff:          1E-12

  Minimum eigenvalue in the overlap matrix is 6.2786765564E-06.
  Using Symmetric Orthogonalization.

  SCF Guess: Superposition of Atomic Densities via on-the-fly atomic UHF.

  ==> Iterations <==

                        Total Energy        Delta E     RMS |[F,P]|

   @RHF iter   0:  -328.65605910702641   -3.28656e+02   7.91997e-03 
   @RHF iter   1:  -341.35250563612027   -1.26964e+01   6.08156e-03 
   @RHF iter   2:  -341.53876544163990   -1.86260e-01   1.60003e-03 DIIS
   @RHF iter   3:  -341.55027024128123   -1.15048e-02   7.03918e-05 DIIS
   @RHF iter   4:  -341.55060918509429   -3.38944e-04   2.06640e-05 DIIS
   @RHF iter   5:  -341.55064909756481   -3.99125e-05   4.12360e-06 DIIS
   @RHF iter   6:  -341.55065049265608   -1.39509e-06   5.71426e-07 DIIS
   @RHF iter   7:  -341.55065051691048   -2.42544e-08   6.36666e-08 DIIS
   @RHF iter   8:  -341.55065051715962   -2.49145e-10   9.82326e-09 DIIS

  ==> Post-Iterations <==

    Orbital Energies (a.u.)
    -----------------------

    Doubly Occupied:                                                      

       1A1   -80.334674     2A1    -7.871061     1B1    -5.762791  
       1B2    -5.760992     3A1    -5.760499     4A1    -1.137456  
       2B2    -0.829997     5A1    -0.729545  

    Virtual:                                                              

       2B1    -0.312074     6A1    -0.123303     3B2    -0.116727  
       4B2    -0.081109     7A1    -0.077626     3B1    -0.074939  
       8A1    -0.063198     9A1    -0.042656     1A2    -0.041476  
       4B1    -0.038957    10A1    -0.038500     5B2    -0.030164  
       6B2     0.016546    11A1     0.032355    12A1     0.039442  
       7B2     0.045285     5B1     0.054519     2A2     0.054961  
      13A1     0.064983     8B2     0.066439     6B1     0.070448  
      14A1     0.091422    15A1     0.099555     9B2     0.112336  
      16A1     0.122390     3A2     0.126540     7B1     0.129778  
       8B1     0.145620    10B2     0.191789    17A1     0.205389  
      11B2     0.221919    12B2     0.239818     9B1     0.240857  
      18A1     0.246337     4A2     0.250775    13B2     0.270571  
      19A1     0.274247    20A1     0.302755     5A2     0.311218  
      10B1     0.316257    14B2     0.319492    21A1     0.326408  
       6A2     0.333800    11B1     0.340882    22A1     0.357718  
      23A1     0.402172    15B2     0.412837    16B2     0.434715  
      24A1     0.489115    12B1     0.494999    25A1     0.516382  
       7A2     0.526564    13B1     0.546933    26A1     0.577486  
      27A1     0.590538    17B2     0.591817    14B1     0.596024  
       8A2     0.596757    18B2     0.610154    28A1     0.610669  
      15B1     0.620379    19B2     0.629205     9A2     0.638558  
      20B2     0.651011    29A1     0.669760    21B2     0.670423  
      30A1     0.690001    10A2     0.695565    16B1     0.700807  
      17B1     0.723861    22B2     0.724506    31A1     0.734668  
      18B1     0.880367    23B2     0.888535    11A2     0.901807  
      32A1     0.903561    19B1     0.918513    33A1     0.925205  
      12A2     0.925704    34A1     0.956135    24B2     0.964436  
      35A1     0.981520    20B1     1.006333    25B2     1.020264  
      36A1     1.047865    26B2     1.047922    21B1     1.124011  
      13A2     1.130001    37A1     1.157544    38A1     1.169043  
      14A2     1.171578    27B2     1.180415    28B2     1.193685  
      29B2     1.277511    39A1     1.316597    22B1     1.435578  
      23B1     1.442679    15A2     1.454203    40A1     1.455737  
      41A1     1.477127    30B2     1.492887    16A2     1.520122  
      42A1     1.521588    31B2     1.537896    24B1     1.542533  
      43A1     1.546256    17A2     1.558312    44A1     1.563610  
      25B1     1.568462    32B2     1.576492    33B2     1.582076  
      18A2     1.584144    26B1     1.592357    19A2     1.592373  
      45A1     1.609615    27B1     1.644837    34B2     1.650304  
      46A1     1.665129    35B2     1.706055    47A1     1.707831  
      28B1     1.709675    36B2     1.762736    29B1     1.789149  
      48A1     1.845409    37B2     1.856909    20A2     1.903616  
      49A1     1.908156    30B1     1.920575    50A1     2.012444  
      38B2     2.060777    51A1     2.069294    39B2     2.105564  
      31B1     2.106941    21A2     2.120101    52A1     2.162057  
      32B1     2.188351    22A2     2.190574    53A1     2.203048  
      33B1     2.219998    40B2     2.221051    41B2     2.270006  
      23A2     2.287086    54A1     2.306505    34B1     2.362848  
      42B2     2.368731    24A2     2.374955    55A1     2.407407  
      43B2     2.437737    56A1     2.477022    35B1     2.478709  
      57A1     2.497739    25A2     2.502905    44B2     2.520151  
      36B1     2.532213    45B2     2.544545    58A1     2.652378  
      46B2     2.682836    26A2     2.692054    59A1     2.770941  
      27A2     2.859120    47B2     2.908559    37B1     2.926042  
      60A1     2.926967    61A1     3.042106    48B2     3.048091  
      38B1     3.128764    62A1     3.152006    49B2     3.191557  
      28A2     3.200409    39B1     3.240063    29A2     3.268252  
      63A1     3.303628    50B2     3.315831    64A1     3.333696  
      40B1     3.351027    30A2     3.372763    51B2     3.455591  
      41B1     3.470408    65A1     3.474999    31A2     3.488416  
      66A1     3.498175    52B2     3.509615    53B2     3.527485  
      32A2     3.542839    42B1     3.546994    67A1     3.553367  
      43B1     3.586084    68A1     3.603424    44B1     3.635440  
      54B2     3.656130    69A1     3.676774    45B1     3.724221  
      33A2     3.724803    55B2     3.740678    70A1     3.753942  
      34A2     3.769043    71A1     3.799227    56B2     3.827509  
      72A1     3.926142    46B1     3.930004    57B2     3.943843  
      73A1     4.034092    47B1     4.054392    58B2     4.070715  
      35A2     4.077047    48B1     4.116929    74A1     4.153386  
      49B1     4.170930    36A2     4.171832    59B2     4.185713  
      75A1     4.233498    37A2     4.250933    76A1     4.255482  
      60B2     4.258546    50B1     4.336563    38A2     4.414028  
      77A1     4.433586    61B2     4.447671    78A1     4.465812  
      79A1     4.525528    62B2     4.527670    63B2     4.571030  
      39A2     4.590919    51B1     4.714518    80A1     4.725680  
      52B1     4.789461    64B2     4.799433    53B1     4.872461  
      81A1     4.991746    65B2     5.038701    40A2     5.065162  
      66B2     5.114459    54B1     5.123347    41A2     5.124704  
      82A1     5.140363    83A1     5.158566    55B1     5.164127  
      56B1     5.224797    84A1     5.230991    67B2     5.245054  
      68B2     5.295309    42A2     5.341789    43A2     5.372127  
      69B2     5.379268    85A1     5.393056    70B2     5.450817  
      44A2     5.468758    86A1     5.483843    87A1     5.560268  
      57B1     5.568899    71B2     5.569143    45A2     5.596262  
      88A1     5.602288    58B1     5.608986    72B2     5.805475  
      46A2     5.870660    73B2     5.981827    89A1     6.052932  
      59B1     6.290489    90A1     6.364880    74B2     6.418086  
      47A2     6.480460    91A1     6.495932    75B2     6.516798  
      60B1     6.660117    48A2     6.829735    61B1     6.849260  
      92A1     6.857563    62B1     6.909893    93A1     6.909927  
      49A2     6.912896    76B2     6.923698    77B2     6.959262  
      94A1     6.995227    50A2     7.074494    95A1     7.081715  
      63B1     7.220300    51A2     7.243856    64B1     7.271842  
      78B2     7.278999    79B2     7.305709    96A1     7.331020  
      65B1     7.380900    97A1     7.410823    52A2     7.442151  
      98A1     7.497623    80B2     7.504083    53A2     7.588438  
      66B1     7.591835    99A1     7.613276    81B2     7.652393  
      82B2     7.675523   100A1     7.695247    67B1     7.746078  
     101A1     7.764805    68B1     7.775651   102A1     7.831662  
      54A2     7.836727    83B2     7.870724    84B2     8.020183  
      55A2     8.057924   103A1     8.066448    69B1     8.135276  
      85B2     8.197351    56A2     8.292673   104A1     8.374480  
      70B1     8.391483    86B2     8.460370   105A1     8.508238  
      57A2     8.527772    71B1     8.559183    87B2     8.589032  
     106A1     8.627294    72B1     8.727762    88B2     8.817108  
     107A1     8.909795    89B2     9.249390   108A1     9.257831  
      58A2     9.423894   109A1     9.435718    73B1     9.479704  
      90B2     9.491884    74B1     9.615215    59A2     9.758155  
     110A1     9.760886    91B2     9.790090    60A2     9.813089  
     111A1     9.935534    92B2     9.978154   112A1     9.988636  
      75B1     9.991215    93B2    10.081619   113A1    10.082501  
      76B1    10.109565    61A2    10.186795    77B1    10.208592  
      94B2    10.295486    62A2    10.340543   114A1    10.441745  
      95B2    10.507338   115A1    10.600084    63A2    10.636923  
      96B2    10.725437    78B1    10.729825    64A2    10.797030  
      79B1    10.797604    97B2    10.912551   116A1    10.946311  
     117A1    11.109303   118A1    11.762422    98B2    11.784008  
      80B1    12.004458    65A2    12.284284    99B2    12.390958  
     119A1    12.511632   100B2    12.702324    81B1    13.339425  
      66A2    13.366551   101B2    13.505124   120A1    13.513967  
     121A1    13.654766   102B2    15.398501   122A1    15.426139  
      82B1    17.227971   123A1    17.244767   103B2    17.276744  
      67A2    17.295134    83B1    17.344962   124A1    17.419952  
     104B2    17.430818    68A2    17.496363    84B1    17.509002  
      69A2    17.510173   105B2    17.518951   125A1    17.571514  
     126A1    17.699201    85B1    17.713416    70A2    17.911005  
     106B2    17.936040   127A1    18.221932   107B2    18.274377  
      71A2    18.288910    86B1    18.311238   128A1    18.470471  
     108B2    18.539983    72A2    20.091423    87B1    20.093490  
     129A1    20.096574   109B2    20.129501    73A2    20.305003  
     110B2    20.483278   130A1    20.563393    88B1    20.614574  
      89B1    20.948185   111B2    21.000048    74A2    21.001326  
     131A1    21.079296    90B1    21.153732   112B2    21.279519  
     132A1    21.288662    75A2    21.325905   113B2    21.430884  
     133A1    21.492537   134A1    22.187709   114B2    22.786542  
      91B1    22.833846    76A2    22.920903   115B2    22.921706  
     135A1    23.058484    77A2    23.819567   136A1    23.844170  
      92B1    23.926167   116B2    23.950318   137A1    24.068892  
      93B1    24.153170   117B2    24.224001    78A2    24.248052  
     118B2    24.337753   138A1    24.359028    79A2    24.383051  
      94B1    24.404671   139A1    24.476472   119B2    24.491395  
      95B1    24.548822    80A2    24.557139   140A1    24.749256  
     141A1    24.795519   120B2    24.900906   121B2    24.968570  
      96B1    25.970392    81A2    26.151421   142A1    26.246657  
     143A1    26.376670    97B1    27.404213   122B2    27.579926  
     144A1    30.803361   123B2    32.187086    98B1    34.559317  
      82A2    34.582636   145A1    34.737097   124B2    34.744640  
     125B2    36.319723   146A1    36.344406   147A1   215.628189  

    Final Occupation by Irrep:
             A1    A2    B1    B2 
    DOCC [     5,    0,    1,    2 ]

  Energy converged.

  @RHF Final Energy:  -341.55065051715962

   => Energetics <=

    Nuclear Repulsion Energy =             11.4779107699690428
    One-Electron Energy =                -489.6830930328554814
    Two-Electron Energy =                 136.6545317457267856
    Total Energy =                       -341.5506505171596245



Properties will be evaluated at   0.000000,   0.000000,   0.000000 Bohr

Properties computed using the SCF density matrix

  Nuclear Dipole Moment: (a.u.)
     X:     0.0000      Y:     0.0000      Z:    -1.7792

  Electronic Dipole Moment: (a.u.)
     X:     0.0000      Y:     0.0000      Z:     1.3247

  Dipole Moment: (a.u.)
     X:     0.0000      Y:     0.0000      Z:    -0.4545     Total:     0.4545

  Dipole Moment: (Debye)
     X:     0.0000      Y:     0.0000      Z:    -1.1553     Total:     1.1553


*** tstop() called on l43 at Wed Jan 13 16:01:22 2021
Module time:
	user time   =     972.94 seconds =      16.22 minutes
	system time =     165.82 seconds =       2.76 minutes
	total time  =       1142 seconds =      19.03 minutes
Total time:
	user time   =     972.94 seconds =      16.22 minutes
	system time =     165.82 seconds =       2.76 minutes
	total time  =       1142 seconds =      19.03 minutes

*** tstart() called on l43
*** at Wed Jan 13 16:01:22 2021


	Wfn Parameters:
	--------------------
	Wavefunction         = CCSD
	Number of irreps     = 4
	Number of MOs        = 452
	Number of active MOs = 447
	AO-Basis             = NONE
	Semicanonical        = false
	Reference            = RHF
	Print Level          = 1

	IRREP	# MOs	# FZDC	# DOCC	# SOCC	# VIRT	# FZVR
	-----	-----	------	------	------	------	------
	 A1	   147	    3	    2	    0	    142	    0
	 A2	   82	    0	    0	    0	    82	    0
	 B1	   98	    1	    0	    0	    97	    0
	 B2	   125	    1	    1	    0	    123	    0
	Transforming integrals...
	IWL integrals will be deleted.
	(OO|OO)...
	Presorting SO-basis two-electron integrals.
	Sorting File: SO Ints (nn|nn) nbuckets = 1
	Transforming the one-electron integrals and constructing Fock matrices
	Starting first half-transformation.
	Sorting half-transformed integrals.
	First half integral transformation complete.
	Starting second half-transformation.
	Two-electron integral transformation complete.
	(OO|OV)...
	Starting second half-transformation.
	Two-electron integral transformation complete.
	(OO|VV)...
	Starting second half-transformation.
	Two-electron integral transformation complete.
	(OV|OO)...
	Starting first half-transformation.
	Sorting half-transformed integrals.
	First half integral transformation complete.
	Starting second half-transformation.
	Two-electron integral transformation complete.
	(OV|OV)...
	Starting second half-transformation.
	Two-electron integral transformation complete.
	(OV|VV)...
	Starting second half-transformation.
	Two-electron integral transformation complete.
	(VV|OO)...
	Starting first half-transformation.
	Sorting half-transformed integrals.
	First half integral transformation complete.
	Starting second half-transformation.
	Two-electron integral transformation complete.
	(VV|OV)...
	Starting second half-transformation.
	Two-electron integral transformation complete.
	(VV|VV)...
	Starting second half-transformation.
	Two-electron integral transformation complete.
	Frozen core energy     =   -341.84243030429104

	Size of irrep 0 of <ab|cd> integrals:   2644.633 (MW) /  21157.068 (MB)
	Size of irrep 1 of <ab|cd> integrals:   2223.122 (MW) /  17784.980 (MB)
	Size of irrep 2 of <ab|cd> integrals:   2277.198 (MW) /  18217.587 (MB)
	Size of irrep 3 of <ab|cd> integrals:   2584.706 (MW) /  20677.645 (MB)
	Total:                                  9729.660 (MW) /  77837.280 (MB)

	Size of irrep 0 of <ia|bc> integrals:     20.930 (MW) /    167.443 (MB)
	Size of irrep 1 of <ia|bc> integrals:     12.306 (MW) /     98.449 (MB)
	Size of irrep 2 of <ia|bc> integrals:     13.171 (MW) /    105.366 (MB)
	Size of irrep 3 of <ia|bc> integrals:     19.726 (MW) /    157.807 (MB)
	Total:                                    66.133 (MW) /    529.065 (MB)

	Size of irrep 0 of tijab amplitudes:       0.257 (MW) /      2.057 (MB)
	Size of irrep 1 of tijab amplitudes:       0.000 (MW) /      0.000 (MB)
	Size of irrep 2 of tijab amplitudes:       0.000 (MW) /      0.000 (MB)
	Size of irrep 3 of tijab amplitudes:       0.203 (MW) /      1.627 (MB)
	Total:                                     0.460 (MW) /      3.684 (MB)

	Nuclear Rep. energy          =     11.47791076996904
	SCF energy                   =   -341.55065051715962
	One-electron energy          =    -16.97826704685915
	Two-electron energy          =      5.79213606401872
	Reference energy             =   -341.55065051716241

*** tstop() called on l43 at Wed Jan 13 16:23:56 2021
Module time:
	user time   =     729.39 seconds =      12.16 minutes
	system time =     482.73 seconds =       8.05 minutes
	total time  =       1354 seconds =      22.57 minutes
Total time:
	user time   =    1702.34 seconds =      28.37 minutes
	system time =     648.55 seconds =      10.81 minutes
	total time  =       2496 seconds =      41.60 minutes

*** tstart() called on l43
*** at Wed Jan 13 16:23:56 2021

            **************************
            *                        *
            *        CCENERGY        *
            *                        *
            **************************

    Nuclear Rep. energy (wfn)     =   11.477910769969043
    SCF energy          (wfn)     = -341.550650517159625
    Reference energy    (file100) = -341.550650517162410

    Input parameters:
    -----------------
    Wave function   =     CCSD
    Reference wfn   =     RHF
    Brueckner       =     No
    Memory (Mbytes) =     250000.0
    Maxiter         =     50
    R_Convergence   =     1.0e-07
    E_Convergence   =     1.0e-06
    Restart         =     Yes
    DIIS            =     Yes
    AO Basis        =     NONE
    ABCD            =     NEW
    Cache Level     =     2
    Cache Type      =     LOW
    Print Level     =     1
    Num. of threads =     1
    # Amps to Print =     10
    Print MP2 Amps? =     No
    Analyze T2 Amps =     No
    Print Pair Ener =     No
    Local CC        =     No
    SCS-MP2         =     False
    SCSN-MP2        =     False
    SCS-CCSD        =     False

MP2 correlation energy -0.1356053441899976
                Solving CC Amplitude Equations
                ------------------------------
  Iter             Energy              RMS        T1Diag      D1Diag    New D1Diag    D2Diag
  ----     ---------------------    ---------   ----------  ----------  ----------   --------
     0        -0.135605344189746    0.000e+00    0.000000    0.000000    0.000000    0.143290
     1        -0.170874823283305    1.484e-01    0.014179    0.024525    0.024525    0.220519
     2        -0.162332573651360    2.398e-02    0.012315    0.022012    0.022012    0.211713
     3        -0.159923759380296    6.313e-03    0.012578    0.022784    0.022784    0.210389
     4        -0.159935410849080    2.641e-03    0.012619    0.023001    0.023001    0.211484
     5        -0.159966172317656    1.489e-03    0.012753    0.023388    0.023388    0.212797
     6        -0.160015779849824    5.241e-04    0.012797    0.023508    0.023508    0.213439
     7        -0.160043189691475    1.454e-04    0.012791    0.023499    0.023499    0.213601
     8        -0.160042188941505    4.525e-05    0.012784    0.023483    0.023483    0.213615
     9        -0.160040276517610    1.558e-05    0.012780    0.023475    0.023475    0.213611
    10        -0.160040234327545    5.332e-06    0.012779    0.023471    0.023471    0.213610
    11        -0.160040093717454    1.344e-06    0.012779    0.023471    0.023471    0.213609
    12        -0.160040036470499    3.845e-07    0.012779    0.023471    0.023471    0.213609
    13        -0.160040025350724    1.038e-07    0.012779    0.023471    0.023471    0.213609
    14        -0.160040024989396    3.178e-08    0.012779    0.023471    0.023471    0.213609
    14        -0.160040024989396    3.178e-08    0.012779    0.023471    0.023471    0.213609

    Iterations converged.


    CCSD corr. energy   =   -0.160040024989396
    PPL corr. energy    =    0.056958861090834
    OS PPL corr. energy =    0.053375714962267
    SS PPL corr. energy =    0.003583146128566
    Largest TIA Amplitudes:
              2 321        -0.0140324401
              0   2         0.0107185038
              1   3        -0.0082096450
              0   0        -0.0070869423
              1   7         0.0067655361
              1   5         0.0067155146
              0   8        -0.0059888171
              1  10         0.0057120300
              2 323        -0.0053502773
              2 327         0.0052197426

    Largest TIjAb Amplitudes:
      1   1 224 224        -0.1550715334
      1   1 321 321        -0.0767153492
      0   0 224 224        -0.0697315283
      0   1 224 224         0.0518188332
      1   0 224 224         0.0518188332
      2   2 321 321        -0.0517242264
      1   1 224 229         0.0442566186
      1   1 229 224         0.0442566186
      2   2 224 224        -0.0376140439
      0   1 224 229        -0.0340369691

    SCF energy       (wfn)                    = -341.550650517159625
    Reference energy (file100)                = -341.550650517162410

    Opposite-spin MP2 correlation energy      =   -0.120354853751752
    Same-spin MP2 correlation energy          =   -0.015250490437994
    MP2 correlation energy                    =   -0.135605344189998
      * MP2 total energy                      = -341.686255861352436

    Opposite-spin CCSD correlation energy     =   -0.144007068760785
    Same-spin CCSD correlation energy         =   -0.016032952991668
    CCSD correlation energy                   =   -0.160040024989396
      * CCSD total energy                     = -341.710690542151781


*** tstop() called on l43 at Wed Jan 13 16:30:22 2021
Module time:
	user time   =      86.50 seconds =       1.44 minutes
	system time =     295.28 seconds =       4.92 minutes
	total time  =        386 seconds =       6.43 minutes
Total time:
	user time   =    1788.84 seconds =      29.81 minutes
	system time =     943.83 seconds =      15.73 minutes
	total time  =       2882 seconds =      48.03 minutes

*** Psi4 exiting successfully. Buy a developer a beer!
