
    -----------------------------------------------------------------------
          Psi4: An Open-Source Ab Initio Electronic Structure Package
                               Psi4 1.2a1.dev939 

                         Git: Rev {HEAD} fa1ec19 dirty


    R. M. Parrish, L. A. Burns, D. G. A. Smith, A. C. Simmonett,
    A. E. DePrince III, E. G. Hohenstein, U. Bozkaya, A. Yu. Sokolov,
    R. Di Remigio, R. M. Richard, J. F. Gonthier, A. M. James,
    H. R. McAlexander, A. Kumar, M. Saitow, X. Wang, B. P. Pritchard,
    P. Verma, H. F. Schaefer III, K. Patkowski, R. A. King, E. F. Valeev,
    F. A. Evangelista, J. M. Turney, T. D. Crawford, and C. D. Sherrill,
    J. Chem. Theory Comput. 13(7) pp 3185--3197 (2017).
    (doi: 10.1021/acs.jctc.7b00174)

    -----------------------------------------------------------------------


    Psi4 started on: Friday, 30 October 2020 11:53AM

    Process ID: 310094
    PSIDATADIR: /home/fs71337/airmler/src/psi4_uhf/build/stage/usr/local/psi4/share/psi4
    Memory:     500.0 MiB
    Threads:    48
    
  ==> Input File <==

--------------------------------------------------------------------------
# Any line starting with the # character is a comment line
memory 250000 mb
molecule molecule{
0 2
C          0.0000000006        0.0000000000        0.0000000109
H          0.9761315734        0.0000000000        0.4507044190
H         -0.8783873329        0.0000000000        0.6200024054
H         -0.0977442476        0.0000000000       -1.0707069548
}

set {
  reference uhf
  basis aug-cc-pv(5+d)z
  scf_type OUT_OF_CORE
  freeze_core true
}

energy('ccsd')
--------------------------------------------------------------------------

  Memory set to 232.831 GiB by Python driver.

*** tstart() called on n412-036.vsc4.prov
*** at Fri Oct 30 11:53:27 2020

   => Loading Basis Set <=

    Name: AUG-CC-PV(5+D)Z
    Role: ORBITAL
    Keyword: BASIS
    atoms 1   entry C          line   223 file /home/fs71337/airmler/src/psi4_uhf/build/stage/usr/local/psi4/share/psi4/basis/aug-cc-pv_5pd_z.gbs 
    atoms 2-4 entry H          line    56 file /home/fs71337/airmler/src/psi4_uhf/build/stage/usr/local/psi4/share/psi4/basis/aug-cc-pv_5pd_z.gbs 


         ---------------------------------------------------------
                                   SCF
            by Justin Turney, Rob Parrish, Andy Simmonett
                             and Daniel Smith
                              UHF Reference
                       48 Threads, 238418 MiB Core
         ---------------------------------------------------------

  ==> Geometry <==

    Molecular point group: cs
    Full point group: Cs

    Geometry (in Angstrom), charge = 0, multiplicity = 2:

       Center              X                  Y                   Z               Mass       
    ------------   -----------------  -----------------  -----------------  -----------------
           C         -0.000000000597     0.000000010941     0.000000000000    12.000000000000
           H         -0.976131573397     0.450704419041     0.000000000000     1.007825032070
           H          0.878387332903     0.620002405441     0.000000000000     1.007825032070
           H          0.097744247603    -1.070706954759     0.000000000000     1.007825032070

  Running in cs symmetry.

  Rotational constants: A =      9.64661  B =      9.64661  C =      4.82330 [cm^-1]
  Rotational constants: A = 289197.99307  B = 289197.95069  C = 144598.98594 [MHz]
  Nuclear repulsion =    9.711818995531507

  Charge       = 0
  Multiplicity = 2
  Electrons    = 9
  Nalpha       = 5
  Nbeta        = 4

  ==> Algorithm <==

  SCF Algorithm Type is OUT_OF_CORE.
  DIIS enabled.
  MOM disabled.
  Fractional occupation disabled.
  Guess Type is GWH.
  Energy threshold   = 1.00e-08
  Density threshold  = 1.00e-08
  Integral threshold = 0.00e+00

  ==> Primary Basis <==

  Basis Set: AUG-CC-PV(5+D)Z
    Blend: AUG-CC-PV(5+D)Z
    Number of shells: 87
    Number of basis function: 367
    Number of Cartesian functions: 497
    Spherical Harmonics?: true
    Max angular momentum: 5

  ==> Pre-Iterations <==

   -------------------------------------------------------
    Irrep   Nso     Nmo     Nalpha   Nbeta   Ndocc  Nsocc
   -------------------------------------------------------
     A'       227     227       0       0       0       0
     A"       140     140       0       0       0       0
   -------------------------------------------------------
    Total     367     367       5       4       4       1
   -------------------------------------------------------

  ==> Integral Setup <==

  ==> DiskJK: Disk-Based J/K Matrices <==

    J tasked:                  Yes
    K tasked:                  Yes
    wK tasked:                  No
    Memory (MB):            178813
    Schwarz Cutoff:          1E-12

  Minimum eigenvalue in the overlap matrix is 4.6866230544E-06.
  Using Symmetric Orthogonalization.

  SCF Guess: Generalized Wolfsberg-Helmholtz.

  ==> Iterations <==

                        Total Energy        Delta E     RMS |[F,P]|

    Occupation by irrep:
             Ap   App 
    DOCC [     4,    0 ]
    SOCC [     1,    0 ]

   @UHF iter   1:    51.08239079651920    5.10824e+01   2.90015e-01 
    Occupation by irrep:
             Ap   App 
    DOCC [     4,    0 ]
    SOCC [     0,    1 ]

   @UHF iter   2:   -34.00666411757694   -8.50891e+01   2.59218e-02 DIIS
   @UHF iter   3:   -38.08831772981932   -4.08165e+00   2.84475e-02 DIIS
   @UHF iter   4:   -39.24844214216596   -1.16012e+00   1.20007e-02 DIIS
   @UHF iter   5:   -39.55950421277827   -3.11062e-01   2.29020e-03 DIIS
   @UHF iter   6:   -39.58080129126528   -2.12971e-02   2.16852e-04 DIIS
   @UHF iter   7:   -39.58106939828812   -2.68107e-04   7.17360e-05 DIIS
   @UHF iter   8:   -39.58110771116738   -3.83129e-05   2.77123e-05 DIIS
   @UHF iter   9:   -39.58111349524642   -5.78408e-06   7.45695e-06 DIIS
   @UHF iter  10:   -39.58111390859970   -4.13353e-07   3.88338e-06 DIIS
   @UHF iter  11:   -39.58111399317516   -8.45755e-08   5.19109e-07 DIIS
   @UHF iter  12:   -39.58111399579590   -2.62074e-09   1.10889e-07 DIIS
   @UHF iter  13:   -39.58111399585183   -5.59268e-11   2.12988e-08 DIIS
   @UHF iter  14:   -39.58111399585351   -1.67688e-12   4.64586e-09 DIIS

  ==> Post-Iterations <==

   @Spin Contamination Metric:   1.167402411E-02
   @S^2 Expected:                7.500000000E-01
   @S^2 Observed:                7.616740241E-01
   @S   Expected:                5.000000000E-01
   @S   Observed:                5.000000000E-01

    Orbital Energies (a.u.)
    -----------------------

    Alpha Occupied:                                                       

       1Ap   -11.232493     2Ap    -0.948962     3Ap    -0.582253  
       4Ap    -0.582253     1App   -0.384490  

    Alpha Virtual:                                                        

       5Ap     0.024059     6Ap     0.038038     7Ap     0.038038  
       2App    0.064751     8Ap     0.093469     9Ap     0.093469  
      10Ap     0.108435    11Ap     0.167073    12Ap     0.167073  
      13Ap     0.173694     3App    0.184382     4App    0.184382  
       5App    0.224670    14Ap     0.228375    15Ap     0.228375  
      16Ap     0.236679    17Ap     0.239153     6App    0.268509  
       7App    0.268509    18Ap     0.286618    19Ap     0.286618  
      20Ap     0.293181    21Ap     0.332083    22Ap     0.332083  
       8App    0.345058    23Ap     0.390361    24Ap     0.390361  
      25Ap     0.426704     9App    0.483073    10App    0.483073  
      26Ap     0.497877    27Ap     0.497877    28Ap     0.565731  
      29Ap     0.569459    11App    0.575580    30Ap     0.589631  
      31Ap     0.589631    12App    0.624794    13App    0.624794  
      14App    0.628950    32Ap     0.632139    15App    0.652355  
      33Ap     0.657413    34Ap     0.696742    35Ap     0.696742  
      36Ap     0.717957    37Ap     0.717957    16App    0.719963  
      17App    0.719963    38Ap     0.741266    39Ap     0.741266  
      40Ap     0.796127    41Ap     0.796127    42Ap     0.819890  
      43Ap     0.854963    18App    0.856437    19App    0.856437  
      20App    0.972502    44Ap     0.990280    45Ap     1.071979  
      46Ap     1.071979    21App    1.095090    22App    1.095090  
      47Ap     1.111190    48Ap     1.115802    23App    1.136039  
      49Ap     1.223934    50Ap     1.223934    51Ap     1.272759  
      52Ap     1.272759    24App    1.290011    53Ap     1.321371  
      25App    1.330925    26App    1.330925    54Ap     1.337016  
      55Ap     1.337016    27App    1.378706    56Ap     1.417058  
      28App    1.446899    29App    1.454921    30App    1.454921  
      57Ap     1.462932    58Ap     1.462932    59Ap     1.509044  
      60Ap     1.524295    61Ap     1.524295    31App    1.587385  
      32App    1.587385    62Ap     1.608172    63Ap     1.608172  
      64Ap     1.651710    65Ap     1.651937    66Ap     1.669787  
      67Ap     1.669787    33App    1.683938    34App    1.683938  
      68Ap     1.828206    35App    1.919871    36App    1.919871  
      69Ap     1.925571    70Ap     1.925571    71Ap     1.964482  
      37App    2.007550    72Ap     2.034907    73Ap     2.034907  
      38App    2.038506    74Ap     2.038548    39App    2.096167  
      40App    2.102912    41App    2.102912    75Ap     2.191941  
      76Ap     2.282678    77Ap     2.282678    78Ap     2.356380  
      79Ap     2.356380    42App    2.411081    80Ap     2.458109  
      81Ap     2.505187    82Ap     2.505187    43App    2.622555  
      44App    2.622555    83Ap     2.722470    84Ap     2.722470  
      45App    2.857224    85Ap     2.881678    46App    2.883941  
      47App    2.883941    86Ap     2.924577    87Ap     2.927960  
      88Ap     2.927961    48App    2.957379    49App    3.020636  
      50App    3.020636    89Ap     3.044057    90Ap     3.141821  
      91Ap     3.141821    92Ap     3.149562    93Ap     3.221473  
      94Ap     3.221473    51App    3.296630    52App    3.312130  
      95Ap     3.347803    53App    3.356270    54App    3.356270  
      96Ap     3.429408    97Ap     3.429408    98Ap     3.458873  
      55App    3.477058    56App    3.490058    57App    3.490058  
      99Ap     3.564727   100Ap     3.564727    58App    3.567486  
      59App    3.567486   101Ap     3.594844   102Ap     3.594844  
     103Ap     3.595801   104Ap     3.616603    60App    3.616875  
      61App    3.616875   105Ap     3.617148   106Ap     3.617148  
     107Ap     3.707881    62App    3.791404   108Ap     3.848453  
     109Ap     3.848453   110Ap     3.925342    63App    3.977968  
      64App    4.036552    65App    4.095436    66App    4.095436  
     111Ap     4.096281   112Ap     4.096282   113Ap     4.269855  
     114Ap     4.275110   115Ap     4.275110   116Ap     4.385399  
     117Ap     4.390701   118Ap     4.392568   119Ap     4.392568  
      67App    4.449813    68App    4.480400    69App    4.480400  
      70App    4.638490    71App    4.638490   120Ap     4.652063  
     121Ap     4.652063    72App    4.726717    73App    4.726717  
      74App    4.742422   122Ap     4.859730   123Ap     4.859730  
     124Ap     4.932188    75App    4.981623   125Ap     5.008577  
     126Ap     5.019253   127Ap     5.019253   128Ap     5.232583  
      76App    5.270466    77App    5.270466   129Ap     5.375273  
     130Ap     5.375273    78App    5.523632    79App    5.523632  
     131Ap     5.644909   132Ap     5.644910    80App    5.691926  
     133Ap     5.862465   134Ap     5.993960   135Ap     5.993960  
      81App    6.037172   136Ap     6.050098    82App    6.117354  
     137Ap     6.138672   138Ap     6.198773   139Ap     6.198773  
     140Ap     6.359976   141Ap     6.364688   142Ap     6.364688  
      83App    6.368804    84App    6.368804   143Ap     6.493563  
      85App    6.560458    86App    6.560458   144Ap     6.835737  
     145Ap     6.835737   146Ap     6.853859    87App    6.900676  
      88App    6.900676    89App    7.267008   147Ap     7.357450  
      90App    7.412912   148Ap     7.483016   149Ap     7.483016  
     150Ap     7.522493   151Ap     7.564189   152Ap     7.564189  
      91App    7.589704    92App    7.589704    93App    7.922843  
      94App    7.922843    95App    7.986394   153Ap     8.037459  
     154Ap     8.037459   155Ap     8.333250   156Ap     8.334783  
     157Ap     8.334783   158Ap     8.819065   159Ap     8.862609  
     160Ap     8.862609    96App    9.415016    97App    9.623961  
      98App    9.623961   161Ap     9.626937    99App    9.700677  
     162Ap     9.840523   163Ap     9.840523   164Ap     9.875109  
     165Ap    10.130881   100App   10.138927   101App   10.138927  
     102App   10.284413   166Ap    10.448264   167Ap    10.448264  
     103App   10.575913   104App   10.575913   168Ap    10.621396  
     169Ap    10.700070   170Ap    10.700071   105App   10.738942  
     171Ap    11.189231   172Ap    11.189231   173Ap    11.564519  
     106App   11.609398   107App   11.609398   174Ap    11.824458  
     175Ap    11.824458   176Ap    12.018873   177Ap    12.069050  
     178Ap    12.069050   108App   12.089529   179Ap    13.247323  
     109App   13.268395   110App   13.268395   111App   13.278580  
     180Ap    13.292532   181Ap    13.292532   112App   13.327129  
     113App   13.327129   114App   13.374548   115App   13.374548  
     182Ap    13.541755   183Ap    13.541755   184Ap    13.570787  
     185Ap    13.605088   186Ap    13.605088   116App   13.797109  
     117App   13.817727   118App   13.817728   187Ap    13.861993  
     119App   13.917159   188Ap    13.920144   189Ap    13.920144  
     190Ap    14.079382   191Ap    14.292833   120App   14.404374  
     121App   14.461142   122App   14.461142   192Ap    14.510703  
     193Ap    14.510703   194Ap    14.597986   123App   14.623397  
     124App   14.623397   195Ap    14.762089   196Ap    14.762090  
     125App   14.764830   126App   14.801016   127App   14.803320  
     128App   14.803320   197Ap    14.919531   198Ap    14.970043  
     199Ap    15.106612   200Ap    15.106612   129App   15.158253  
     201Ap    15.386896   202Ap    15.400517   203Ap    15.400518  
     204Ap    15.576920   205Ap    15.594477   130App   15.768695  
     131App   15.768695   132App   15.818578   206Ap    16.120705  
     207Ap    16.120706   208Ap    16.290902   133App   16.462779  
     134App   16.462780   209Ap    16.657743   210Ap    16.657743  
     211Ap    16.781791   212Ap    16.781791   213Ap    17.710132  
     214Ap    17.710132   135App   17.890412   136App   18.003023  
     137App   18.003023   215Ap    18.021329   138App   18.287086  
     216Ap    18.513427   217Ap    18.513428   139App   18.572297  
     140App   18.572297   218Ap    18.967326   219Ap    19.726755  
     220Ap    19.726755   221Ap    19.834300   222Ap    20.014141  
     223Ap    20.014141   224Ap    20.988932   225Ap    22.104447  
     226Ap    22.104447   227Ap    42.028540  

    Beta Occupied:                                                        

       1Ap   -11.209673     2Ap    -0.858818     3Ap    -0.568229  
       4Ap    -0.568229  

    Beta Virtual:                                                         

       5Ap     0.025035     6Ap     0.038189     7Ap     0.038189  
       1App    0.049475     8Ap     0.093748     9Ap     0.093748  
      10Ap     0.112232     2App    0.126587    11Ap     0.168233  
      12Ap     0.168233    13Ap     0.180835     3App    0.188322  
       4App    0.188322    14Ap     0.228549    15Ap     0.228549  
      16Ap     0.236616    17Ap     0.241016     5App    0.253091  
       6App    0.270168     7App    0.270168    18Ap     0.287811  
      19Ap     0.287811    20Ap     0.302279    21Ap     0.333773  
      22Ap     0.333773    23Ap     0.392489    24Ap     0.392489  
       8App    0.396036    25Ap     0.455493     9App    0.497362  
      10App    0.497362    26Ap     0.500789    27Ap     0.500789  
      28Ap     0.568745    29Ap     0.572465    11App    0.590967  
      30Ap     0.592328    31Ap     0.592328    12App    0.627562  
      13App    0.627562    14App    0.629631    32Ap     0.636893  
      15App    0.655221    33Ap     0.674273    34Ap     0.702296  
      35Ap     0.702296    36Ap     0.719261    37Ap     0.719261  
      16App    0.730330    17App    0.730330    38Ap     0.742141  
      39Ap     0.742141    40Ap     0.798245    41Ap     0.798245  
      42Ap     0.820357    43Ap     0.856125    18App    0.871809  
      19App    0.871809    44Ap     1.012252    20App    1.042175  
      45Ap     1.076706    46Ap     1.076706    21App    1.103018  
      22App    1.103018    47Ap     1.114076    48Ap     1.118540  
      23App    1.144943    49Ap     1.226137    50Ap     1.226137  
      51Ap     1.279105    52Ap     1.279105    24App    1.293122  
      25App    1.331806    26App    1.331806    53Ap     1.340653  
      54Ap     1.341236    55Ap     1.341236    27App    1.379722  
      56Ap     1.421559    28App    1.454422    29App    1.459079  
      30App    1.459079    57Ap     1.464764    58Ap     1.464764  
      59Ap     1.509878    60Ap     1.528387    61Ap     1.528387  
      31App    1.594742    32App    1.594742    62Ap     1.609598  
      63Ap     1.609598    64Ap     1.652810    65Ap     1.656176  
      66Ap     1.671553    67Ap     1.671553    33App    1.714075  
      34App    1.714075    68Ap     1.837604    35App    1.930838  
      36App    1.930838    69Ap     1.934127    70Ap     1.934127  
      71Ap     1.982429    37App    2.012537    72Ap     2.037327  
      73Ap     2.038614    74Ap     2.038614    38App    2.051756  
      39App    2.107685    40App    2.115044    41App    2.115044  
      75Ap     2.204834    76Ap     2.290047    77Ap     2.290047  
      78Ap     2.362707    79Ap     2.362707    42App    2.460250  
      80Ap     2.478405    81Ap     2.510263    82Ap     2.510263  
      43App    2.627408    44App    2.627408    83Ap     2.724490  
      84Ap     2.724491    45App    2.865697    46App    2.888616  
      47App    2.888616    85Ap     2.889211    86Ap     2.925410  
      87Ap     2.930750    88Ap     2.930750    48App    2.958490  
      49App    3.027230    50App    3.027230    89Ap     3.048958  
      90Ap     3.145455    91Ap     3.145455    92Ap     3.158158  
      93Ap     3.222329    94Ap     3.222329    51App    3.297394  
      52App    3.312450    95Ap     3.348256    53App    3.375281  
      54App    3.375281    96Ap     3.430139    97Ap     3.430139  
      98Ap     3.462187    55App    3.484457    56App    3.495843  
      57App    3.495843    58App    3.569331    59App    3.569331  
      99Ap     3.573149   100Ap     3.573149   101Ap     3.596783  
     102Ap     3.596783   103Ap     3.598175   104Ap     3.618558  
     105Ap     3.618558    60App    3.622177    61App    3.622177  
     106Ap     3.626162   107Ap     3.709292    62App    3.795100  
     108Ap     3.855485   109Ap     3.855485   110Ap     3.931501  
      63App    3.988659    64App    4.067185   111Ap     4.107964  
     112Ap     4.107964    65App    4.110888    66App    4.110888  
     113Ap     4.281880   114Ap     4.281880   115Ap     4.285378  
     116Ap     4.387718   117Ap     4.395717   118Ap     4.395717  
     119Ap     4.400779    67App    4.463683    68App    4.499284  
      69App    4.499284    70App    4.645793    71App    4.645793  
     120Ap     4.658874   121Ap     4.658874    72App    4.733306  
      73App    4.733306    74App    4.750933   122Ap     4.868340  
     123Ap     4.868340   124Ap     4.951711    75App    5.001238  
     125Ap     5.018484   126Ap     5.022968   127Ap     5.022968  
     128Ap     5.235755    76App    5.279820    77App    5.279820  
     129Ap     5.381842   130Ap     5.381843    78App    5.531267  
      79App    5.531267   131Ap     5.648009   132Ap     5.648009  
      80App    5.697856   133Ap     5.875779   134Ap     5.996888  
     135Ap     5.996888    81App    6.042925   136Ap     6.053229  
      82App    6.116683   137Ap     6.143584   138Ap     6.200192  
     139Ap     6.200192   140Ap     6.362950    83App    6.371568  
      84App    6.371568   141Ap     6.376261   142Ap     6.376261  
     143Ap     6.493544    85App    6.576952    86App    6.576952  
     144Ap     6.838970   145Ap     6.838970   146Ap     6.860150  
      87App    6.907047    88App    6.907047    89App    7.272926  
     147Ap     7.363855    90App    7.418220   148Ap     7.483733  
     149Ap     7.483733   150Ap     7.521297   151Ap     7.568622  
     152Ap     7.568622    91App    7.594215    92App    7.594215  
      93App    7.932067    94App    7.932067    95App    7.998045  
     153Ap     8.038781   154Ap     8.038781   155Ap     8.337044  
     156Ap     8.337044   157Ap     8.339384   158Ap     8.824773  
     159Ap     8.864765   160Ap     8.864765    96App    9.433694  
     161Ap     9.634791    97App    9.637704    98App    9.637704  
      99App    9.731953   162Ap     9.854209   163Ap     9.854209  
     164Ap     9.894887   165Ap    10.144491   100App   10.148305  
     101App   10.148305   102App   10.296607   166Ap    10.459329  
     167Ap    10.459329   103App   10.595846   104App   10.595846  
     168Ap    10.642342   169Ap    10.719122   170Ap    10.719122  
     105App   10.755155   171Ap    11.198818   172Ap    11.198818  
     173Ap    11.572078   106App   11.628275   107App   11.628275  
     174Ap    11.832468   175Ap    11.832468   176Ap    12.021954  
     177Ap    12.076179   178Ap    12.076179   108App   12.109816  
     179Ap    13.248534   109App   13.269752   110App   13.269752  
     111App   13.278574   180Ap    13.292507   181Ap    13.292507  
     112App   13.341786   113App   13.341786   114App   13.378223  
     115App   13.378223   182Ap    13.543467   183Ap    13.543467  
     184Ap    13.581703   185Ap    13.605999   186Ap    13.605999  
     116App   13.797332   117App   13.818127   118App   13.818127  
     187Ap    13.861319   119App   13.917756   188Ap    13.920902  
     189Ap    13.920902   190Ap    14.080601   191Ap    14.298344  
     120App   14.404177   121App   14.461351   122App   14.461351  
     192Ap    14.510175   193Ap    14.510175   194Ap    14.596650  
     123App   14.623449   124App   14.623449   195Ap    14.761902  
     196Ap    14.761902   125App   14.766245   126App   14.801428  
     127App   14.803847   128App   14.803847   197Ap    14.920050  
     198Ap    14.970279   199Ap    15.106141   200Ap    15.106141  
     129App   15.160815   201Ap    15.387360   202Ap    15.402612  
     203Ap    15.402612   204Ap    15.577122   205Ap    15.593238  
     130App   15.770195   131App   15.770195   132App   15.820666  
     206Ap    16.120479   207Ap    16.120479   208Ap    16.292930  
     133App   16.464431   134App   16.464431   209Ap    16.658647  
     210Ap    16.658647   211Ap    16.780463   212Ap    16.780463  
     213Ap    17.709034   214Ap    17.709035   135App   17.892795  
     136App   18.003549   137App   18.003549   215Ap    18.019753  
     138App   18.287843   216Ap    18.513601   217Ap    18.513601  
     139App   18.576164   140App   18.576165   218Ap    18.965866  
     219Ap    19.728462   220Ap    19.728462   221Ap    19.835707  
     222Ap    20.013909   223Ap    20.013909   224Ap    20.988501  
     225Ap    22.104501   226Ap    22.104501   227Ap    42.037758  

    Final Occupation by Irrep:
             Ap   App 
    DOCC [     4,    0 ]
    SOCC [     0,    1 ]

  Energy converged.

  @UHF Final Energy:   -39.58111399585351

   => Energetics <=

    Nuclear Repulsion Energy =              9.7118189955315071
    One-Electron Energy =                 -71.6504659053827879
    Two-Electron Energy =                  22.3575329139977725
    Total Energy =                        -39.5811139958535065


  UHF NO Occupations:
  HONO-2 :    3 Ap 1.9991135
  HONO-1 :    4 Ap 1.9959284
  HONO-0 :    1App 1.0000000
  LUNO+0 :    5 Ap 0.0040716
  LUNO+1 :    6 Ap 0.0008865
  LUNO+2 :    7 Ap 0.0008865
  LUNO+3 :    8 Ap 0.0000015



Properties will be evaluated at   0.000000,   0.000000,   0.000000 Bohr

Properties computed using the SCF density matrix

  Nuclear Dipole Moment: (a.u.)
     X:     0.0000      Y:    -0.0000      Z:     0.0000

  Electronic Dipole Moment: (a.u.)
     X:    -0.0000      Y:     0.0000      Z:     0.0000

  Dipole Moment: (a.u.)
     X:    -0.0000      Y:    -0.0000      Z:     0.0000     Total:     0.0000

  Dipole Moment: (Debye)
     X:    -0.0000      Y:    -0.0000      Z:     0.0000     Total:     0.0000


*** tstop() called on n412-036.vsc4.prov at Fri Oct 30 12:23:27 2020
Module time:
	user time   =    1375.04 seconds =      22.92 minutes
	system time =     146.40 seconds =       2.44 minutes
	total time  =       1800 seconds =      30.00 minutes
Total time:
	user time   =    1375.04 seconds =      22.92 minutes
	system time =     146.40 seconds =       2.44 minutes
	total time  =       1800 seconds =      30.00 minutes

*** tstart() called on n412-036.vsc4.prov
*** at Fri Oct 30 12:23:27 2020


	Wfn Parameters:
	--------------------
	Wavefunction         = CCSD
	Number of irreps     = 2
	Number of MOs        = 367
	Number of active MOs = 366
	AO-Basis             = NONE
	Semicanonical        = false
	Reference            = UHF
	Print Level          = 1

	IRREP	# MOs	# FZDC	# DOCC	# SOCC	# VIRT	# FZVR
	-----	-----	------	------	------	------	------
	 Ap	   227	    1	    3	    0	    223	    0
	 App	   140	    0	    0	    1	    139	    0
	Transforming integrals...
	IWL integrals will be deleted.
	(OO|OO)...
	Presorting SO-basis two-electron integrals.
	Sorting File: SO Ints (nn|nn) nbuckets = 1
	Transforming the one-electron integrals and constructing Fock matrices
	Starting AA/AB first half-transformation.
	Sorting AA/AB half-transformed integrals.
	Starting BB first half-transformation.
	Sorting BB half-transformed integrals.
	First half integral transformation complete.
	Starting AA second half-transformation.
	Starting AB second half-transformation.
	Starting BB second half-transformation.
	Two-electron integral transformation complete.
	(OO|OV)...
	Starting AA second half-transformation.
	Starting AB second half-transformation.
	Starting BB second half-transformation.
	Two-electron integral transformation complete.
	(OO|VV)...
	Starting AA second half-transformation.
	Starting AB second half-transformation.
	Starting BB second half-transformation.
	Two-electron integral transformation complete.
	(OV|OO)...
	Starting AA/AB first half-transformation.
	Sorting AA/AB half-transformed integrals.
	Starting BB first half-transformation.
	Sorting BB half-transformed integrals.
	First half integral transformation complete.
	Starting AA second half-transformation.
	Starting AB second half-transformation.
	Starting BB second half-transformation.
	Two-electron integral transformation complete.
	(OV|OV)...
	Starting AA second half-transformation.
	Starting AB second half-transformation.
	Starting BB second half-transformation.
	Two-electron integral transformation complete.
	(OV|VV)...
	Starting AA second half-transformation.
	Starting AB second half-transformation.
	Starting BB second half-transformation.
	Two-electron integral transformation complete.
	(VV|OO)...
	Starting AA/AB first half-transformation.
	Sorting AA/AB half-transformed integrals.
	Starting BB first half-transformation.
	Sorting BB half-transformed integrals.
	First half integral transformation complete.
	Starting AA second half-transformation.
	Starting AB second half-transformation.
	Starting BB second half-transformation.
	Two-electron integral transformation complete.
	(VV|OV)...
	Starting AA second half-transformation.
	Starting AB second half-transformation.
	Starting BB second half-transformation.
	Two-electron integral transformation complete.
	(VV|VV)...
	Starting AA second half-transformation.
	Starting AB second half-transformation.
	Starting BB second half-transformation.
	Two-electron integral transformation complete.
	Frozen core energy     =    -35.31249368754044

	Size of irrep 0 of <AB|CD> integrals:   1179.510 (MW) /   9436.083 (MB)
	Size of irrep 1 of <AB|CD> integrals:    960.814 (MW) /   7686.512 (MB)
	Total:                                  2140.324 (MW) /  17122.595 (MB)

	Size of irrep 0 of <ab|cd> integrals:   1189.077 (MW) /   9512.618 (MB)
	Size of irrep 1 of <ab|cd> integrals:    974.688 (MW) /   7797.507 (MB)
	Total:                                  2163.766 (MW) /  17310.126 (MB)

	Size of irrep 0 of <Ab|Cd> integrals:   4787.118 (MW) /  38296.942 (MB)
	Size of irrep 1 of <Ab|Cd> integrals:   3870.955 (MW) /  30967.641 (MB)
	Total:                                  8658.073 (MW) /  69264.582 (MB)

	Size of irrep 0 of <IA|BC> integrals:     55.792 (MW) /    446.339 (MB)
	Size of irrep 1 of <IA|BC> integrals:     39.676 (MW) /    317.409 (MB)
	Total:                                    95.469 (MW) /    763.748 (MB)

	Size of irrep 0 of <ia|bc> integrals:     46.381 (MW) /    371.049 (MB)
	Size of irrep 1 of <ia|bc> integrals:     26.225 (MW) /    209.798 (MB)
	Total:                                    72.606 (MW) /    580.847 (MB)

	Size of irrep 0 of <Ia|Bc> integrals:     55.974 (MW) /    447.791 (MB)
	Size of irrep 1 of <Ia|Bc> integrals:     40.006 (MW) /    320.044 (MB)
	Total:                                    95.979 (MW) /    767.835 (MB)

	Size of irrep 0 of <iA|bC> integrals:     46.287 (MW) /    370.300 (MB)
	Size of irrep 1 of <iA|bC> integrals:     25.944 (MW) /    207.556 (MB)
	Total:                                    72.232 (MW) /    577.855 (MB)

	Size of irrep 0 of tIjAb amplitudes:       0.623 (MW) /      4.982 (MB)
	Size of irrep 1 of tIjAb amplitudes:       0.187 (MW) /      1.493 (MB)
	Total:                                     0.809 (MW) /      6.475 (MB)

	Nuclear Rep. energy          =      9.71181899553151
	SCF energy                   =    -39.58111399585351
	One-electron energy          =    -23.46764446892924
	Two-electron (AA) energy     =      2.47103785799976
	Two-electron (BB) energy     =      1.12950165138332
	Two-electron (AB) energy     =      5.88666565570175
	Two-electron energy          =      9.48720516508483
	Reference energy             =    -39.58111399585334

*** tstop() called on n412-036.vsc4.prov at Fri Oct 30 12:59:29 2020
Module time:
	user time   =    6977.12 seconds =     116.29 minutes
	system time =     604.85 seconds =      10.08 minutes
	total time  =       2162 seconds =      36.03 minutes
Total time:
	user time   =    8352.24 seconds =     139.20 minutes
	system time =     751.25 seconds =      12.52 minutes
	total time  =       3962 seconds =      66.03 minutes

*** tstart() called on n412-036.vsc4.prov
*** at Fri Oct 30 12:59:29 2020

            **************************
            *                        *
            *        CCENERGY        *
            *                        *
            **************************

    Nuclear Rep. energy (wfn)     =    9.711818995531507
    SCF energy          (wfn)     =  -39.581113995853507
    Reference energy    (file100) =  -39.581113995853336

    Input parameters:
    -----------------
    Wave function   =     CCSD
    Reference wfn   =     UHF
    Brueckner       =     No
    Memory (Mbytes) =     250000.0
    Maxiter         =     50
    R_Convergence   =     1.0e-07
    E_Convergence   =     1.0e-06
    Restart         =     Yes
    DIIS            =     Yes
    AO Basis        =     NONE
    ABCD            =     NEW
    Cache Level     =     2
    Cache Type      =     LRU
    Print Level     =     1
    Num. of threads =     48
    # Amps to Print =     10
    Print MP2 Amps? =     No
    Analyze T2 Amps =     No
    Print Pair Ener =     No
    Local CC        =     No
    SCS-MP2         =     False
    SCSN-MP2        =     False
    SCS-CCSD        =     False

MP2 correlation energy -0.1726137295379802
                Solving CC Amplitude Equations
                ------------------------------
  Iter             Energy              RMS        T1Diag      D1Diag    New D1Diag    D2Diag
  ----     ---------------------    ---------   ----------  ----------  ----------   --------
     0        -0.172613729537982    0.000e+00    0.000000    0.000000    0.000000    0.000000
     1        -0.183751569375161    3.964e-02    0.008575    0.000000    0.000000    0.000000
     2        -0.189021899387792    1.402e-02    0.011112    0.000000    0.000000    0.000000
     3        -0.189513149455656    4.931e-03    0.012614    0.000000    0.000000    0.000000
     4        -0.189525753065490    1.922e-03    0.013118    0.000000    0.000000    0.000000
     5        -0.189539494562351    5.593e-04    0.013191    0.000000    0.000000    0.000000
     6        -0.189538547632429    1.881e-04    0.013185    0.000000    0.000000    0.000000
     7        -0.189539352991175    6.826e-05    0.013171    0.000000    0.000000    0.000000
     8        -0.189540733764681    2.038e-05    0.013166    0.000000    0.000000    0.000000
     9        -0.189540478831305    5.905e-06    0.013165    0.000000    0.000000    0.000000
    10        -0.189540517211554    1.934e-06    0.013165    0.000000    0.000000    0.000000
    11        -0.189540542159153    5.329e-07    0.013165    0.000000    0.000000    0.000000
    12        -0.189540552763731    1.753e-07    0.013165    0.000000    0.000000    0.000000
    13        -0.189540556356274    6.095e-08    0.013165    0.000000    0.000000    0.000000
    13        -0.189540556356274    6.095e-08    0.013165    0.000000    0.000000    0.000000

    Iterations converged.


    CCSD corr. energy   =   -0.189540556356274
    PPL corr. energy    =    0.051625839277563
    OS PPL corr. energy =    0.045615993545330
    SS PPL corr. energy =    0.006009845732232
    Largest TIA Amplitudes:
              3 223        -0.0075386621
              0  20        -0.0068957165
              3 226        -0.0068345019
              0   8         0.0042805254
              0  39         0.0038198197
              3 229        -0.0036617509
              0  15        -0.0029613346
              3 232        -0.0029285347
              0  28         0.0025452584
              3 263         0.0023831322

    Largest Tia Amplitudes:
              0  20         0.0094699341
              2  18         0.0086026594
              1  19         0.0086026105
              0  28        -0.0085123868
              0  15         0.0065179867
              0  48         0.0061556098
              2   7        -0.0050471581
              1   6         0.0050471373
              2  29         0.0049529488
              1  30         0.0049529295

    Largest TIJAB Amplitudes:
      3   1 230  20        -0.0129299056
      3   2 231  20         0.0129299048
      2   1  19  18        -0.0111137597
      2   1  36  18         0.0081816816
      2   1  35  19         0.0081816795
      3   1 241  21        -0.0080836289
      3   2 241  22        -0.0080836286
      3   1 240  20        -0.0078449614
      3   2 239  20         0.0078449609
      3   2 229  22        -0.0078280563

    Largest Tijab Amplitudes:
      2   1  19  18        -0.0108320800
      2   1  36  18         0.0078974045
      2   1  35  19         0.0078974041
      2   1  19   9         0.0064713915
      2   1  18  10        -0.0064713896
      2   0 232 224        -0.0056100427
      1   0 231 224         0.0056100424
      2   1  36  35         0.0055528602
      2   1  32  18        -0.0052074522
      2   1  31  19        -0.0052074499

    Largest TIjAb Amplitudes:
      3   0  20 224        -0.0306835409
      2   2  18  18        -0.0207868132
      1   1  19  19        -0.0207868035
      3   0  20 230        -0.0184504896
      3   0   8 224         0.0175928793
      3   0  28 224         0.0173165717
      3   0  39 224         0.0162856756
      3   0  20 227        -0.0160718075
      3   0  15 224        -0.0160534794
      3   0  20 223        -0.0158144015

    SCF energy       (wfn)                    =  -39.581113995853507
    Reference energy (file100)                =  -39.581113995853336

    Opposite-spin MP2 correlation energy      =   -0.141250240911067
    Same-spin MP2 correlation energy          =   -0.031363488626884
    MP2 correlation energy                    =   -0.172613729537980
      * MP2 total energy                      =  -39.753727725391315

    Opposite-spin CCSD correlation energy     =   -0.158265159872748
    Same-spin CCSD correlation energy         =   -0.031275396642183
    CCSD correlation energy                   =   -0.189540556356274
      * CCSD total energy                     =  -39.770654552209614


*** tstop() called on n412-036.vsc4.prov at Fri Oct 30 13:47:44 2020
Module time:
	user time   =    7793.06 seconds =     129.88 minutes
	system time =    1300.81 seconds =      21.68 minutes
	total time  =       2895 seconds =      48.25 minutes
Total time:
	user time   =   16145.30 seconds =     269.09 minutes
	system time =    2052.06 seconds =      34.20 minutes
	total time  =       6857 seconds =     114.28 minutes

*** Psi4 exiting successfully. Buy a developer a beer!
