
    -----------------------------------------------------------------------
          Psi4: An Open-Source Ab Initio Electronic Structure Package
                               Psi4 1.2a1.dev938 

                         Git: Rev {HEAD} fc51d9a dirty


    R. M. Parrish, L. A. Burns, D. G. A. Smith, A. C. Simmonett,
    A. E. DePrince III, E. G. Hohenstein, U. Bozkaya, A. Yu. Sokolov,
    R. Di Remigio, R. M. Richard, J. F. Gonthier, A. M. James,
    H. R. McAlexander, A. Kumar, M. Saitow, X. Wang, B. P. Pritchard,
    P. Verma, H. F. Schaefer III, K. Patkowski, R. A. King, E. F. Valeev,
    F. A. Evangelista, J. M. Turney, T. D. Crawford, and C. D. Sherrill,
    J. Chem. Theory Comput. 13(7) pp 3185--3197 (2017).
    (doi: 10.1021/acs.jctc.7b00174)

    -----------------------------------------------------------------------


    Psi4 started on: Thursday, 20 August 2020 07:54PM

    Process ID: 422547
    PSIDATADIR: /home/irmler/Programs/psi4/beforeGrueneis3/stage/usr/local/psi4/share/psi4
    Memory:     500.0 MiB
    Threads:    4
    
  ==> Input File <==

--------------------------------------------------------------------------
# Any line starting with the # character is a comment line
memory 250000 mb
molecule molecule{
1 2
O          0.0000000000        0.0000000000       -0.0647184239
H          0.0000000000        0.8152105035        0.5136495982
H          0.0000000000       -0.8152105035        0.5136495982
}

set {
  reference uhf
  basis aug-cc-pv(d+d)z
  scf_type OUT_OF_CORE
  freeze_core true
}

energy('ccsd')
--------------------------------------------------------------------------

  Memory set to 232.831 GiB by Python driver.

*** tstart() called on cqc05
*** at Thu Aug 20 19:54:09 2020

   => Loading Basis Set <=

    Name: AUG-CC-PV(D+D)Z
    Role: ORBITAL
    Keyword: BASIS
    atoms 1   entry O          line   270 file /home/irmler/Programs/psi4/beforeGrueneis3/stage/usr/local/psi4/share/psi4/basis/aug-cc-pv_dpd_z.gbs 
    atoms 2-3 entry H          line    56 file /home/irmler/Programs/psi4/beforeGrueneis3/stage/usr/local/psi4/share/psi4/basis/aug-cc-pv_dpd_z.gbs 


         ---------------------------------------------------------
                                   SCF
            by Justin Turney, Rob Parrish, Andy Simmonett
                             and Daniel Smith
                              UHF Reference
                        4 Threads, 238418 MiB Core
         ---------------------------------------------------------

  ==> Geometry <==

    Molecular point group: c2v
    Full point group: C2v

    Geometry (in Angstrom), charge = 1, multiplicity = 2:

       Center              X                  Y                   Z               Mass       
    ------------   -----------------  -----------------  -----------------  -----------------
           O          0.000000000000     0.000000000000    -0.064727983898    15.994914619560
           H         -0.000000000000     0.815210503500     0.513640038202     1.007825032070
           H          0.000000000000    -0.815210503500     0.513640038202     1.007825032070

  Running in c2v symmetry.

  Rotational constants: A =     28.15258  B =     12.58467  C =      8.69698 [cm^-1]
  Rotational constants: A = 843993.14035  B = 377278.90767  C = 260728.81189 [MHz]
  Nuclear repulsion =    8.795307140834741

  Charge       = 1
  Multiplicity = 2
  Electrons    = 9
  Nalpha       = 5
  Nbeta        = 4

  ==> Algorithm <==

  SCF Algorithm Type is OUT_OF_CORE.
  DIIS enabled.
  MOM disabled.
  Fractional occupation disabled.
  Guess Type is GWH.
  Energy threshold   = 1.00e-08
  Density threshold  = 1.00e-08
  Integral threshold = 0.00e+00

  ==> Primary Basis <==

  Basis Set: AUG-CC-PV(D+D)Z
    Blend: AUG-CC-PV(D+D)Z
    Number of shells: 19
    Number of basis function: 41
    Number of Cartesian functions: 43
    Spherical Harmonics?: true
    Max angular momentum: 2

  ==> Pre-Iterations <==

   -------------------------------------------------------
    Irrep   Nso     Nmo     Nalpha   Nbeta   Ndocc  Nsocc
   -------------------------------------------------------
     A1        18      18       0       0       0       0
     A2         4       4       0       0       0       0
     B1         7       7       0       0       0       0
     B2        12      12       0       0       0       0
   -------------------------------------------------------
    Total      41      41       5       4       4       1
   -------------------------------------------------------

  ==> Integral Setup <==

  ==> DiskJK: Disk-Based J/K Matrices <==

    J tasked:                  Yes
    K tasked:                  Yes
    wK tasked:                  No
    Memory (MB):            178813
    Schwarz Cutoff:          1E-12

  Minimum eigenvalue in the overlap matrix is 3.1975525615E-03.
  Using Symmetric Orthogonalization.

  SCF Guess: Generalized Wolfsberg-Helmholtz.

  ==> Iterations <==

                        Total Energy        Delta E     RMS |[F,P]|

   @UHF iter   1:   -74.57827526612070   -7.45783e+01   9.25224e-02 
   @UHF iter   2:   -75.60469118232717   -1.02642e+00   1.26829e-02 DIIS
   @UHF iter   3:   -75.63597137225570   -3.12802e-02   2.89748e-03 DIIS
   @UHF iter   4:   -75.63789944542800   -1.92807e-03   9.89134e-04 DIIS
   @UHF iter   5:   -75.63812520355270   -2.25758e-04   3.49027e-04 DIIS
   @UHF iter   6:   -75.63816435143701   -3.91479e-05   1.12722e-04 DIIS
   @UHF iter   7:   -75.63816940715301   -5.05572e-06   5.64715e-05 DIIS
   @UHF iter   8:   -75.63817103993358   -1.63278e-06   1.02040e-05 DIIS
   @UHF iter   9:   -75.63817108369773   -4.37641e-08   1.18328e-06 DIIS
   @UHF iter  10:   -75.63817108407787   -3.80140e-10   1.63976e-07 DIIS
   @UHF iter  11:   -75.63817108408517   -7.30438e-12   3.67083e-08 DIIS
   @UHF iter  12:   -75.63817108408560   -4.26326e-13   9.38458e-09 DIIS

  ==> Post-Iterations <==

   @Spin Contamination Metric:   7.487007187E-03
   @S^2 Expected:                7.500000000E-01
   @S^2 Observed:                7.574870072E-01
   @S   Expected:                5.000000000E-01
   @S   Observed:                5.000000000E-01

    Orbital Energies (a.u.)
    -----------------------

    Alpha Occupied:                                                       

       1A1   -21.133569     2A1    -1.885373     1B2    -1.196203  
       1B1    -1.119145     3A1    -1.074235  

    Alpha Virtual:                                                        

       4A1    -0.185125     2B2    -0.117813     2B1    -0.049108  
       5A1    -0.045474     6A1    -0.024037     3B2    -0.007090  
       4B2     0.033384     7A1     0.054880     1A2     0.104947  
       8A1     0.130680     3B1     0.151981     5B2     0.278842  
       9A1     0.334168     6B2     0.357350     7B2     0.476336  
      10A1     0.542060     4B1     0.707152    11A1     0.736379  
       2A2     0.751851    12A1     0.933414     5B1     0.988358  
       8B2     1.079501    13A1     1.153679     9B2     1.584600  
       3A2     1.612569     6B1     1.668047    10B2     1.965457  
      14A1     2.006732    15A1     2.085898    11B2     2.303545  
      16A1     2.483629     7B1     3.134828     4A2     3.162948  
      17A1     3.179941    18A1     3.505533    12B2     3.742346  

    Beta Occupied:                                                        

       1A1   -21.088327     2A1    -1.724505     1B2    -1.158421  
       3A1    -1.022730  

    Beta Virtual:                                                         

       1B1    -0.319078     4A1    -0.177059     2B2    -0.114377  
       5A1    -0.042167     6A1    -0.017863     2B1    -0.008598  
       3B2    -0.003535     4B2     0.033331     7A1     0.057721  
       1A2     0.110617     8A1     0.135571     3B1     0.173105  
       5B2     0.279023     9A1     0.347351     6B2     0.364965  
       7B2     0.473863    10A1     0.568064     4B1     0.751722  
      11A1     0.752800     2A2     0.790642    12A1     0.943598  
       8B2     1.089297     5B1     1.148209    13A1     1.174731  
       9B2     1.580635     3A2     1.616628     6B1     1.674537  
      10B2     1.981668    14A1     2.005550    15A1     2.124457  
      11B2     2.308471    16A1     2.511496     7B1     3.235584  
      17A1     3.235798     4A2     3.263488    18A1     3.573982  
      12B2     3.759773  

    Final Occupation by Irrep:
             A1    A2    B1    B2 
    DOCC [     3,    0,    0,    1 ]
    SOCC [     0,    0,    1,    0 ]

  Energy converged.

  @UHF Final Energy:   -75.63817108408560

   => Energetics <=

    Nuclear Repulsion Energy =              8.7953071408347405
    One-Electron Energy =                -117.4644476735024341
    Two-Electron Energy =                  33.0309694485820984
    Total Energy =                        -75.6381710840855987


  UHF NO Occupations:
  HONO-2 :    1 B2 1.9990295
  HONO-1 :    3 A1 1.9977102
  HONO-0 :    1 B1 1.0000000
  LUNO+0 :    4 A1 0.0022898
  LUNO+1 :    2 B2 0.0009705
  LUNO+2 :    5 A1 0.0004860
  LUNO+3 :    6 A1 0.0000005



Properties will be evaluated at   0.000000,   0.000000,   0.000000 Bohr

Properties computed using the SCF density matrix

  Nuclear Dipole Moment: (a.u.)
     X:     0.0000      Y:     0.0000      Z:     0.9627

  Electronic Dipole Moment: (a.u.)
     X:     0.0000      Y:     0.0000      Z:     0.0086

  Dipole Moment: (a.u.)
     X:     0.0000      Y:     0.0000      Z:     0.9713     Total:     0.9713

  Dipole Moment: (Debye)
     X:     0.0000      Y:     0.0000      Z:     2.4688     Total:     2.4688


*** tstop() called on cqc05 at Thu Aug 20 19:54:09 2020
Module time:
	user time   =       0.46 seconds =       0.01 minutes
	system time =       0.00 seconds =       0.00 minutes
	total time  =          0 seconds =       0.00 minutes
Total time:
	user time   =       0.46 seconds =       0.01 minutes
	system time =       0.00 seconds =       0.00 minutes
	total time  =          0 seconds =       0.00 minutes

*** tstart() called on cqc05
*** at Thu Aug 20 19:54:09 2020


	Wfn Parameters:
	--------------------
	Wavefunction         = CCSD
	Number of irreps     = 4
	Number of MOs        = 41
	Number of active MOs = 40
	AO-Basis             = NONE
	Semicanonical        = false
	Reference            = UHF
	Print Level          = 1

	IRREP	# MOs	# FZDC	# DOCC	# SOCC	# VIRT	# FZVR
	-----	-----	------	------	------	------	------
	 A1	   18	    1	    2	    0	    15	    0
	 A2	   4	    0	    0	    0	    4	    0
	 B1	   7	    0	    0	    1	    6	    0
	 B2	   12	    0	    1	    0	    11	    0
	Transforming integrals...
	IWL integrals will be deleted.
	(OO|OO)...
	Presorting SO-basis two-electron integrals.
	Sorting File: SO Ints (nn|nn) nbuckets = 1
	Transforming the one-electron integrals and constructing Fock matrices
	Starting AA/AB first half-transformation.
	Sorting AA/AB half-transformed integrals.
	Starting BB first half-transformation.
	Sorting BB half-transformed integrals.
	First half integral transformation complete.
	Starting AA second half-transformation.
	Starting AB second half-transformation.
	Starting BB second half-transformation.
	Two-electron integral transformation complete.
	(OO|OV)...
	Starting AA second half-transformation.
	Starting AB second half-transformation.
	Starting BB second half-transformation.
	Two-electron integral transformation complete.
	(OO|VV)...
	Starting AA second half-transformation.
	Starting AB second half-transformation.
	Starting BB second half-transformation.
	Two-electron integral transformation complete.
	(OV|OO)...
	Starting AA/AB first half-transformation.
	Sorting AA/AB half-transformed integrals.
	Starting BB first half-transformation.
	Sorting BB half-transformed integrals.
	First half integral transformation complete.
	Starting AA second half-transformation.
	Starting AB second half-transformation.
	Starting BB second half-transformation.
	Two-electron integral transformation complete.
	(OV|OV)...
	Starting AA second half-transformation.
	Starting AB second half-transformation.
	Starting BB second half-transformation.
	Two-electron integral transformation complete.
	(OV|VV)...
	Starting AA second half-transformation.
	Starting AB second half-transformation.
	Starting BB second half-transformation.
	Two-electron integral transformation complete.
	(VV|OO)...
	Starting AA/AB first half-transformation.
	Sorting AA/AB half-transformed integrals.
	Starting BB first half-transformation.
	Sorting BB half-transformed integrals.
	First half integral transformation complete.
	Starting AA second half-transformation.
	Starting AB second half-transformation.
	Starting BB second half-transformation.
	Two-electron integral transformation complete.
	(VV|OV)...
	Starting AA second half-transformation.
	Starting AB second half-transformation.
	Starting BB second half-transformation.
	Two-electron integral transformation complete.
	(VV|VV)...
	Starting AA second half-transformation.
	Starting AB second half-transformation.
	Starting BB second half-transformation.
	Two-electron integral transformation complete.
	Frozen core energy     =    -61.22280853417097

	Size of irrep 0 of <AB|CD> integrals:      0.033 (MW) /      0.262 (MB)
	Size of irrep 1 of <AB|CD> integrals:      0.016 (MW) /      0.127 (MB)
	Size of irrep 2 of <AB|CD> integrals:      0.018 (MW) /      0.144 (MB)
	Size of irrep 3 of <AB|CD> integrals:      0.036 (MW) /      0.286 (MB)
	Total:                                     0.102 (MW) /      0.819 (MB)

	Size of irrep 0 of <ab|cd> integrals:      0.035 (MW) /      0.280 (MB)
	Size of irrep 1 of <ab|cd> integrals:      0.019 (MW) /      0.150 (MB)
	Size of irrep 2 of <ab|cd> integrals:      0.022 (MW) /      0.178 (MB)
	Size of irrep 3 of <ab|cd> integrals:      0.037 (MW) /      0.298 (MB)
	Total:                                     0.113 (MW) /      0.906 (MB)

	Size of irrep 0 of <Ab|Cd> integrals:      0.163 (MW) /      1.306 (MB)
	Size of irrep 1 of <Ab|Cd> integrals:      0.069 (MW) /      0.553 (MB)
	Size of irrep 2 of <Ab|Cd> integrals:      0.080 (MW) /      0.641 (MB)
	Size of irrep 3 of <Ab|Cd> integrals:      0.146 (MW) /      1.167 (MB)
	Total:                                     0.458 (MW) /      3.667 (MB)

	Size of irrep 0 of <IA|BC> integrals:      0.019 (MW) /      0.150 (MB)
	Size of irrep 1 of <IA|BC> integrals:      0.006 (MW) /      0.050 (MB)
	Size of irrep 2 of <IA|BC> integrals:      0.008 (MW) /      0.066 (MB)
	Size of irrep 3 of <IA|BC> integrals:      0.015 (MW) /      0.124 (MB)
	Total:                                     0.049 (MW) /      0.390 (MB)

	Size of irrep 0 of <ia|bc> integrals:      0.017 (MW) /      0.135 (MB)
	Size of irrep 1 of <ia|bc> integrals:      0.004 (MW) /      0.033 (MB)
	Size of irrep 2 of <ia|bc> integrals:      0.005 (MW) /      0.043 (MB)
	Size of irrep 3 of <ia|bc> integrals:      0.014 (MW) /      0.114 (MB)
	Total:                                     0.041 (MW) /      0.325 (MB)

	Size of irrep 0 of <Ia|Bc> integrals:      0.019 (MW) /      0.155 (MB)
	Size of irrep 1 of <Ia|Bc> integrals:      0.007 (MW) /      0.055 (MB)
	Size of irrep 2 of <Ia|Bc> integrals:      0.009 (MW) /      0.075 (MB)
	Size of irrep 3 of <Ia|Bc> integrals:      0.016 (MW) /      0.125 (MB)
	Total:                                     0.051 (MW) /      0.410 (MB)

	Size of irrep 0 of <iA|bC> integrals:      0.017 (MW) /      0.133 (MB)
	Size of irrep 1 of <iA|bC> integrals:      0.004 (MW) /      0.029 (MB)
	Size of irrep 2 of <iA|bC> integrals:      0.005 (MW) /      0.036 (MB)
	Size of irrep 3 of <iA|bC> integrals:      0.014 (MW) /      0.113 (MB)
	Total:                                     0.039 (MW) /      0.311 (MB)

	Size of irrep 0 of tIjAb amplitudes:       0.002 (MW) /      0.016 (MB)
	Size of irrep 1 of tIjAb amplitudes:       0.000 (MW) /      0.002 (MB)
	Size of irrep 2 of tIjAb amplitudes:       0.001 (MW) /      0.005 (MB)
	Size of irrep 3 of tIjAb amplitudes:       0.002 (MW) /      0.012 (MB)
	Total:                                     0.004 (MW) /      0.035 (MB)

	Nuclear Rep. energy          =      8.79530714083474
	SCF energy                   =    -75.63817108408560
	One-electron energy          =    -37.24072636790833
	Two-electron (AA) energy     =      3.74395631795214
	Two-electron (BB) energy     =      1.71402383309131
	Two-electron (AB) energy     =      8.57207652611544
	Two-electron energy          =     14.03005667715889
	Reference energy             =    -75.63817108408566

*** tstop() called on cqc05 at Thu Aug 20 19:54:10 2020
Module time:
	user time   =       0.09 seconds =       0.00 minutes
	system time =       0.07 seconds =       0.00 minutes
	total time  =          1 seconds =       0.02 minutes
Total time:
	user time   =       0.56 seconds =       0.01 minutes
	system time =       0.07 seconds =       0.00 minutes
	total time  =          1 seconds =       0.02 minutes

*** tstart() called on cqc05
*** at Thu Aug 20 19:54:10 2020

            **************************
            *                        *
            *        CCENERGY        *
            *                        *
            **************************

    Nuclear Rep. energy (wfn)     =    8.795307140834741
    SCF energy          (wfn)     =  -75.638171084085599
    Reference energy    (file100) =  -75.638171084085656

    Input parameters:
    -----------------
    Wave function   =     CCSD
    Reference wfn   =     UHF
    Brueckner       =     No
    Memory (Mbytes) =     250000.0
    Maxiter         =     50
    R_Convergence   =     1.0e-07
    E_Convergence   =     1.0e-06
    Restart         =     Yes
    DIIS            =     Yes
    AO Basis        =     NONE
    ABCD            =     NEW
    Cache Level     =     2
    Cache Type      =     LRU
    Print Level     =     1
    Num. of threads =     4
    # Amps to Print =     10
    Print MP2 Amps? =     No
    Analyze T2 Amps =     No
    Print Pair Ener =     No
    Local CC        =     No
    SCS-MP2         =     False
    SCSN-MP2        =     False
    SCS-CCSD        =     False

MP2 correlation energy -0.1592458228317272
                Solving CC Amplitude Equations
                ------------------------------
  Iter             Energy              RMS        T1Diag      D1Diag    New D1Diag    D2Diag
  ----     ---------------------    ---------   ----------  ----------  ----------   --------
     0        -0.159245822831728    0.000e+00    0.000000    0.000000    0.000000    0.000000
     1        -0.171322073498966    3.612e-02    0.008940    0.000000    0.000000    0.000000
     2        -0.175588115776799    1.255e-02    0.011122    0.000000    0.000000    0.000000
     3        -0.176366345505077    4.989e-03    0.012494    0.000000    0.000000    0.000000
     4        -0.176378848284728    2.006e-03    0.012714    0.000000    0.000000    0.000000
     5        -0.176403176293224    7.232e-04    0.012711    0.000000    0.000000    0.000000
     6        -0.176414016115934    2.200e-04    0.012697    0.000000    0.000000    0.000000
     7        -0.176413865870203    8.156e-05    0.012689    0.000000    0.000000    0.000000
     8        -0.176413696908151    2.706e-05    0.012689    0.000000    0.000000    0.000000
     9        -0.176413750318698    8.891e-06    0.012689    0.000000    0.000000    0.000000
    10        -0.176413749516837    3.020e-06    0.012689    0.000000    0.000000    0.000000
    11        -0.176413745249740    9.388e-07    0.012690    0.000000    0.000000    0.000000
    12        -0.176413748536812    2.296e-07    0.012690    0.000000    0.000000    0.000000
    13        -0.176413746021364    7.436e-08    0.012690    0.000000    0.000000    0.000000
    13        -0.176413746021364    7.436e-08    0.012690    0.000000    0.000000    0.000000

    Iterations converged.


    CCSD corr. energy   =   -0.176413746021364
    PPL corr. energy    =    0.034248414777493
    OS PPL corr. energy =    0.029089223862148
    SS PPL corr. energy =    0.005159190915345
    Largest TIA Amplitudes:
              2  19        -0.0117036194
              1   1         0.0097913360
              1   0         0.0088705206
              3  26        -0.0086304356
              2  20        -0.0080159444
              1   4        -0.0076921729
              3  25        -0.0072370499
              0   0        -0.0053346309
              0   2        -0.0053182496
              3  33         0.0051960065

    Largest Tia Amplitudes:
              1   4        -0.0081332523
              1   1         0.0080864221
              1   0         0.0068248326
              2  34         0.0067768526
              0  11         0.0049486827
              0   6         0.0040495872
              0   4        -0.0034521866
              0   7        -0.0025586722
              1   7        -0.0025493199
              0   1         0.0024967923

    Largest TIJAB Amplitudes:
      2   1  22   9        -0.0148032159
      3   2  16   6        -0.0129570582
      3   2  26  22        -0.0129437437
      2   1  21   7         0.0128280581
      3   2  29  22        -0.0127965294
      2   1  22   8         0.0120732594
      2   1  24  13        -0.0109223703
      3   2  31  22        -0.0108586414
      3   2  25  22        -0.0107384608
      3   1  26   8         0.0105577248

    Largest Tijab Amplitudes:
      1   0  22  19         0.0115433464
      2   1  27   8         0.0105199178
      2   0  19  16        -0.0105054129
      2   1  27   4        -0.0096421439
      2   1  31   7        -0.0095373025
      2   1  30   8         0.0092551121
      2   1  30   9        -0.0080778293
      1   0  25  19         0.0079770249
      2   1  27   9        -0.0077740055
      2   1  32   9        -0.0077666392

    Largest TIjAb Amplitudes:
      3   2  26  27        -0.0286827565
      2   0   6  19        -0.0265859251
      1   1   9   9        -0.0248682935
      3   2  26  30        -0.0228645125
      3   2  29  27        -0.0226532284
      3   0  16  19        -0.0214503198
      3   2  25  27        -0.0210783450
      3   2  29  30        -0.0201951325
      2   1  22   9        -0.0201829957
      1   0  21  19         0.0199047892

    SCF energy       (wfn)                    =  -75.638171084085599
    Reference energy (file100)                =  -75.638171084085656

    Opposite-spin MP2 correlation energy      =   -0.122183220893416
    Same-spin MP2 correlation energy          =   -0.037062601938303
    MP2 correlation energy                    =   -0.159245822831727
      * MP2 total energy                      =  -75.797416906917377

    Opposite-spin CCSD correlation energy     =   -0.140986609489997
    Same-spin CCSD correlation energy         =   -0.035427136324891
    CCSD correlation energy                   =   -0.176413746021364
      * CCSD total energy                     =  -75.814584830107023


*** tstop() called on cqc05 at Thu Aug 20 19:54:11 2020
Module time:
	user time   =       0.36 seconds =       0.01 minutes
	system time =       0.28 seconds =       0.00 minutes
	total time  =          1 seconds =       0.02 minutes
Total time:
	user time   =       0.92 seconds =       0.02 minutes
	system time =       0.35 seconds =       0.01 minutes
	total time  =          2 seconds =       0.03 minutes

*** Psi4 exiting successfully. Buy a developer a beer!
