
    -----------------------------------------------------------------------
          Psi4: An Open-Source Ab Initio Electronic Structure Package
                               Psi4 1.2a1.dev939 

                         Git: Rev {HEAD} fa1ec19 dirty


    R. M. Parrish, L. A. Burns, D. G. A. Smith, A. C. Simmonett,
    A. E. DePrince III, E. G. Hohenstein, U. Bozkaya, A. Yu. Sokolov,
    R. Di Remigio, R. M. Richard, J. F. Gonthier, A. M. James,
    H. R. McAlexander, A. Kumar, M. Saitow, X. Wang, B. P. Pritchard,
    P. Verma, H. F. Schaefer III, K. Patkowski, R. A. King, E. F. Valeev,
    F. A. Evangelista, J. M. Turney, T. D. Crawford, and C. D. Sherrill,
    J. Chem. Theory Comput. 13(7) pp 3185--3197 (2017).
    (doi: 10.1021/acs.jctc.7b00174)

    -----------------------------------------------------------------------


    Psi4 started on: Friday, 30 October 2020 07:16PM

    Process ID: 300666
    PSIDATADIR: /home/fs71337/airmler/src/psi4_uhf/build/stage/usr/local/psi4/share/psi4
    Memory:     500.0 MiB
    Threads:    48
    
  ==> Input File <==

--------------------------------------------------------------------------
# Any line starting with the # character is a comment line
memory 250000 mb
molecule molecule{
1 2
O          0.0000000000        0.0000000000       -0.0647184239
H          0.0000000000        0.8152105035        0.5136495982
H          0.0000000000       -0.8152105035        0.5136495982
}

set {
  reference uhf
  basis aug-cc-pv(6+d)z
  scf_type OUT_OF_CORE
  freeze_core true
}

energy('ccsd')
--------------------------------------------------------------------------

  Memory set to 232.831 GiB by Python driver.

*** tstart() called on n412-050.vsc4.prov
*** at Fri Oct 30 19:16:04 2020

   => Loading Basis Set <=

    Name: AUG-CC-PV(6+D)Z
    Role: ORBITAL
    Keyword: BASIS
    atoms 1   entry O          line   459 file /home/fs71337/airmler/src/psi4_uhf/build/stage/usr/local/psi4/share/psi4/basis/aug-cc-pv_6pd_z.gbs 
    atoms 2-3 entry H          line    51 file /home/fs71337/airmler/src/psi4_uhf/build/stage/usr/local/psi4/share/psi4/basis/aug-cc-pv_6pd_z.gbs 


         ---------------------------------------------------------
                                   SCF
            by Justin Turney, Rob Parrish, Andy Simmonett
                             and Daniel Smith
                              UHF Reference
                       48 Threads, 238418 MiB Core
         ---------------------------------------------------------

  ==> Geometry <==

    Molecular point group: c2v
    Full point group: C2v

    Geometry (in Angstrom), charge = 1, multiplicity = 2:

       Center              X                  Y                   Z               Mass       
    ------------   -----------------  -----------------  -----------------  -----------------
           O          0.000000000000     0.000000000000    -0.064727983898    15.994914619560
           H         -0.000000000000     0.815210503500     0.513640038202     1.007825032070
           H          0.000000000000    -0.815210503500     0.513640038202     1.007825032070

  Running in c2v symmetry.

  Rotational constants: A =     28.15258  B =     12.58467  C =      8.69698 [cm^-1]
  Rotational constants: A = 843993.14035  B = 377278.90767  C = 260728.81189 [MHz]
  Nuclear repulsion =    8.795307140834741

  Charge       = 1
  Multiplicity = 2
  Electrons    = 9
  Nalpha       = 5
  Nbeta        = 4

  ==> Algorithm <==

  SCF Algorithm Type is OUT_OF_CORE.
  DIIS enabled.
  MOM disabled.
  Fractional occupation disabled.
  Guess Type is GWH.
  Energy threshold   = 1.00e-08
  Density threshold  = 1.00e-08
  Integral threshold = 0.00e+00

  ==> Primary Basis <==

  Basis Set: AUG-CC-PV(6+D)Z
    Blend: AUG-CC-PV(6+D)Z
    Number of shells: 89
    Number of basis function: 443
    Number of Cartesian functions: 658
    Spherical Harmonics?: true
    Max angular momentum: 6

  ==> Pre-Iterations <==

   -------------------------------------------------------
    Irrep   Nso     Nmo     Nalpha   Nbeta   Ndocc  Nsocc
   -------------------------------------------------------
     A1       143     143       0       0       0       0
     A2        81      81       0       0       0       0
     B1        96      96       0       0       0       0
     B2       123     123       0       0       0       0
   -------------------------------------------------------
    Total     443     443       5       4       4       1
   -------------------------------------------------------

  ==> Integral Setup <==

  ==> DiskJK: Disk-Based J/K Matrices <==

    J tasked:                  Yes
    K tasked:                  Yes
    wK tasked:                  No
    Memory (MB):            178813
    Schwarz Cutoff:          1E-12

  Minimum eigenvalue in the overlap matrix is 2.4827746708E-06.
  Using Symmetric Orthogonalization.

  SCF Guess: Generalized Wolfsberg-Helmholtz.

  ==> Iterations <==

                        Total Energy        Delta E     RMS |[F,P]|

    Occupation by irrep:
             A1    A2    B1    B2 
    DOCC [     2,    0,    1,    1 ]
    SOCC [     1,    0,    0,    0 ]

   @UHF iter   1:   108.18433586415975    1.08184e+02   4.44961e-01 
    Occupation by irrep:
             A1    A2    B1    B2 
    DOCC [     3,    0,    0,    1 ]
    SOCC [     0,    0,    1,    0 ]

   @UHF iter   2:   -64.27039450959728   -1.72455e+02   1.38511e-01 DIIS
   @UHF iter   3:   -72.52133892824642   -8.25094e+00   4.13236e-02 DIIS
   @UHF iter   4:   -75.19035275680372   -2.66901e+00   2.05276e-02 DIIS
   @UHF iter   5:   -75.64496157207739   -4.54609e-01   3.99936e-03 DIIS
   @UHF iter   6:   -75.66504625170548   -2.00847e-02   4.07804e-04 DIIS
   @UHF iter   7:   -75.66537655636674   -3.30305e-04   1.20102e-04 DIIS
   @UHF iter   8:   -75.66541493946008   -3.83831e-05   3.28287e-05 DIIS
   @UHF iter   9:   -75.66541850688984   -3.56743e-06   1.12303e-05 DIIS
   @UHF iter  10:   -75.66541921214422   -7.05254e-07   5.21081e-06 DIIS
   @UHF iter  11:   -75.66541934103934   -1.28895e-07   1.25260e-06 DIIS
   @UHF iter  12:   -75.66541934903269   -7.99335e-09   3.26696e-07 DIIS
   @UHF iter  13:   -75.66541934945867   -4.25985e-10   4.84926e-08 DIIS
   @UHF iter  14:   -75.66541934946669   -8.01492e-12   9.84426e-09 DIIS

  ==> Post-Iterations <==

   @Spin Contamination Metric:   7.965034306E-03
   @S^2 Expected:                7.500000000E-01
   @S^2 Observed:                7.579650343E-01
   @S   Expected:                5.000000000E-01
   @S   Observed:                5.000000000E-01

    Orbital Energies (a.u.)
    -----------------------

    Alpha Occupied:                                                       

       1A1   -21.121665     2A1    -1.881445     1B2    -1.194474  
       1B1    -1.121192     3A1    -1.073563  

    Alpha Virtual:                                                        

       4A1    -0.185034     2B2    -0.118657     2B1    -0.092757  
       5A1    -0.087701     6A1    -0.065314     3B2    -0.047537  
       4B2    -0.032434     7A1    -0.026500     1A2    -0.019110  
       3B1    -0.005335     8A1    -0.000159     9A1     0.050119  
       5B2     0.061677     6B2     0.077893    10A1     0.086798  
       7B2     0.101637     4B1     0.123133    11A1     0.157678  
      12A1     0.166111     5B1     0.175414     2A2     0.177848  
       8B2     0.205214     6B1     0.211720    13A1     0.213878  
       3A2     0.215398    14A1     0.238718     7B1     0.248804  
       9B2     0.290987    10B2     0.311406    15A1     0.327529  
      16A1     0.336806     4A2     0.339604    11B2     0.346783  
      12B2     0.359935    17A1     0.439153    13B2     0.509501  
      18A1     0.543232     5A2     0.554321     8B1     0.584835  
      19A1     0.603806     9B1     0.627686    20A1     0.629030  
       6A2     0.660965    21A1     0.687539    10B1     0.690370  
      14B2     0.724354    15B2     0.737837    11B1     0.760952  
      22A1     0.769218    12B1     0.777443    16B2     0.793456  
       7A2     0.796947    23A1     0.822566    17B2     0.838689  
      13B1     0.847987    24A1     0.891267    25A1     0.892186  
      18B2     0.913090     8A2     0.922208    19B2     0.925012  
      26A1     0.927393     9A2     0.949105    14B1     0.989207  
      20B2     1.005721    21B2     1.063121    27A1     1.072946  
      28A1     1.145897    15B1     1.161142    10A2     1.163083  
      22B2     1.258377    29A1     1.286810    30A1     1.445146  
      23B2     1.491972    11A2     1.495533    16B1     1.550790  
      24B2     1.588855    31A1     1.603910    25B2     1.607029  
      17B1     1.659912    32A1     1.695064    26B2     1.714790  
      33A1     1.781629    12A2     1.784467    18B1     1.810302  
      19B1     1.866401    34A1     1.874103    13A2     1.882944  
      27B2     1.904016    14A2     1.956607    35A1     1.973270  
      28B2     2.010976    36A1     2.011836    20B1     2.033538  
      21B1     2.049067    37A1     2.058816    22B1     2.076633  
      29B2     2.079069    38A1     2.096082    15A2     2.123572  
      39A1     2.158772    30B2     2.165082    16A2     2.184308  
      17A2     2.202479    31B2     2.223382    40A1     2.243692  
      23B1     2.264986    18A2     2.303304    41A1     2.319385  
      32B2     2.322991    24B1     2.325172    42A1     2.367234  
      25B1     2.376618    43A1     2.381415    33B2     2.433861  
      26B1     2.491104    34B2     2.496292    44A1     2.499413  
      19A2     2.513999    35B2     2.516853    45A1     2.630267  
      20A2     2.637310    36B2     2.639299    27B1     2.732845  
      37B2     2.740758    46A1     2.805026    47A1     3.117211  
      38B2     3.137473    21A2     3.239813    48A1     3.286677  
      39B2     3.364520    28B1     3.390851    29B1     3.526441  
      22A2     3.615352    40B2     3.633179    49A1     3.654997  
      50A1     3.745303    30B1     3.806823    41B2     3.824538  
      42B2     3.897781    51A1     3.987184    52A1     4.020063  
      31B1     4.041712    43B2     4.103149    23A2     4.108756  
      53A1     4.144334    24A2     4.221258    54A1     4.221334  
      32B1     4.239051    44B2     4.265871    45B2     4.318872  
      25A2     4.341436    33B1     4.363754    34B1     4.400600  
      46B2     4.401139    26A2     4.437155    55A1     4.494686  
      27A2     4.506446    56A1     4.535086    57A1     4.563710  
      35B1     4.583159    36B1     4.640689    58A1     4.657765  
      47B2     4.661355    59A1     4.668504    48B2     4.689292  
      28A2     4.700961    37B1     4.719701    60A1     4.750559  
      29A2     4.769105    30A2     4.811843    61A1     4.814260  
      49B2     4.825926    38B1     4.875760    62A1     4.878277  
      50B2     4.920601    31A2     4.921276    39B1     4.944792  
      51B2     4.975804    52B2     5.023804    53B2     5.066169  
      32A2     5.086362    40B1     5.120129    63A1     5.144620  
      54B2     5.164942    33A2     5.240255    64A1     5.243346  
      41B1     5.291643    42B1     5.428365    65A1     5.450254  
      34A2     5.465724    55B2     5.468461    66A1     5.469705  
      43B1     5.583517    67A1     5.630226    56B2     5.635409  
      57B2     5.752359    68A1     5.812987    69A1     5.850996  
      44B1     5.958108    58B2     5.960875    59B2     6.088494  
      35A2     6.218304    70A1     6.275506    71A1     6.443754  
      45B1     6.705695    72A1     6.774025    36A2     6.780367  
      46B1     6.854343    60B2     6.870154    37A2     7.018519  
      61B2     7.052231    73A1     7.202954    47B1     7.347471  
      74A1     7.410759    62B2     7.514555    48B1     7.594611  
      75A1     7.642466    38A2     7.645237    63B2     7.706178  
      39A2     7.935142    49B1     8.025768    64B2     8.035111  
      76A1     8.161576    40A2     8.415220    77A1     8.607795  
      65B2     8.681996    66B2     8.824938    50B1     8.861532  
      78A1     8.920910    67B2     8.984062    41A2     8.999361  
      79A1     9.017208    68B2     9.091928    51B1     9.096716  
      42A2     9.129214    80A1     9.198302    52B1     9.243309  
      81A1     9.271751    53B1     9.372418    69B2     9.481967  
      82A1     9.612517    70B2     9.616456    43A2     9.628384  
      71B2     9.671704    83A1     9.698508    54B1     9.727268  
      84A1     9.884364    44A2     9.921292    72B2     9.930694  
      55B1     9.952730    85A1    10.091666    45A2    10.225483  
      73B2    10.261793    86A1    10.311968    56B1    10.313343  
      46A2    10.455809    74B2    10.480816    87A1    10.482633  
      57B1    10.504857    58B1    10.598851    88A1    10.654067  
      75B2    10.693824    47A2    10.716139    89A1    10.738227  
      76B2    10.774050    48A2    10.825328    59B1    10.827996  
      90A1    10.882491    49A2    10.902442    77B2    10.971338  
      91A1    11.044211    60B1    11.078263    78B2    11.318008  
      79B2    11.332383    92A1    11.371671    61B1    11.606697  
      93A1    11.653575    50A2    11.994542    80B2    12.027048  
      62B1    12.184025    94A1    12.309626    63B1    12.445006  
      51A2    12.577399    81B2    12.689466    95A1    12.740577  
      64B1    13.062803    96A1    13.077903    52A2    13.306300  
      82B2    13.316009    97A1    13.453293    65B1    13.617925  
      98A1    13.762643    53A2    13.774325    83B2    13.789650  
      54A2    13.916614    66B1    13.952212    84B2    13.993593  
      99A1    14.148226    55A2    14.327722   100A1    14.428781  
      85B2    14.434078   101A1    14.888545    86B2    14.976443  
      67B1    15.036882    68B1    15.298175    87B2    15.373964  
     102A1    15.502568    56A2    15.666693   103A1    15.892102  
      88B2    16.302031    69B1    16.948689   104A1    17.099691  
      89B2    17.189467    70B1    17.195367    57A2    17.203466  
      90B2    17.403839    58A2    17.470449   105A1    17.474746  
      91B2    17.770419    59A2    17.785527    71B1    17.998169  
     106A1    18.224070   107A1    18.546147    92B2    18.609986  
      72B1    19.218668    93B2    19.297198   108A1    19.443611  
      60A2    19.464105   109A1    19.888099    73B1    20.018910  
      94B2    20.025433   110A1    20.057050    74B1    20.078140  
      61A2    20.105877   111A1    20.108106    95B2    20.212096  
      62A2    20.399160    63A2    20.725881    75B1    20.774776  
     112A1    20.786035    96B2    20.792679    64A2    20.815343  
      76B1    20.829324    97B2    20.937234    98B2    20.948080  
      65A2    21.005229   113A1    21.034874    77B1    21.219119  
     114A1    21.268221    99B2    21.391842   115A1    21.409567  
      78B1    21.476435    66A2    21.536375   100B2    21.641572  
     116A1    21.739082   101B2    22.005628   117A1    22.503159  
      67A2    22.714761    79B1    22.728376   118A1    22.732525  
     119A1    22.885496    80B1    22.996541   102B2    23.076692  
      81B1    23.209614   120A1    23.560445    68A2    23.616410  
      82B1    23.714531   103B2    23.802483   121A1    23.930716  
     104B2    23.946706   105B2    23.991064    69A2    24.008563  
      83B1    24.037586   122A1    24.041864    70A2    24.186763  
     123A1    24.298421    71A2    24.325891   106B2    24.336503  
     107B2    24.630000   124A1    24.806337    84B1    24.908073  
      72A2    25.791047   125A1    25.827138    85B1    25.892774  
     108B2    25.905923   126A1    26.226497    73A2    26.242022  
     109B2    26.354403    86B1    26.380685    87B1    26.589953  
     127A1    26.610110   110B2    26.646251   128A1    26.672618  
      74A2    26.694645   129A1    26.908098    88B1    26.908733  
     111B2    27.083649    89B1    27.326261    75A2    27.407883  
     112B2    27.412054   130A1    27.517232   113B2    27.560764  
     131A1    27.717899   114B2    27.755927    90B1    27.803150  
      76A2    28.087633   132A1    28.581660   133A1    28.972121  
     115B2    29.097723   116B2    29.444098    91B1    29.582793  
     134A1    31.650223    92B1    31.734117    93B1    31.960353  
     135A1    32.060392    77A2    32.243119   136A1    32.447945  
     117B2    32.570685    78A2    32.729060   118B2    32.994558  
      79A2    33.320975   137A1    33.467185    94B1    33.607010  
     119B2    34.209991   138A1    34.281602   120B2    34.991122  
      95B1    35.389605    80A2    35.402978   139A1    36.069633  
     140A1    37.673228   121B2    37.926138    96B1    37.987179  
      81A2    38.759681   122B2    39.331195   141A1    39.381497  
     142A1    41.303629   123B2    42.548509   143A1   107.303263  

    Beta Occupied:                                                        

       1A1   -21.077926     2A1    -1.720154     1B2    -1.157421  
       3A1    -1.023375  

    Beta Virtual:                                                         

       1B1    -0.315467     4A1    -0.176996     2B2    -0.115346  
       5A1    -0.086735     2B1    -0.075103     6A1    -0.061832  
       3B2    -0.046122     4B2    -0.032290     7A1    -0.026386  
       1A2    -0.018014     3B1     0.001617     8A1     0.001927  
       9A1     0.052524     5B2     0.062221     6B2     0.080963  
      10A1     0.093617     7B2     0.100579     4B1     0.146974  
      11A1     0.158775    12A1     0.167517     2A2     0.183581  
       5B1     0.190362     8B2     0.205525     3A2     0.215503  
      13A1     0.218217     6B1     0.224160    14A1     0.240385  
       7B1     0.249476     9B2     0.291524    10B2     0.312114  
      15A1     0.331740    16A1     0.337201     4A2     0.339859  
      11B2     0.347882    12B2     0.362191    17A1     0.445286  
      13B2     0.508432    18A1     0.545957     5A2     0.568018  
       8B1     0.608286    19A1     0.610410     9B1     0.629924  
      20A1     0.641939     6A2     0.662265    21A1     0.690576  
      10B1     0.692328    14B2     0.725636    15B2     0.738329  
      22A1     0.770685    11B1     0.775510    16B2     0.795235  
       7A2     0.799428    12B1     0.822600    23A1     0.827353  
      17B2     0.841510    13B1     0.856143    24A1     0.892539  
      25A1     0.900130    18B2     0.915080     8A2     0.922852  
      19B2     0.924715    26A1     0.927947     9A2     0.950287  
      14B1     0.989898    20B2     1.006017    21B2     1.063591  
      27A1     1.085104    28A1     1.147551    10A2     1.184502  
      15B1     1.193345    22B2     1.261421    29A1     1.292669  
      30A1     1.456870    23B2     1.496037    11A2     1.498032  
      16B1     1.555435    24B2     1.586772    25B2     1.608964  
      31A1     1.610824    17B1     1.664404    32A1     1.702045  
      26B2     1.719433    33A1     1.784984    12A2     1.794917  
      18B1     1.827891    19B1     1.873561    34A1     1.880565  
      13A2     1.886721    27B2     1.903697    14A2     1.962563  
      35A1     1.976909    28B2     2.012209    36A1     2.016627  
      20B1     2.036916    21B1     2.054780    37A1     2.060454  
      29B2     2.079472    22B1     2.080129    38A1     2.099408  
      15A2     2.124063    39A1     2.162699    30B2     2.167125  
      16A2     2.185860    17A2     2.203510    31B2     2.225909  
      40A1     2.246641    23B1     2.290019    18A2     2.317732  
      32B2     2.323802    41A1     2.333782    24B1     2.344433  
      42A1     2.373477    25B1     2.405187    43A1     2.412770  
      33B2     2.436021    34B2     2.497676    44A1     2.502972  
      35B2     2.518556    26B1     2.522229    19A2     2.530560  
      20A2     2.639125    45A1     2.643786    36B2     2.645149  
      37B2     2.745222    27B1     2.748551    46A1     2.818436  
      47A1     3.122846    38B2     3.148503    21A2     3.263143  
      48A1     3.294825    39B2     3.368475    28B1     3.429475  
      29B1     3.529490    22A2     3.619091    40B2     3.633886  
      49A1     3.657775    50A1     3.755377    30B1     3.808889  
      41B2     3.829129    42B2     3.899642    51A1     3.987738  
      52A1     4.021301    31B1     4.043341    43B2     4.102914  
      23A2     4.112029    53A1     4.160918    54A1     4.222660  
      24A2     4.226468    32B1     4.249110    44B2     4.267056  
      45B2     4.319327    25A2     4.343221    33B1     4.369541  
      46B2     4.403428    34B1     4.411959    26A2     4.439866  
      55A1     4.504515    27A2     4.516052    56A1     4.541089  
      57A1     4.566894    35B1     4.589750    36B1     4.645537  
      58A1     4.660213    47B2     4.664457    59A1     4.674875  
      48B2     4.692624    28A2     4.715439    37B1     4.736442  
      60A1     4.754346    29A2     4.776692    30A2     4.812318  
      61A1     4.821285    49B2     4.826536    62A1     4.883987  
      38B1     4.893738    50B2     4.923349    31A2     4.929877  
      39B1     4.955982    51B2     4.979818    52B2     5.028458  
      53B2     5.071221    32A2     5.091640    40B1     5.125154  
      63A1     5.150512    54B2     5.165828    33A2     5.243106  
      64A1     5.255687    41B1     5.309869    42B1     5.441224  
      65A1     5.455376    34A2     5.467209    55B2     5.468517  
      66A1     5.481974    43B1     5.609824    56B2     5.648288  
      67A1     5.669358    57B2     5.762252    68A1     5.814769  
      69A1     5.867044    58B2     5.967003    44B1     5.972125  
      59B2     6.092474    35A2     6.247992    70A1     6.301686  
      71A1     6.451408    45B1     6.717052    72A1     6.784729  
      36A2     6.798285    60B2     6.877508    46B1     6.878160  
      37A2     7.028041    61B2     7.061500    73A1     7.220409  
      47B1     7.386020    74A1     7.413520    62B2     7.517264  
      48B1     7.612673    75A1     7.649770    38A2     7.649937  
      63B2     7.712358    39A2     7.956250    64B2     8.039681  
      49B1     8.058449    76A1     8.167908    40A2     8.419006  
      77A1     8.619662    65B2     8.685861    66B2     8.830774  
      50B1     8.866442    78A1     8.929024    67B2     8.990206  
      41A2     9.004852    79A1     9.023482    68B2     9.094271  
      51B1     9.104113    42A2     9.134702    80A1     9.204785  
      52B1     9.252427    81A1     9.276812    53B1     9.384591  
      69B2     9.483663    82A1     9.614627    70B2     9.619911  
      43A2     9.630398    71B2     9.675321    83A1     9.700020  
      54B1     9.729482    84A1     9.887831    44A2     9.921730  
      72B2     9.932981    55B1     9.958807    85A1    10.096916  
      45A2    10.236548    73B2    10.266877    86A1    10.317181  
      56B1    10.324294    46A2    10.462123    74B2    10.485680  
      87A1    10.487525    57B1    10.517149    58B1    10.612833  
      88A1    10.662846    75B2    10.700064    47A2    10.723510  
      89A1    10.750915    76B2    10.782129    48A2    10.830851  
      59B1    10.836791    90A1    10.890294    49A2    10.910117  
      77B2    10.980836    91A1    11.055542    60B1    11.092214  
      78B2    11.325080    79B2    11.337454    92A1    11.384148  
      61B1    11.613880    93A1    11.666792    50A2    12.003002  
      80B2    12.029871    62B1    12.198940    94A1    12.317281  
      63B1    12.475172    51A2    12.594606    81B2    12.694534  
      95A1    12.758490    64B1    13.096992    96A1    13.105237  
      82B2    13.324801    52A2    13.335608    97A1    13.480096  
      65B1    13.629242    98A1    13.783919    53A2    13.790044  
      83B2    13.813206    54A2    13.932032    66B1    13.978024  
      84B2    14.001802    99A1    14.156269    55A2    14.335486  
      85B2    14.451224   100A1    14.459834   101A1    14.900298  
      86B2    14.982380    67B1    15.055243    68B1    15.335491  
      87B2    15.386617   102A1    15.518210    56A2    15.696032  
     103A1    15.899611    88B2    16.307374    69B1    16.968563  
     104A1    17.101288    89B2    17.189631    70B1    17.195561  
      57A2    17.203501    90B2    17.405528   105A1    17.479359  
      58A2    17.480873    91B2    17.772096    59A2    17.796678  
      71B1    17.999513   106A1    18.224781   107A1    18.554365  
      92B2    18.616277    72B1    19.221932    93B2    19.300546  
     108A1    19.446265    60A2    19.466742   109A1    19.893990  
      73B1    20.020453    94B2    20.025663   110A1    20.060355  
      74B1    20.079013    61A2    20.106627   111A1    20.110312  
      95B2    20.217066    62A2    20.404391    63A2    20.727984  
      75B1    20.780639   112A1    20.787066    96B2    20.793236  
      64A2    20.819632    76B1    20.838040    97B2    20.938112  
      98B2    20.949088    65A2    21.010762   113A1    21.035868  
      77B1    21.220301   114A1    21.270665    99B2    21.393349  
     115A1    21.409636    78B1    21.477658    66A2    21.536309  
     100B2    21.641625   116A1    21.740868   101B2    22.008112  
     117A1    22.513934    67A2    22.716206    79B1    22.738985  
     118A1    22.743002   119A1    22.892839    80B1    23.002313  
     102B2    23.078299    81B1    23.244839   120A1    23.569441  
      68A2    23.628676    82B1    23.715890   103B2    23.803514  
     121A1    23.934565   104B2    23.953311   105B2    23.996365  
      69A2    24.009753   122A1    24.048842    83B1    24.057486  
      70A2    24.192830   123A1    24.303592    71A2    24.334202  
     106B2    24.342980   107B2    24.633270   124A1    24.811895  
      84B1    24.911546    72A2    25.798859   125A1    25.829719  
      85B1    25.903464   108B2    25.911016   126A1    26.232289  
      73A2    26.243423   109B2    26.358023    86B1    26.386562  
      87B1    26.609867   127A1    26.613990   110B2    26.652912  
     128A1    26.697518    74A2    26.700546   129A1    26.917176  
      88B1    26.921299   111B2    27.099736    89B1    27.348025  
     112B2    27.424763    75A2    27.427708   130A1    27.529684  
     113B2    27.575617   131A1    27.737532   114B2    27.767162  
      90B1    27.829772    76A2    28.104290   132A1    28.590246  
     133A1    28.995603   115B2    29.108396   116B2    29.453481  
      91B1    29.611041   134A1    31.672894    92B1    31.764646  
      93B1    31.991486   135A1    32.077223    77A2    32.269972  
     136A1    32.481149   117B2    32.581263    78A2    32.759258  
     118B2    33.019360    79A2    33.342056   137A1    33.474852  
      94B1    33.631500   119B2    34.220810   138A1    34.305485  
     120B2    34.994908    95B1    35.404634    80A2    35.413328  
     139A1    36.072286   140A1    37.687651   121B2    37.928298  
      96B1    38.001326    81A2    38.777715   122B2    39.337076  
     141A1    39.388385   142A1    41.306605   123B2    42.552091  
     143A1   107.314184  

    Final Occupation by Irrep:
             A1    A2    B1    B2 
    DOCC [     3,    0,    0,    1 ]
    SOCC [     0,    0,    1,    0 ]

  Energy converged.

  @UHF Final Energy:   -75.66541934946669

   => Energetics <=

    Nuclear Repulsion Energy =              8.7953071408347405
    One-Electron Energy =                -117.5502382833114723
    Two-Electron Energy =                  33.0895117930100540
    PCM Polarization Energy =               0.0000000000000000
    Total Energy =                        -75.6654193494666742

    Alert: EFP and PCM quantities not currently incorporated into SCF psivars.
  UHF NO Occupations:
  HONO-2 :    1 B2 1.9989847
  HONO-1 :    3 A1 1.9975638
  HONO-0 :    1 B1 1.0000000
  LUNO+0 :    4 A1 0.0024362
  LUNO+1 :    2 B2 0.0010153
  LUNO+2 :    5 A1 0.0005331
  LUNO+3 :    6 A1 0.0000015



Properties will be evaluated at   0.000000,   0.000000,   0.000000 Bohr

Properties computed using the SCF density matrix

  Nuclear Dipole Moment: (a.u.)
     X:     0.0000      Y:     0.0000      Z:     0.9627

  Electronic Dipole Moment: (a.u.)
     X:     0.0000      Y:     0.0000      Z:     0.0033

  Dipole Moment: (a.u.)
     X:     0.0000      Y:     0.0000      Z:     0.9660     Total:     0.9660

  Dipole Moment: (Debye)
     X:     0.0000      Y:     0.0000      Z:     2.4554     Total:     2.4554


*** tstop() called on n412-050.vsc4.prov at Fri Oct 30 19:50:41 2020
Module time:
	user time   =    1537.24 seconds =      25.62 minutes
	system time =     179.59 seconds =       2.99 minutes
	total time  =       2077 seconds =      34.62 minutes
Total time:
	user time   =    1537.24 seconds =      25.62 minutes
	system time =     179.59 seconds =       2.99 minutes
	total time  =       2077 seconds =      34.62 minutes

*** tstart() called on n412-050.vsc4.prov
*** at Fri Oct 30 19:50:41 2020


	Wfn Parameters:
	--------------------
	Wavefunction         = CCSD
	Number of irreps     = 4
	Number of MOs        = 443
	Number of active MOs = 442
	AO-Basis             = NONE
	Semicanonical        = false
	Reference            = UHF
	Print Level          = 1

	IRREP	# MOs	# FZDC	# DOCC	# SOCC	# VIRT	# FZVR
	-----	-----	------	------	------	------	------
	 A1	   143	    1	    2	    0	    140	    0
	 A2	   81	    0	    0	    0	    81	    0
	 B1	   96	    0	    0	    1	    95	    0
	 B2	   123	    0	    1	    0	    122	    0
	Transforming integrals...
	IWL integrals will be deleted.
	(OO|OO)...
	Presorting SO-basis two-electron integrals.
	Sorting File: SO Ints (nn|nn) nbuckets = 1
	Transforming the one-electron integrals and constructing Fock matrices
	Starting AA/AB first half-transformation.
	Sorting AA/AB half-transformed integrals.
	Starting BB first half-transformation.
	Sorting BB half-transformed integrals.
	First half integral transformation complete.
	Starting AA second half-transformation.
	Starting AB second half-transformation.
	Starting BB second half-transformation.
	Two-electron integral transformation complete.
	(OO|OV)...
	Starting AA second half-transformation.
	Starting AB second half-transformation.
	Starting BB second half-transformation.
	Two-electron integral transformation complete.
	(OO|VV)...
	Starting AA second half-transformation.
	Starting AB second half-transformation.
	Starting BB second half-transformation.
	Two-electron integral transformation complete.
	(OV|OO)...
	Starting AA/AB first half-transformation.
	Sorting AA/AB half-transformed integrals.
	Starting BB first half-transformation.
	Sorting BB half-transformed integrals.
	First half integral transformation complete.
	Starting AA second half-transformation.
	Starting AB second half-transformation.
	Starting BB second half-transformation.
	Two-electron integral transformation complete.
	(OV|OV)...
	Starting AA second half-transformation.
	Starting AB second half-transformation.
	Starting BB second half-transformation.
	Two-electron integral transformation complete.
	(OV|VV)...
	Starting AA second half-transformation.
	Starting AB second half-transformation.
	Starting BB second half-transformation.
	Two-electron integral transformation complete.
	(VV|OO)...
	Starting AA/AB first half-transformation.
	Sorting AA/AB half-transformed integrals.
	Starting BB first half-transformation.
	Sorting BB half-transformed integrals.
	First half integral transformation complete.
	Starting AA second half-transformation.
	Starting AB second half-transformation.
	Starting BB second half-transformation.
	Two-electron integral transformation complete.
	(VV|OV)...
	Starting AA second half-transformation.
	Starting AB second half-transformation.
	Starting BB second half-transformation.
	Two-electron integral transformation complete.
	(VV|VV)...
	Starting AA second half-transformation.
	Starting AB second half-transformation.
	Starting BB second half-transformation.
	Two-electron integral transformation complete.
	Frozen core energy     =    -61.22462546738856

	Size of irrep 0 of <AB|CD> integrals:    615.834 (MW) /   4926.671 (MB)
	Size of irrep 1 of <AB|CD> integrals:    525.785 (MW) /   4206.279 (MB)
	Size of irrep 2 of <AB|CD> integrals:    537.405 (MW) /   4299.241 (MB)
	Size of irrep 3 of <AB|CD> integrals:    613.801 (MW) /   4910.405 (MB)
	Total:                                  2292.825 (MW) /  18342.596 (MB)

	Size of irrep 0 of <ab|cd> integrals:    620.558 (MW) /   4964.463 (MB)
	Size of irrep 1 of <ab|cd> integrals:    531.395 (MW) /   4251.158 (MB)
	Size of irrep 2 of <ab|cd> integrals:    543.916 (MW) /   4351.325 (MB)
	Size of irrep 3 of <ab|cd> integrals:    617.821 (MW) /   4942.566 (MB)
	Total:                                  2313.689 (MW) /  18509.512 (MB)

	Size of irrep 0 of <Ab|Cd> integrals:   2516.527 (MW) /  20132.218 (MB)
	Size of irrep 1 of <Ab|Cd> integrals:   2114.344 (MW) /  16914.755 (MB)
	Size of irrep 2 of <Ab|Cd> integrals:   2162.622 (MW) /  17300.976 (MB)
	Size of irrep 3 of <Ab|Cd> integrals:   2463.236 (MW) /  19705.889 (MB)
	Total:                                  9256.730 (MW) /  74053.838 (MB)

	Size of irrep 0 of <IA|BC> integrals:     24.885 (MW) /    199.078 (MB)
	Size of irrep 1 of <IA|BC> integrals:     17.381 (MW) /    139.048 (MB)
	Size of irrep 2 of <IA|BC> integrals:     19.056 (MW) /    152.445 (MB)
	Size of irrep 3 of <IA|BC> integrals:     23.041 (MW) /    184.326 (MB)
	Total:                                    84.362 (MW) /    674.897 (MB)

	Size of irrep 0 of <ia|bc> integrals:     20.205 (MW) /    161.639 (MB)
	Size of irrep 1 of <ia|bc> integrals:     11.895 (MW) /     95.159 (MB)
	Size of irrep 2 of <ia|bc> integrals:     12.734 (MW) /    101.870 (MB)
	Size of irrep 3 of <ia|bc> integrals:     19.089 (MW) /    152.715 (MB)
	Total:                                    63.923 (MW) /    511.384 (MB)

	Size of irrep 0 of <Ia|Bc> integrals:     24.982 (MW) /    199.857 (MB)
	Size of irrep 1 of <Ia|Bc> integrals:     17.473 (MW) /    139.785 (MB)
	Size of irrep 2 of <Ia|Bc> integrals:     19.206 (MW) /    153.649 (MB)
	Size of irrep 3 of <Ia|Bc> integrals:     23.078 (MW) /    184.627 (MB)
	Total:                                    84.740 (MW) /    677.919 (MB)

	Size of irrep 0 of <iA|bC> integrals:     20.166 (MW) /    161.331 (MB)
	Size of irrep 1 of <iA|bC> integrals:     11.817 (MW) /     94.539 (MB)
	Size of irrep 2 of <iA|bC> integrals:     12.603 (MW) /    100.821 (MB)
	Size of irrep 3 of <iA|bC> integrals:     19.058 (MW) /    152.466 (MB)
	Total:                                    63.645 (MW) /    509.157 (MB)

	Size of irrep 0 of tIjAb amplitudes:       0.251 (MW) /      2.007 (MB)
	Size of irrep 1 of tIjAb amplitudes:       0.046 (MW) /      0.368 (MB)
	Size of irrep 2 of tIjAb amplitudes:       0.093 (MW) /      0.744 (MB)
	Size of irrep 3 of tIjAb amplitudes:       0.199 (MW) /      1.588 (MB)
	Total:                                     0.588 (MW) /      4.707 (MB)

	Nuclear Rep. energy          =      8.79530714083474
	SCF energy                   =    -75.66541934946669
	One-electron energy          =    -37.30057863499477
	Two-electron (AA) energy     =      3.75327662883384
	Two-electron (BB) energy     =      1.71769705204483
	Two-electron (AB) energy     =      8.59350393120331
	Two-electron energy          =     14.06447761208198
	Reference energy             =    -75.66541934946660

*** tstop() called on n412-050.vsc4.prov at Fri Oct 30 20:33:21 2020
Module time:
	user time   =   11417.16 seconds =     190.29 minutes
	system time =     655.22 seconds =      10.92 minutes
	total time  =       2560 seconds =      42.67 minutes
Total time:
	user time   =   12954.42 seconds =     215.91 minutes
	system time =     834.81 seconds =      13.91 minutes
	total time  =       4637 seconds =      77.28 minutes

*** tstart() called on n412-050.vsc4.prov
*** at Fri Oct 30 20:33:21 2020

            **************************
            *                        *
            *        CCENERGY        *
            *                        *
            **************************

    Nuclear Rep. energy (wfn)     =    8.795307140834741
    SCF energy          (wfn)     =  -75.665419349466688
    Reference energy    (file100) =  -75.665419349466603

    Input parameters:
    -----------------
    Wave function   =     CCSD
    Reference wfn   =     UHF
    Brueckner       =     No
    Memory (Mbytes) =     250000.0
    Maxiter         =     50
    R_Convergence   =     1.0e-07
    E_Convergence   =     1.0e-06
    Restart         =     Yes
    DIIS            =     Yes
    AO Basis        =     NONE
    ABCD            =     NEW
    Cache Level     =     2
    Cache Type      =     LRU
    Print Level     =     1
    Num. of threads =     48
    # Amps to Print =     10
    Print MP2 Amps? =     No
    Analyze T2 Amps =     No
    Print Pair Ener =     No
    Local CC        =     No
    SCS-MP2         =     False
    SCSN-MP2        =     False
    SCS-CCSD        =     False

MP2 correlation energy -0.2244088850625844
                Solving CC Amplitude Equations
                ------------------------------
  Iter             Energy              RMS        T1Diag      D1Diag    New D1Diag    D2Diag
  ----     ---------------------    ---------   ----------  ----------  ----------   --------
     0        -0.224408885062591    0.000e+00    0.000000    0.000000    0.000000    0.000000
     1        -0.230408538972751    3.167e-02    0.007250    0.000000    0.000000    0.000000
     2        -0.235016455392255    1.144e-02    0.009015    0.000000    0.000000    0.000000
     3        -0.235549145593675    4.521e-03    0.010238    0.000000    0.000000    0.000000
     4        -0.235519323925018    1.742e-03    0.010487    0.000000    0.000000    0.000000
     5        -0.235553648467153    6.837e-04    0.010538    0.000000    0.000000    0.000000
     6        -0.235561301524502    2.432e-04    0.010518    0.000000    0.000000    0.000000
     7        -0.235561127966852    7.338e-05    0.010509    0.000000    0.000000    0.000000
     8        -0.235561670623765    2.599e-05    0.010508    0.000000    0.000000    0.000000
     9        -0.235561338793454    9.727e-06    0.010507    0.000000    0.000000    0.000000
    10        -0.235561467420691    3.901e-06    0.010508    0.000000    0.000000    0.000000
    11        -0.235561489441879    1.147e-06    0.010508    0.000000    0.000000    0.000000
    12        -0.235561509478664    3.459e-07    0.010508    0.000000    0.000000    0.000000
    13        -0.235561513695515    1.030e-07    0.010508    0.000000    0.000000    0.000000
    14        -0.235561513968213    3.652e-08    0.010508    0.000000    0.000000    0.000000
    14        -0.235561513968213    3.652e-08    0.010508    0.000000    0.000000    0.000000

    Iterations converged.


    CCSD corr. energy   =   -0.235561513968213
    PPL corr. energy    =    0.051989384271094
    OS PPL corr. energy =    0.044837865061446
    SS PPL corr. energy =    0.007151519209649
    Largest TIA Amplitudes:
              2 221        -0.0067680704
              1   0         0.0056090548
              2 222        -0.0046244067
              2 223        -0.0045649787
              2 224        -0.0043766928
              2 225        -0.0038446216
              2 227        -0.0038336052
              3 316        -0.0037363710
              1   1        -0.0037275967
              0   0         0.0037251372

    Largest Tia Amplitudes:
              0   0        -0.0041026611
              0   6        -0.0040654434
              2 332         0.0035430516
              2 351         0.0035194527
              1   0         0.0034007643
              0   2        -0.0031765055
              1  21        -0.0031049981
              2 338         0.0029891197
              0  16        -0.0029791830
              1  41         0.0028861700

    Largest TIJAB Amplitudes:
      2   1 230  20         0.0072692658
      3   1 325  24         0.0055305196
      3   2 144  13        -0.0054796017
      2   1 223  20         0.0054057094
      3   1 320  24         0.0053822024
      3   2 320 227        -0.0052723339
      3   2 144   6        -0.0052617076
      3   2 316 230        -0.0052503714
      2   1 230  11        -0.0052184561
      3   2 316 223        -0.0050936812

    Largest Tijab Amplitudes:
      1   0 228 221         0.0076402501
      2   0 221 144        -0.0074986372
      2   0 221 149         0.0066510026
      2   1 321  24         0.0056750713
      2   0 221 141         0.0056116583
      1   0 235 221         0.0055196793
      2   1 326  24         0.0054767971
      2   1 321  14        -0.0050640561
      2   1 318  24         0.0050223070
      2   1 326  14        -0.0050089285

    Largest TIjAb Amplitudes:
      2   0   6 221         0.0202038790
      2   0   0 221         0.0188404556
      2   0  13 221         0.0170115658
      3   2 320 321        -0.0159609065
      3   2 316 321        -0.0158866613
      3   0 144 221         0.0150660626
      3   2 316 317        -0.0149934825
      1   0 227 221         0.0143253920
      3   2 317 321        -0.0142431220
      3   2 320 317        -0.0141892012

    SCF energy       (wfn)                    =  -75.665419349466688
    Reference energy (file100)                =  -75.665419349466603

    Opposite-spin MP2 correlation energy      =   -0.176734899080203
    Same-spin MP2 correlation energy          =   -0.047673985982256
    MP2 correlation energy                    =   -0.224408885062584
      * MP2 total energy                      =  -75.889828234529190

    Opposite-spin CCSD correlation energy     =   -0.190337167157619
    Same-spin CCSD correlation energy         =   -0.045224347596438
    CCSD correlation energy                   =   -0.235561513968213
      * CCSD total energy                     =  -75.900980863434810


*** tstop() called on n412-050.vsc4.prov at Fri Oct 30 21:28:33 2020
Module time:
	user time   =    9701.10 seconds =     161.69 minutes
	system time =    1207.63 seconds =      20.13 minutes
	total time  =       3312 seconds =      55.20 minutes
Total time:
	user time   =   22655.52 seconds =     377.59 minutes
	system time =    2042.44 seconds =      34.04 minutes
	total time  =       7949 seconds =     132.48 minutes

*** Psi4 exiting successfully. Buy a developer a beer!
