
    -----------------------------------------------------------------------
          Psi4: An Open-Source Ab Initio Electronic Structure Package
                               Psi4 1.4a3.dev88 

                         Git: Rev {master} 262e345 


    D. G. A. Smith, L. A. Burns, A. C. Simmonett, R. M. Parrish,
    M. C. Schieber, R. Galvelis, P. Kraus, H. Kruse, R. Di Remigio,
    A. Alenaizan, A. M. James, S. Lehtola, J. P. Misiewicz, M. Scheurer,
    R. A. Shaw, J. B. Schriber, Y. Xie, Z. L. Glick, D. A. Sirianni,
    J. S. O'Brien, J. M. Waldrop, A. Kumar, E. G. Hohenstein,
    B. P. Pritchard, B. R. Brooks, H. F. Schaefer III, A. Yu. Sokolov,
    K. Patkowski, A. E. DePrince III, U. Bozkaya, R. A. King,
    F. A. Evangelista, J. M. Turney, T. D. Crawford, C. D. Sherrill,
    J. Chem. Phys. 152(18) 184108 (2020). https://doi.org/10.1063/5.0006002

                            Additional Code Authors
    E. T. Seidl, C. L. Janssen, E. F. Valeev, M. L. Leininger,
    J. F. Gonthier, R. M. Richard, H. R. McAlexander, M. Saitow, X. Wang,
    P. Verma, and M. H. Lechner

             Previous Authors, Complete List of Code Contributors,
                       and Citations for Specific Modules
    https://github.com/psi4/psi4/blob/master/codemeta.json
    https://github.com/psi4/psi4/graphs/contributors
    http://psicode.org/psi4manual/master/introduction.html#citing-psifour

    -----------------------------------------------------------------------


    Psi4 started on: Tuesday, 26 January 2021 06:33PM

    Process ID: 411714
    Host:       n412-040.vsc4.prov
    PSIDATADIR: /home/fs71337/gallo4/psi4/eri-6/psi4/build/stage/share/psi4
    Memory:     500.0 MiB
    Threads:    48
    
  ==> Input File <==

--------------------------------------------------------------------------
# Any line starting with the # character is a comment line
memory 250000 mb
molecule molecule{
0 1
S          0.0000000000        0.0000000000       -0.0547163639
H          0.0000000000        0.9606869869        0.8701939739
H          0.0000000000       -0.9606869869        0.8701939739
}

set {
  reference rhf
  basis aug-cc-pV(t+d)Z
  scf_type OUT_OF_CORE
  freeze_core true
}

energy('ccsd(t)')
--------------------------------------------------------------------------

  Memory set to 232.831 GiB by Python driver.

Scratch directory: /binfl/lv71337/airmler/temp/

*** tstart() called on n412-040.vsc4.prov
*** at Tue Jan 26 18:33:55 2021

   => Loading Basis Set <=

    Name: AUG-CC-PV(T+D)Z
    Role: ORBITAL
    Keyword: BASIS
    atoms 1   entry S          line   944 file /home/fs71337/gallo4/psi4/eri-6/psi4/build/stage/share/psi4/basis/aug-cc-pv_tpd_z.gbs 
    atoms 2-3 entry H          line    68 file /home/fs71337/gallo4/psi4/eri-6/psi4/build/stage/share/psi4/basis/aug-cc-pv_tpd_z.gbs 


         ---------------------------------------------------------
                                   SCF
               by Justin Turney, Rob Parrish, Andy Simmonett
                          and Daniel G. A. Smith
                              RHF Reference
                       48 Threads, 238418 MiB Core
         ---------------------------------------------------------

  ==> Geometry <==

    Molecular point group: c2v
    Full point group: C2v

    Geometry (in Angstrom), charge = 0, multiplicity = 1:

       Center              X                  Y                   Z               Mass       
    ------------   -----------------  -----------------  -----------------  -----------------
         S           -0.000000000000     0.000000000000    -0.054852032265    31.972071174400
         H           -0.000000000000     0.960686986900     0.870058305535     1.007825032230
         H            0.000000000000    -0.960686986900     0.870058305535     1.007825032230

  Running in c2v symmetry.

  Rotational constants: A =     10.39282  B =      9.06186  C =      4.84091 [cm^-1]
  Rotational constants: A = 311568.87905  B = 271667.85058  C = 145126.74422 [MHz]
  Nuclear repulsion =   12.973523464403868

  Charge       = 0
  Multiplicity = 1
  Electrons    = 18
  Nalpha       = 9
  Nbeta        = 9

  ==> Algorithm <==

  SCF Algorithm Type is OUT_OF_CORE.
  DIIS enabled.
  MOM disabled.
  Fractional occupation disabled.
  Guess Type is SAD.
  Energy threshold   = 1.00e-08
  Density threshold  = 1.00e-08
  Integral threshold = 1.00e-12

  ==> Primary Basis <==

  Basis Set: AUG-CC-PV(T+D)Z
    Blend: AUG-CC-PV(T+D)Z
    Number of shells: 35
    Number of basis function: 101
    Number of Cartesian functions: 115
    Spherical Harmonics?: true
    Max angular momentum: 3

  ==> Integral Setup <==

  ==> DiskJK: Disk-Based J/K Matrices <==

    J tasked:                  Yes
    K tasked:                  Yes
    wK tasked:                  No
    Memory [MiB]:           178813
    Schwarz Cutoff:          1E-12

  Minimum eigenvalue in the overlap matrix is 2.4452073457E-04.
  Reciprocal condition number of the overlap matrix is 4.4974286114E-05.
    Using symmetric orthogonalization.

  ==> Pre-Iterations <==

  SCF Guess: Superposition of Atomic Densities via on-the-fly atomic UHF (no occupation information).


 WARNING: Atomic UHF is not converging! Try casting from a smaller basis or call Rob at CCMST.
   -------------------------
    Irrep   Nso     Nmo    
   -------------------------
     A1        39      39 
     A2        13      13 
     B1        20      20 
     B2        29      29 
   -------------------------
    Total     101     101
   -------------------------

  ==> Iterations <==

                        Total Energy        Delta E     RMS |[F,P]|

   @RHF iter SAD:  -390.17378601075143   -3.90174e+02   0.00000e+00 
   @RHF iter   1:  -398.57351497997115   -8.39973e+00   8.08086e-03 DIIS
   @RHF iter   2:  -398.70632430165506   -1.32809e-01   2.84147e-03 DIIS
   @RHF iter   3:  -398.71541356870353   -9.08927e-03   3.63896e-04 DIIS
   @RHF iter   4:  -398.71592298119867   -5.09412e-04   1.23221e-04 DIIS
   @RHF iter   5:  -398.71598697087308   -6.39897e-05   3.28220e-05 DIIS
   @RHF iter   6:  -398.71599244168129   -5.47081e-06   5.78558e-06 DIIS
   @RHF iter   7:  -398.71599257622660   -1.34545e-07   8.93543e-07 DIIS
   @RHF iter   8:  -398.71599257951590   -3.28930e-09   1.72964e-07 DIIS
   @RHF iter   9:  -398.71599257967591   -1.60014e-10   2.75759e-08 DIIS
   @RHF iter  10:  -398.71599257967972   -3.80851e-12   5.44728e-09 DIIS
  Energy and wave function converged.


  ==> Post-Iterations <==

    Orbital Energies [Eh]
    ---------------------

    Doubly Occupied:                                                      

       1A1   -91.965475     2A1    -8.967623     1B2    -6.648979  
       3A1    -6.648209     1B1    -6.646881     4A1    -0.982519  
       2B2    -0.591180     5A1    -0.502468     2B1    -0.385259  

    Virtual:                                                              

       6A1     0.028875     3B2     0.049442     7A1     0.090466  
       3B1     0.100244     4B2     0.108637     8A1     0.141936  
       5B2     0.166802     9A1     0.206845    10A1     0.218964  
       1A2     0.238105     4B1     0.240726     6B2     0.292550  
      11A1     0.331639     7B2     0.340553     5B1     0.363367  
      12A1     0.366534     2A2     0.369151    13A1     0.402276  
       8B2     0.407099     9B2     0.538337    14A1     0.550324  
       6B1     0.581115    15A1     0.607302    16A1     0.678366  
       3A2     0.679571     7B1     0.693394     8B1     0.786585  
      10B2     0.813662    17A1     0.820461    11B2     0.849199  
      12B2     0.875837     4A2     0.878370    18A1     0.887591  
       9B1     0.911822    19A1     0.954656    20A1     0.987833  
      13B2     1.000940     5A2     1.056377    10B1     1.076585  
      14B2     1.083488    21A1     1.106693     6A2     1.127233  
      11B1     1.159266    22A1     1.199191    15B2     1.269084  
      16B2     1.310374    23A1     1.573125    12B1     1.610510  
      17B2     1.614028     7A2     1.648585    24A1     1.670698  
      25A1     1.763044    18B2     1.824391     8A2     1.975120  
      13B1     1.976262    26A1     2.020363    27A1     2.143505  
      19B2     2.211246    14B1     2.350481    15B1     2.370419  
      28A1     2.413250    20B2     2.420348     9A2     2.552682  
      21B2     2.586048    29A1     2.626986    16B1     2.693078  
      30A1     2.853868    22B2     3.101166    31A1     3.435924  
      23B2     3.536228    10A2     3.876183    32A1     3.943964  
      24B2     3.972252    17B1     4.008407    25B2     4.231353  
      18B1     4.307224    11A2     4.332060    33A1     4.396536  
      19B1     4.444205    12A2     4.515145    26B2     4.561678  
      34A1     4.593037    35A1     4.688687    27B2     4.758735  
      36A1     4.961032    28B2     5.382250    37A1     6.915725  
      20B1     7.416942    13A2     7.428720    38A1     7.509901  
      29B2     8.497967    39A1     8.602192  

    Final Occupation by Irrep:
             A1    A2    B1    B2 
    DOCC [     5,    0,    2,    2 ]

  @RHF Final Energy:  -398.71599257967972

   => Energetics <=

    Nuclear Repulsion Energy =             12.9735234644038684
    One-Electron Energy =                -576.7018448975680940
    Two-Electron Energy =                 165.0123288534844903
    Total Energy =                       -398.7159925796796642

Computation Completed


Properties will be evaluated at   0.000000,   0.000000,   0.000000 [a0]

Properties computed using the SCF density matrix

  Nuclear Dipole Moment: [e a0]
     X:     0.0000      Y:     0.0000      Z:     1.6299

  Electronic Dipole Moment: [e a0]
     X:     0.0000      Y:     0.0000      Z:    -1.2071

  Dipole Moment: [e a0]
     X:     0.0000      Y:     0.0000      Z:     0.4228     Total:     0.4228

  Dipole Moment: [D]
     X:     0.0000      Y:     0.0000      Z:     1.0747     Total:     1.0747


*** tstop() called on n412-040.vsc4.prov at Tue Jan 26 18:34:02 2021
Module time:
	user time   =      30.77 seconds =       0.51 minutes
	system time =       2.44 seconds =       0.04 minutes
	total time  =          7 seconds =       0.12 minutes
Total time:
	user time   =      30.77 seconds =       0.51 minutes
	system time =       2.44 seconds =       0.04 minutes
	total time  =          7 seconds =       0.12 minutes

*** tstart() called on n412-040.vsc4.prov
*** at Tue Jan 26 18:34:02 2021


	Wfn Parameters:
	--------------------
	Wavefunction         = CCSD_T
	Number of irreps     = 4
	Number of MOs        = 101
	Number of active MOs = 96
	AO-Basis             = NONE
	Semicanonical        = false
	Reference            = RHF
	Print Level          = 1

	IRREP	# MOs	# FZDC	# DOCC	# SOCC	# VIRT	# FZVR
	-----	-----	------	------	------	------	------
	 A1	   39	    3	    2	    0	    34	    0
	 A2	   13	    0	    0	    0	    13	    0
	 B1	   20	    1	    1	    0	    18	    0
	 B2	   29	    1	    1	    0	    27	    0
	Transforming integrals...
	IWL integrals will be deleted.
	(OO|OO)...
	Presorting SO-basis two-electron integrals.
	Sorting File: SO Ints (nn|nn) nbuckets = 1
	Constructing frozen core operators
	Starting first half-transformation.
	Sorting half-transformed integrals.
	First half integral transformation complete.
	Starting second half-transformation.
	Two-electron integral transformation complete.
	(OO|OV)...
	Starting second half-transformation.
	Two-electron integral transformation complete.
	(OO|VV)...
	Starting second half-transformation.
	Two-electron integral transformation complete.
	(OV|OO)...
	Starting first half-transformation.
	Sorting half-transformed integrals.
	First half integral transformation complete.
	Starting second half-transformation.
	Two-electron integral transformation complete.
	(OV|OV)...
	Starting second half-transformation.
	Two-electron integral transformation complete.
	(OV|VV)...
	Starting second half-transformation.
	Two-electron integral transformation complete.
	(VV|OO)...
	Starting first half-transformation.
	Sorting half-transformed integrals.
	First half integral transformation complete.
	Starting second half-transformation.
	Two-electron integral transformation complete.
	(VV|OV)...
	Starting second half-transformation.
	Two-electron integral transformation complete.
	(VV|VV)...
	Starting second half-transformation.
	Two-electron integral transformation complete.
	Frozen core energy     =   -395.48721428754260

	Size of irrep 0 of <ab|cd> integrals:      5.655 (MW) /     45.239 (MB)
	Size of irrep 1 of <ab|cd> integrals:      3.445 (MW) /     27.558 (MB)
	Size of irrep 2 of <ab|cd> integrals:      3.709 (MW) /     29.676 (MB)
	Size of irrep 3 of <ab|cd> integrals:      5.308 (MW) /     42.467 (MB)
	Total:                                    18.118 (MW) /    144.940 (MB)

	Size of irrep 0 of <ia|bc> integrals:      0.269 (MW) /      2.150 (MB)
	Size of irrep 1 of <ia|bc> integrals:      0.132 (MW) /      1.054 (MB)
	Size of irrep 2 of <ia|bc> integrals:      0.160 (MW) /      1.279 (MB)
	Size of irrep 3 of <ia|bc> integrals:      0.233 (MW) /      1.862 (MB)
	Total:                                     0.793 (MW) /      6.344 (MB)

	Size of irrep 0 of tijab amplitudes:       0.014 (MW) /      0.114 (MB)
	Size of irrep 1 of tijab amplitudes:       0.004 (MW) /      0.030 (MB)
	Size of irrep 2 of tijab amplitudes:       0.008 (MW) /      0.062 (MB)
	Size of irrep 3 of tijab amplitudes:       0.009 (MW) /      0.074 (MB)
	Total:                                     0.035 (MW) /      0.279 (MB)

	Nuclear Rep. energy          =     12.97352346440387
	SCF energy                   =   -398.71599257967972
	One-electron energy          =    -27.48175129629868
	Two-electron energy          =     11.27944953975715
	Reference energy             =   -398.71599257968023

*** tstop() called on n412-040.vsc4.prov at Tue Jan 26 18:34:08 2021
Module time:
	user time   =       1.44 seconds =       0.02 minutes
	system time =       0.82 seconds =       0.01 minutes
	total time  =          6 seconds =       0.10 minutes
Total time:
	user time   =      32.21 seconds =       0.54 minutes
	system time =       3.26 seconds =       0.05 minutes
	total time  =         13 seconds =       0.22 minutes
            **************************
            *                        *
            *        CCENERGY        *
            *                        *
            **************************

    Nuclear Rep. energy (wfn)     =   12.973523464403868
    SCF energy          (wfn)     = -398.715992579679721
    Reference energy    (file100) = -398.715992579680233

    Input parameters:
    -----------------
    Wave function   =     CCSD_T
    Reference wfn   =     RHF
    Brueckner       =     No
    Memory (Mbytes) =     250000.0
    Maxiter         =     50
    R_Convergence   =     1.0e-07
    E_Convergence   =     1.0e-06
    Restart         =     Yes
    DIIS            =     Yes
    AO Basis        =     NONE
    ABCD            =     NEW
    Cache Level     =     2
    Cache Type      =     LOW
    Print Level     =     1
    Num. of threads =     48
    # Amps to Print =     10
    Print MP2 Amps? =     No
    Analyze T2 Amps =     No
    Print Pair Ener =     No
    Local CC        =     No
    SCS-MP2         =     False
    SCSN-MP2        =     False
    SCS-CCSD        =     False

MP2 correlation energy -0.1950212246163776
                Solving CC Amplitude Equations
                ------------------------------
  Iter             Energy              RMS        T1Diag      D1Diag    New D1Diag    D2Diag
  ----     ---------------------    ---------   ----------  ----------  ----------   --------
     0        -0.195021224616378    0.000e+00    0.000000    0.000000    0.000000    0.135265
     1        -0.212369820622476    4.469e-02    0.006619    0.011081    0.011081    0.150775
     2        -0.218617016493089    1.474e-02    0.008804    0.014910    0.014910    0.158200
     3        -0.218934275573853    3.531e-03    0.009653    0.016444    0.016444    0.159464
     4        -0.218932605242534    1.132e-03    0.009959    0.017047    0.017047    0.159889
     5        -0.218928420399441    2.651e-04    0.010026    0.017193    0.017193    0.159918
     6        -0.218926630055522    8.367e-05    0.010049    0.017256    0.017256    0.159916
     7        -0.218927116973740    2.366e-05    0.010055    0.017276    0.017276    0.159917
     8        -0.218927164845790    6.556e-06    0.010056    0.017280    0.017280    0.159917
     9        -0.218927066367800    2.099e-06    0.010056    0.017281    0.017281    0.159916
    10        -0.218927059247009    6.880e-07    0.010056    0.017281    0.017281    0.159916
    11        -0.218927072237207    1.941e-07    0.010056    0.017282    0.017282    0.159916
    12        -0.218927077786741    6.284e-08    0.010056    0.017281    0.017281    0.159916

    Iterations converged.


    Largest TIA Amplitudes:
              1   3         0.0108175824
              3  67         0.0105058050
              2  48         0.0100102124
              3  66         0.0075642927
              1  11         0.0069529858
              3  68        -0.0065168571
              1   6        -0.0060690855
              2  51        -0.0055142167
              3  72         0.0050113485
              0   7         0.0048138780

    Largest TIjAb Amplitudes:
      1   1  67  67        -0.0289776981
      3   3  67  67        -0.0263821422
      2   2  50  50        -0.0244321237
      2   2  36  36        -0.0234386261
      2   2  51  51        -0.0227299790
      1   1   9   9        -0.0215944564
      1   1   4   4        -0.0196200960
      1   1  66  67        -0.0195073196
      1   1  67  66        -0.0195073196
      2   2   4   4        -0.0182071087

    SCF energy       (wfn)                    = -398.715992579679721
    Reference energy (file100)                = -398.715992579680233

    Opposite-spin MP2 correlation energy      =   -0.155025561754772
    Same-spin MP2 correlation energy          =   -0.039995662861605
    Singles MP2 correlation energy            =   -0.000000000000000
    MP2 correlation energy                    =   -0.195021224616378
      * MP2 total energy                      = -398.911013804296601

    Opposite-spin CCSD correlation energy     =   -0.179465310710947
    Same-spin CCSD correlation energy         =   -0.039461767075794
    Singles CCSD correlation energy           =    0.000000000000000
    CCSD correlation energy                   =   -0.218927077786741
      * CCSD total energy                     = -398.934919657466992

            **************************
            *                        *
            *        CCTRIPLES       *
            *                        *
            **************************


    Wave function   =    CCSD_T
    Reference wfn   =      RHF

    Nuclear Rep. energy (wfn)                =   12.973523464403868
    SCF energy          (wfn)                = -398.715992579679721
    Reference energy    (file100)            = -398.715992579680233
    CCSD energy         (file100)            =   -0.218927077786741
    Total CCSD energy   (file100)            = -398.934919657466992

    Number of ijk index combinations:               20
    Memory available in words        :     31250000000
    ~Words needed per explicit thread:          157216
    Number of threads for explicit ijk threading:   48

    (T) energy                                =   -0.008671187198149
      * CCSD(T) total energy                  = -398.943590844665096


    Psi4 stopped on: Tuesday, 26 January 2021 06:34PM
    Psi4 wall time for execution: 0:00:17.49

*** Psi4 exiting successfully. Buy a developer a beer!
