
    -----------------------------------------------------------------------
          Psi4: An Open-Source Ab Initio Electronic Structure Package
                               Psi4 1.2a1.dev938 

                         Git: Rev {HEAD} fc51d9a dirty


    R. M. Parrish, L. A. Burns, D. G. A. Smith, A. C. Simmonett,
    A. E. DePrince III, E. G. Hohenstein, U. Bozkaya, A. Yu. Sokolov,
    R. Di Remigio, R. M. Richard, J. F. Gonthier, A. M. James,
    H. R. McAlexander, A. Kumar, M. Saitow, X. Wang, B. P. Pritchard,
    P. Verma, H. F. Schaefer III, K. Patkowski, R. A. King, E. F. Valeev,
    F. A. Evangelista, J. M. Turney, T. D. Crawford, and C. D. Sherrill,
    J. Chem. Theory Comput. 13(7) pp 3185--3197 (2017).
    (doi: 10.1021/acs.jctc.7b00174)

    -----------------------------------------------------------------------


    Psi4 started on: Thursday, 20 August 2020 09:57PM

    Process ID: 425071
    PSIDATADIR: /home/irmler/Programs/psi4/beforeGrueneis3/stage/usr/local/psi4/share/psi4
    Memory:     500.0 MiB
    Threads:    4
    
  ==> Input File <==

--------------------------------------------------------------------------
# Any line starting with the # character is a comment line
memory 250000 mb
molecule molecule{
-1 2
Si         0.0000000000        0.0000000000        0.0709756627
H          0.0000000000        1.1144526690       -0.9888420813
H          0.0000000000       -1.1144526690       -0.9888420813
}

set {
  reference uhf
  basis aug-cc-pv(q+d)z
  scf_type OUT_OF_CORE
  freeze_core true
}

energy('ccsd')
--------------------------------------------------------------------------

  Memory set to 232.831 GiB by Python driver.

*** tstart() called on cqc05
*** at Thu Aug 20 21:57:14 2020

   => Loading Basis Set <=

    Name: AUG-CC-PV(Q+D)Z
    Role: ORBITAL
    Keyword: BASIS
    atoms 1   entry SI         line   952 file /home/irmler/Programs/psi4/beforeGrueneis3/stage/usr/local/psi4/share/psi4/basis/aug-cc-pv_qpd_z.gbs 
    atoms 2-3 entry H          line    56 file /home/irmler/Programs/psi4/beforeGrueneis3/stage/usr/local/psi4/share/psi4/basis/aug-cc-pv_qpd_z.gbs 


         ---------------------------------------------------------
                                   SCF
            by Justin Turney, Rob Parrish, Andy Simmonett
                             and Daniel Smith
                              UHF Reference
                        4 Threads, 238418 MiB Core
         ---------------------------------------------------------

  ==> Geometry <==

    Molecular point group: c2v
    Full point group: C2v

    Geometry (in Angstrom), charge = -1, multiplicity = 2:

       Center              X                  Y                   Z               Mass       
    ------------   -----------------  -----------------  -----------------  -----------------
          SI          0.000000000000     0.000000000000     0.071225014523    27.976926532460
           H         -0.000000000000     1.114452669000    -0.988592729477     1.007825032070
           H          0.000000000000    -1.114452669000    -0.988592729477     1.007825032070

  Running in c2v symmetry.

  Rotational constants: A =      7.98239  B =      6.73377  C =      3.65255 [cm^-1]
  Rotational constants: A = 239305.93011  B = 201873.26262  C = 109500.78714 [MHz]
  Nuclear repulsion =    9.871790547880602

  Charge       = -1
  Multiplicity = 2
  Electrons    = 17
  Nalpha       = 9
  Nbeta        = 8

  ==> Algorithm <==

  SCF Algorithm Type is OUT_OF_CORE.
  DIIS enabled.
  MOM disabled.
  Fractional occupation disabled.
  Guess Type is GWH.
  Energy threshold   = 1.00e-08
  Density threshold  = 1.00e-08
  Integral threshold = 0.00e+00

  ==> Primary Basis <==

  Basis Set: AUG-CC-PV(Q+D)Z
    Blend: AUG-CC-PV(Q+D)Z
    Number of shells: 51
    Number of basis function: 181
    Number of Cartesian functions: 225
    Spherical Harmonics?: true
    Max angular momentum: 4

  ==> Pre-Iterations <==

   -------------------------------------------------------
    Irrep   Nso     Nmo     Nalpha   Nbeta   Ndocc  Nsocc
   -------------------------------------------------------
     A1        65      65       0       0       0       0
     A2        28      28       0       0       0       0
     B1        37      37       0       0       0       0
     B2        51      51       0       0       0       0
   -------------------------------------------------------
    Total     181     181       9       8       8       1
   -------------------------------------------------------

  ==> Integral Setup <==

  ==> DiskJK: Disk-Based J/K Matrices <==

    J tasked:                  Yes
    K tasked:                  Yes
    wK tasked:                  No
    Memory (MB):            178813
    Schwarz Cutoff:          1E-12

  Minimum eigenvalue in the overlap matrix is 6.5729796790E-05.
  Using Symmetric Orthogonalization.

  SCF Guess: Generalized Wolfsberg-Helmholtz.

  ==> Iterations <==

                        Total Energy        Delta E     RMS |[F,P]|

    Occupation by irrep:
             A1    A2    B1    B2 
    DOCC [     5,    0,    1,    2 ]
    SOCC [     0,    0,    0,    1 ]

   @UHF iter   1:  -279.12439794033349   -2.79124e+02   1.03975e-01 
    Occupation by irrep:
             A1    A2    B1    B2 
    DOCC [     5,    0,    1,    2 ]
    SOCC [     0,    0,    1,    0 ]

   @UHF iter   2:  -288.65470040797925   -9.53030e+00   3.21605e-02 DIIS
   @UHF iter   3:  -289.90242705226063   -1.24773e+00   8.28612e-03 DIIS
   @UHF iter   4:  -290.05038061290338   -1.47954e-01   1.12037e-03 DIIS
   @UHF iter   5:  -290.05521151054961   -4.83090e-03   4.41615e-04 DIIS
   @UHF iter   6:  -290.05603230815620   -8.20798e-04   1.58489e-04 DIIS
   @UHF iter   7:  -290.05626123680219   -2.28929e-04   6.80015e-05 DIIS
   @UHF iter   8:  -290.05631558141448   -5.43446e-05   3.15982e-05 DIIS
   @UHF iter   9:  -290.05633027481434   -1.46934e-05   1.14695e-05 DIIS
   @UHF iter  10:  -290.05633227110889   -1.99629e-06   4.27165e-06 DIIS
   @UHF iter  11:  -290.05633250113215   -2.30023e-07   1.45627e-06 DIIS
   @UHF iter  12:  -290.05633252998160   -2.88495e-08   4.41124e-07 DIIS
   @UHF iter  13:  -290.05633253224136   -2.25975e-09   1.39575e-07 DIIS
   @UHF iter  14:  -290.05633253247021   -2.28852e-10   5.69583e-08 DIIS
   @UHF iter  15:  -290.05633253250630   -3.60956e-11   1.90210e-08 DIIS
   @UHF iter  16:  -290.05633253250954   -3.24007e-12   6.60416e-09 DIIS

  ==> Post-Iterations <==

   @Spin Contamination Metric:   2.661453260E-02
   @S^2 Expected:                7.500000000E-01
   @S^2 Observed:                7.766145326E-01
   @S   Expected:                5.000000000E-01
   @S   Observed:                5.000000000E-01

    Orbital Energies (a.u.)
    -----------------------

    Alpha Occupied:                                                       

       1A1   -68.536780     2A1    -5.882857     1B1    -3.993514  
       1B2    -3.985518     3A1    -3.984241     4A1    -0.452309  
       2B2    -0.227468     5A1    -0.112449     2B1    -0.047491  

    Alpha Virtual:                                                        

       6A1     0.136550     3B2     0.150439     7A1     0.155043  
       4B2     0.165741     3B1     0.172725     8A1     0.239878  
       9A1     0.245588     1A2     0.250458     4B1     0.253087  
      10A1     0.270246     5B2     0.285846    11A1     0.333536  
       6B2     0.335466     7B2     0.376125    12A1     0.387599  
       2A2     0.410401     5B1     0.412658    13A1     0.418127  
       8B2     0.437426     6B1     0.464108    14A1     0.501598  
       7B1     0.503011     3A2     0.512341     9B2     0.513327  
      15A1     0.515132     8B1     0.516661    10B2     0.555821  
      16A1     0.556422    17A1     0.577306    11B2     0.587233  
       9B1     0.616748     4A2     0.621081    18A1     0.649106  
      12B2     0.665441    19A1     0.666057    20A1     0.813396  
      13B2     0.846383    14B2     0.882715     5A2     0.883335  
      10B1     0.905712    21A1     0.931342    11B1     0.960097  
      22A1     0.963441    15B2     0.981478     6A2     1.001867  
      23A1     1.004423     7A2     1.060745    12B1     1.066870  
      16B2     1.076304    24A1     1.085135    25A1     1.118113  
      17B2     1.127732    13B1     1.210320    14B1     1.220931  
      26A1     1.231415     8A2     1.238318    18B2     1.254366  
      15B1     1.266887    27A1     1.284553    19B2     1.302985  
      28A1     1.325417     9A2     1.365684    29A1     1.380579  
      16B1     1.389962    30A1     1.398916    20B2     1.414032  
      10A2     1.425762    21B2     1.447416    17B1     1.461689  
      31A1     1.487548    22B2     1.686461    11A2     1.716627  
      32A1     1.721887    18B1     1.727570    23B2     1.777179  
      33A1     1.811669    24B2     1.867517    19B1     1.889559  
      34A1     1.918766    35A1     1.979512    25B2     2.039923  
      12A2     2.103157    20B1     2.140382    36A1     2.148753  
      13A2     2.157638    26B2     2.178531    37A1     2.267095  
      27B2     2.285521    21B1     2.292182    38A1     2.343456  
      28B2     2.348439    39A1     2.375292    14A2     2.415016  
      22B1     2.455179    15A2     2.484128    29B2     2.519882  
      40A1     2.528661    23B1     2.639616    41A1     2.639827  
      30B2     2.663778    24B1     2.667656    16A2     2.671858  
      17A2     2.692792    31B2     2.704530    42A1     2.723830  
      43A1     2.798785    25B1     2.840083    32B2     2.873818  
      26B1     2.914912    44A1     2.917743    18A2     2.927260  
      45A1     2.959331    33B2     2.969920    34B2     3.020592  
      46A1     3.125460    19A2     3.222258    35B2     3.244047  
      27B1     3.325085    47A1     3.358956    48A1     3.470113  
      28B1     3.548785    20A2     3.554527    36B2     3.694332  
      29B1     3.719918    49A1     3.736894    37B2     3.758650  
      21A2     4.072252    50A1     4.110602    38B2     4.127415  
      51A1     4.213948    39B2     4.251199    30B1     6.124302  
      22A2     6.368163    52A1     6.379735    31B1     6.391917  
      53A1     6.477768    40B2     6.703416    32B1     6.874267  
      41B2     6.903014    54A1     6.937272    23A2     6.950230  
      42B2     7.025925    24A2     7.102211    33B1     7.150259  
      55A1     7.199717    56A1     7.248626    43B2     7.270458  
      34B1     7.286454    25A2     7.327932    57A1     7.503270  
      44B2     7.705671    58A1     7.973098    45B2     8.160356  
      59A1     8.240658    46B2     8.390676    26A2     8.761361  
      60A1     8.763490    35B1     8.775274    27A2     8.790311  
      47B2     8.814444    36B1     8.884788    61A1     8.915476  
      48B2     8.922578    62A1     9.355869    28A2     9.369713  
      49B2     9.421076    37B1     9.433586    63A1     9.627879  
      50B2     9.761282    64A1     9.763890    51B2    11.257804  
      65A1    13.358563  

    Beta Occupied:                                                        

       1A1   -68.533401     2A1    -5.878326     1B2    -3.983176  
       3A1    -3.982966     1B1    -3.975532     4A1    -0.412663  
       2B2    -0.225325     5A1    -0.093234  

    Beta Virtual:                                                         

       6A1     0.137968     3B2     0.150927     7A1     0.156105  
       2B1     0.161447     4B2     0.165878     8A1     0.240798  
       1A2     0.258759     9A1     0.259599     3B1     0.260514  
      10A1     0.274155     4B1     0.275097     5B2     0.286675  
       6B2     0.337221    11A1     0.339759     7B2     0.379985  
      12A1     0.394979     2A2     0.419093    13A1     0.421866  
       5B1     0.427004     8B2     0.440225     6B1     0.508191  
      14A1     0.511864     7B1     0.513990     9B2     0.514338  
       3A2     0.531850    15A1     0.537834     8B1     0.538123  
      10B2     0.561212    16A1     0.568202    17A1     0.587797  
      11B2     0.589907     4A2     0.640963     9B1     0.641040  
      18A1     0.652026    12B2     0.667688    19A1     0.675363  
      20A1     0.816936    13B2     0.848256    14B2     0.887978  
       5A2     0.889661    10B1     0.913243    21A1     0.938827  
      11B1     0.965586    22A1     0.967187    15B2     0.984184  
       6A2     1.006366    23A1     1.013708    16B2     1.077207  
       7A2     1.083830    12B1     1.090210    24A1     1.103090  
      25A1     1.124287    17B2     1.130957    13B1     1.224837  
      14B1     1.240234    26A1     1.245402     8A2     1.249861  
      18B2     1.268993    27A1     1.291355    15B1     1.302392  
      19B2     1.306219    28A1     1.332050     9A2     1.378011  
      29A1     1.384696    16B1     1.405358    30A1     1.410696  
      20B2     1.425023    10A2     1.432534    21B2     1.447690  
      17B1     1.470787    31A1     1.490793    22B2     1.688276  
      32A1     1.723051    11A2     1.724965    18B1     1.733619  
      23B2     1.778900    33A1     1.813785    24B2     1.869353  
      19B1     1.894412    34A1     1.934227    35A1     1.985415  
      25B2     2.041572    12A2     2.108878    20B1     2.148771  
      36A1     2.149309    13A2     2.160070    26B2     2.179042  
      37A1     2.269040    27B2     2.286948    21B1     2.294941  
      38A1     2.345566    28B2     2.353106    39A1     2.381716  
      14A2     2.420716    22B1     2.466898    15A2     2.490792  
      29B2     2.521963    40A1     2.530316    41A1     2.645529  
      23B1     2.651371    30B2     2.675845    16A2     2.677318  
      24B1     2.677718    17A2     2.700037    31B2     2.706831  
      42A1     2.734381    43A1     2.799931    25B1     2.848086  
      32B2     2.874090    26B1     2.925716    44A1     2.927991  
      18A2     2.937032    45A1     2.961032    33B2     2.968575  
      34B2     3.024945    46A1     3.136625    19A2     3.228741  
      35B2     3.252719    27B1     3.331451    47A1     3.359828  
      48A1     3.471833    28B1     3.554101    20A2     3.558423  
      36B2     3.694764    29B1     3.726935    49A1     3.737809  
      37B2     3.758621    21A2     4.077872    50A1     4.111781  
      38B2     4.128571    51A1     4.214773    39B2     4.251937  
      30B1     6.137229    22A2     6.372598    52A1     6.379973  
      31B1     6.396636    53A1     6.484495    40B2     6.703505  
      32B1     6.874487    41B2     6.903190    54A1     6.937480  
      23A2     6.950439    42B2     7.026269    24A2     7.102556  
      33B1     7.150691    55A1     7.199998    56A1     7.249310  
      43B2     7.270493    34B1     7.288312    25A2     7.329531  
      57A1     7.503206    44B2     7.706154    58A1     7.973938  
      45B2     8.159639    59A1     8.239484    46B2     8.390112  
      26A2     8.760935    60A1     8.762294    35B1     8.774811  
      27A2     8.789719    47B2     8.813464    36B1     8.884348  
      61A1     8.914870    48B2     8.921794    62A1     9.356182  
      28A2     9.369639    49B2     9.420283    37B1     9.433815  
      63A1     9.627519    50B2     9.760691    64A1     9.763430  
      51B2    11.258729    65A1    13.361748  

    Final Occupation by Irrep:
             A1    A2    B1    B2 
    DOCC [     5,    0,    1,    2 ]
    SOCC [     0,    0,    1,    0 ]

  Energy converged.

  @UHF Final Energy:  -290.05633253250954

   => Energetics <=

    Nuclear Repulsion Energy =              9.8717905478806021
    One-Electron Energy =                -425.5489970837962801
    Two-Electron Energy =                 125.6208740034061577
    PCM Polarization Energy =               0.0000000000000000
    Total Energy =                       -290.0563325325094866

    Alert: EFP and PCM quantities not currently incorporated into SCF psivars.
  UHF NO Occupations:
  HONO-2 :    2 B2 1.9995929
  HONO-1 :    5 A1 1.9874255
  HONO-0 :    2 B1 1.0000000
  LUNO+0 :    6 A1 0.0125745
  LUNO+1 :    3 B2 0.0004071
  LUNO+2 :    7 A1 0.0004035
  LUNO+3 :    3 B1 0.0000011



Properties will be evaluated at   0.000000,   0.000000,   0.000000 Bohr

Properties computed using the SCF density matrix

  Nuclear Dipole Moment: (a.u.)
     X:     0.0000      Y:     0.0000      Z:    -1.8520

  Electronic Dipole Moment: (a.u.)
     X:     0.0000      Y:     0.0000      Z:     1.7180

  Dipole Moment: (a.u.)
     X:     0.0000      Y:     0.0000      Z:    -0.1340     Total:     0.1340

  Dipole Moment: (Debye)
     X:     0.0000      Y:     0.0000      Z:    -0.3407     Total:     0.3407


*** tstop() called on cqc05 at Thu Aug 20 21:57:36 2020
Module time:
	user time   =      20.45 seconds =       0.34 minutes
	system time =       1.51 seconds =       0.03 minutes
	total time  =         22 seconds =       0.37 minutes
Total time:
	user time   =      20.45 seconds =       0.34 minutes
	system time =       1.51 seconds =       0.03 minutes
	total time  =         22 seconds =       0.37 minutes

*** tstart() called on cqc05
*** at Thu Aug 20 21:57:36 2020


	Wfn Parameters:
	--------------------
	Wavefunction         = CCSD
	Number of irreps     = 4
	Number of MOs        = 181
	Number of active MOs = 176
	AO-Basis             = NONE
	Semicanonical        = false
	Reference            = UHF
	Print Level          = 1

	IRREP	# MOs	# FZDC	# DOCC	# SOCC	# VIRT	# FZVR
	-----	-----	------	------	------	------	------
	 A1	   65	    3	    2	    0	    60	    0
	 A2	   28	    0	    0	    0	    28	    0
	 B1	   37	    1	    0	    1	    35	    0
	 B2	   51	    1	    1	    0	    49	    0
	Transforming integrals...
	IWL integrals will be deleted.
	(OO|OO)...
	Presorting SO-basis two-electron integrals.
	Sorting File: SO Ints (nn|nn) nbuckets = 1
	Transforming the one-electron integrals and constructing Fock matrices
	Starting AA/AB first half-transformation.
	Sorting AA/AB half-transformed integrals.
	Starting BB first half-transformation.
	Sorting BB half-transformed integrals.
	First half integral transformation complete.
	Starting AA second half-transformation.
	Starting AB second half-transformation.
	Starting BB second half-transformation.
	Two-electron integral transformation complete.
	(OO|OV)...
	Starting AA second half-transformation.
	Starting AB second half-transformation.
	Starting BB second half-transformation.
	Two-electron integral transformation complete.
	(OO|VV)...
	Starting AA second half-transformation.
	Starting AB second half-transformation.
	Starting BB second half-transformation.
	Two-electron integral transformation complete.
	(OV|OO)...
	Starting AA/AB first half-transformation.
	Sorting AA/AB half-transformed integrals.
	Starting BB first half-transformation.
	Sorting BB half-transformed integrals.
	First half integral transformation complete.
	Starting AA second half-transformation.
	Starting AB second half-transformation.
	Starting BB second half-transformation.
	Two-electron integral transformation complete.
	(OV|OV)...
	Starting AA second half-transformation.
	Starting AB second half-transformation.
	Starting BB second half-transformation.
	Two-electron integral transformation complete.
	(OV|VV)...
	Starting AA second half-transformation.
	Starting AB second half-transformation.
	Starting BB second half-transformation.
	Two-electron integral transformation complete.
	(VV|OO)...
	Starting AA/AB first half-transformation.
	Sorting AA/AB half-transformed integrals.
	Starting BB first half-transformation.
	Sorting BB half-transformed integrals.
	First half integral transformation complete.
	Starting AA second half-transformation.
	Starting AB second half-transformation.
	Starting BB second half-transformation.
	Two-electron integral transformation complete.
	(VV|OV)...
	Starting AA second half-transformation.
	Starting AB second half-transformation.
	Starting BB second half-transformation.
	Two-electron integral transformation complete.
	(VV|VV)...
	Starting AA second half-transformation.
	Starting AB second half-transformation.
	Starting BB second half-transformation.
	Two-electron integral transformation complete.
	Frozen core energy     =   -292.05880121123613

	Size of irrep 0 of <AB|CD> integrals:     15.359 (MW) /    122.868 (MB)
	Size of irrep 1 of <AB|CD> integrals:     11.526 (MW) /     92.208 (MB)
	Size of irrep 2 of <AB|CD> integrals:     12.055 (MW) /     96.438 (MB)
	Size of irrep 3 of <AB|CD> integrals:     15.366 (MW) /    122.931 (MB)
	Total:                                    54.306 (MW) /    434.446 (MB)

	Size of irrep 0 of <ab|cd> integrals:     15.634 (MW) /    125.073 (MB)
	Size of irrep 1 of <ab|cd> integrals:     11.861 (MW) /     94.889 (MB)
	Size of irrep 2 of <ab|cd> integrals:     12.475 (MW) /     99.800 (MB)
	Size of irrep 3 of <ab|cd> integrals:     15.587 (MW) /    124.694 (MB)
	Total:                                    55.557 (MW) /    444.456 (MB)

	Size of irrep 0 of <Ab|Cd> integrals:     64.722 (MW) /    517.776 (MB)
	Size of irrep 1 of <Ab|Cd> integrals:     46.772 (MW) /    374.175 (MB)
	Size of irrep 2 of <Ab|Cd> integrals:     49.056 (MW) /    392.448 (MB)
	Size of irrep 3 of <Ab|Cd> integrals:     61.905 (MW) /    495.243 (MB)
	Total:                                   222.455 (MW) /   1779.643 (MB)

	Size of irrep 0 of <IA|BC> integrals:      1.634 (MW) /     13.072 (MB)
	Size of irrep 1 of <IA|BC> integrals:      0.951 (MW) /      7.605 (MB)
	Size of irrep 2 of <IA|BC> integrals:      1.097 (MW) /      8.777 (MB)
	Size of irrep 3 of <IA|BC> integrals:      1.458 (MW) /     11.666 (MB)
	Total:                                     5.140 (MW) /     41.120 (MB)

	Size of irrep 0 of <ia|bc> integrals:      1.366 (MW) /     10.926 (MB)
	Size of irrep 1 of <ia|bc> integrals:      0.634 (MW) /      5.070 (MB)
	Size of irrep 2 of <ia|bc> integrals:      0.706 (MW) /      5.651 (MB)
	Size of irrep 3 of <ia|bc> integrals:      1.248 (MW) /      9.981 (MB)
	Total:                                     3.953 (MW) /     31.627 (MB)

	Size of irrep 0 of <Ia|Bc> integrals:      1.649 (MW) /     13.194 (MB)
	Size of irrep 1 of <Ia|Bc> integrals:      0.964 (MW) /      7.714 (MB)
	Size of irrep 2 of <Ia|Bc> integrals:      1.121 (MW) /      8.965 (MB)
	Size of irrep 3 of <Ia|Bc> integrals:      1.463 (MW) /     11.708 (MB)
	Total:                                     5.198 (MW) /     41.581 (MB)

	Size of irrep 0 of <iA|bC> integrals:      1.360 (MW) /     10.877 (MB)
	Size of irrep 1 of <iA|bC> integrals:      0.622 (MW) /      4.979 (MB)
	Size of irrep 2 of <iA|bC> integrals:      0.686 (MW) /      5.491 (MB)
	Size of irrep 3 of <iA|bC> integrals:      1.243 (MW) /      9.945 (MB)
	Total:                                     3.911 (MW) /     31.292 (MB)

	Size of irrep 0 of tIjAb amplitudes:       0.040 (MW) /      0.322 (MB)
	Size of irrep 1 of tIjAb amplitudes:       0.007 (MW) /      0.055 (MB)
	Size of irrep 2 of tIjAb amplitudes:       0.014 (MW) /      0.112 (MB)
	Size of irrep 3 of tIjAb amplitudes:       0.031 (MW) /      0.252 (MB)
	Total:                                     0.093 (MW) /      0.740 (MB)

	Nuclear Rep. energy          =      9.87179054788060
	SCF energy                   =   -290.05633253250954
	One-electron energy          =    -14.16770526654273
	Two-electron (AA) energy     =      1.55222195589539
	Two-electron (BB) energy     =      0.77090011236768
	Two-electron (AB) energy     =      3.97526132912466
	Two-electron energy          =      6.29838339738773
	Reference energy             =   -290.05633253251051

*** tstop() called on cqc05 at Thu Aug 20 21:58:10 2020
Module time:
	user time   =      20.70 seconds =       0.34 minutes
	system time =      13.56 seconds =       0.23 minutes
	total time  =         34 seconds =       0.57 minutes
Total time:
	user time   =      41.15 seconds =       0.69 minutes
	system time =      15.07 seconds =       0.25 minutes
	total time  =         56 seconds =       0.93 minutes

*** tstart() called on cqc05
*** at Thu Aug 20 21:58:10 2020

            **************************
            *                        *
            *        CCENERGY        *
            *                        *
            **************************

    Nuclear Rep. energy (wfn)     =    9.871790547880602
    SCF energy          (wfn)     = -290.056332532509543
    Reference energy    (file100) = -290.056332532510510

    Input parameters:
    -----------------
    Wave function   =     CCSD
    Reference wfn   =     UHF
    Brueckner       =     No
    Memory (Mbytes) =     250000.0
    Maxiter         =     50
    R_Convergence   =     1.0e-07
    E_Convergence   =     1.0e-06
    Restart         =     Yes
    DIIS            =     Yes
    AO Basis        =     NONE
    ABCD            =     NEW
    Cache Level     =     2
    Cache Type      =     LRU
    Print Level     =     1
    Num. of threads =     4
    # Amps to Print =     10
    Print MP2 Amps? =     No
    Analyze T2 Amps =     No
    Print Pair Ener =     No
    Local CC        =     No
    SCS-MP2         =     False
    SCSN-MP2        =     False
    SCS-CCSD        =     False

MP2 correlation energy -0.1342237777837741
                Solving CC Amplitude Equations
                ------------------------------
  Iter             Energy              RMS        T1Diag      D1Diag    New D1Diag    D2Diag
  ----     ---------------------    ---------   ----------  ----------  ----------   --------
     0        -0.134223777783784    0.000e+00    0.000000    0.000000    0.000000    0.000000
     1        -0.149723902709127    6.334e-02    0.014478    0.000000    0.000000    0.000000
     2        -0.157018917542739    2.601e-02    0.023421    0.000000    0.000000    0.000000
     3        -0.157586968501262    9.286e-03    0.027536    0.000000    0.000000    0.000000
     4        -0.157558970376907    3.889e-03    0.029493    0.000000    0.000000    0.000000
     5        -0.157536832497184    1.381e-03    0.029996    0.000000    0.000000    0.000000
     6        -0.157532086216762    5.473e-04    0.030133    0.000000    0.000000    0.000000
     7        -0.157535022524037    2.173e-04    0.030139    0.000000    0.000000    0.000000
     8        -0.157537425844509    8.415e-05    0.030138    0.000000    0.000000    0.000000
     9        -0.157537499929408    3.356e-05    0.030138    0.000000    0.000000    0.000000
    10        -0.157537288639599    1.437e-05    0.030136    0.000000    0.000000    0.000000
    11        -0.157537402448165    5.258e-06    0.030136    0.000000    0.000000    0.000000
    12        -0.157537470655446    2.295e-06    0.030136    0.000000    0.000000    0.000000
    13        -0.157537541349078    1.070e-06    0.030136    0.000000    0.000000    0.000000
    14        -0.157537556774054    4.567e-07    0.030136    0.000000    0.000000    0.000000
    15        -0.157537555444347    1.968e-07    0.030136    0.000000    0.000000    0.000000
    16        -0.157537553379090    9.231e-08    0.030136    0.000000    0.000000    0.000000
    16        -0.157537553379090    9.231e-08    0.030136    0.000000    0.000000    0.000000

    Iterations converged.


    CCSD corr. energy   =   -0.157537553379090
    PPL corr. energy    =    0.053080432102295
    OS PPL corr. energy =    0.047664385260396
    SS PPL corr. energy =    0.005416046841902
    Largest TIA Amplitudes:
              1   3         0.0249058546
              1   8        -0.0202600927
              2  89         0.0187056171
              2  90        -0.0177451030
              1   9        -0.0175403770
              1   6         0.0142008679
              1   2         0.0129258777
              3 125         0.0121569270
              2  94        -0.0120337853
              1   4         0.0112139027

    Largest Tia Amplitudes:
              1   7        -0.0188443895
              1   9         0.0166382866
              1   4        -0.0162573590
              0   9        -0.0146558482
              2 126         0.0130753192
              2 128        -0.0128036772
              1   2         0.0124437555
              0   6         0.0109684876
              0   4         0.0096926614
              1  12        -0.0094636548

    Largest TIJAB Amplitudes:
      2   1  93   9        -0.0184986148
      3   2  61   6         0.0142960900
      2   1  88   5         0.0142232913
      3   1 129  12         0.0138992398
      3   1 127  12        -0.0132288944
      3   2  63   8        -0.0132062124
      2   1  91   8        -0.0131567762
      3   1 125  12         0.0130315322
      3   2  61   8        -0.0130142744
      2   1 129  62         0.0129712982

    Largest Tijab Amplitudes:
      2   1 130  12        -0.0135969472
      2   1 128  12         0.0129228907
      2   1 126  12        -0.0121969488
      2   1 128   6        -0.0106191793
      2   1 126   7        -0.0104287235
      2   1 130   7        -0.0103628776
      2   1 128   7         0.0098067619
      1   0  95  90         0.0093798079
      2   1 126   6         0.0091167866
      2   1 130   6         0.0077284233

    Largest TIjAb Amplitudes:
      1   1 129 130        -0.0397513301
      1   1 125 126        -0.0380014467
      1   1 125 130        -0.0350311230
      1   1 129 126        -0.0346629877
      2   1   9  90        -0.0346274202
      1   1 129 128         0.0335646233
      1   1 127 128        -0.0334921826
      1   1 127 130         0.0332853816
      1   1 125 128         0.0328857418
      1   1 127 126         0.0323610782

    SCF energy       (wfn)                    = -290.056332532509543
    Reference energy (file100)                = -290.056332532510510

    Opposite-spin MP2 correlation energy      =   -0.113542707639786
    Same-spin MP2 correlation energy          =   -0.020681070143842
    MP2 correlation energy                    =   -0.134223777783774
      * MP2 total energy                      = -290.190556310294312

    Opposite-spin CCSD correlation energy     =   -0.135319611873999
    Same-spin CCSD correlation energy         =   -0.022217948192010
    CCSD correlation energy                   =   -0.157537553379090
      * CCSD total energy                     = -290.213870085889596


*** tstop() called on cqc05 at Thu Aug 20 21:58:45 2020
Module time:
	user time   =      15.04 seconds =       0.25 minutes
	system time =      17.98 seconds =       0.30 minutes
	total time  =         35 seconds =       0.58 minutes
Total time:
	user time   =      56.19 seconds =       0.94 minutes
	system time =      33.05 seconds =       0.55 minutes
	total time  =         91 seconds =       1.52 minutes

*** Psi4 exiting successfully. Buy a developer a beer!
