
    -----------------------------------------------------------------------
          Psi4: An Open-Source Ab Initio Electronic Structure Package
                               Psi4 1.2a1.dev938 

                         Git: Rev {HEAD} fc51d9a dirty


    R. M. Parrish, L. A. Burns, D. G. A. Smith, A. C. Simmonett,
    A. E. DePrince III, E. G. Hohenstein, U. Bozkaya, A. Yu. Sokolov,
    R. Di Remigio, R. M. Richard, J. F. Gonthier, A. M. James,
    H. R. McAlexander, A. Kumar, M. Saitow, X. Wang, B. P. Pritchard,
    P. Verma, H. F. Schaefer III, K. Patkowski, R. A. King, E. F. Valeev,
    F. A. Evangelista, J. M. Turney, T. D. Crawford, and C. D. Sherrill,
    J. Chem. Theory Comput. 13(7) pp 3185--3197 (2017).
    (doi: 10.1021/acs.jctc.7b00174)

    -----------------------------------------------------------------------


    Psi4 started on: Thursday, 20 August 2020 08:06PM

    Process ID: 423803
    PSIDATADIR: /home/irmler/Programs/psi4/beforeGrueneis3/stage/usr/local/psi4/share/psi4
    Memory:     500.0 MiB
    Threads:    4
    
  ==> Input File <==

--------------------------------------------------------------------------
# Any line starting with the # character is a comment line
memory 250000 mb
molecule molecule{
-1 2
Si         0.0000000000        0.0000000000        0.0709756627
H          0.0000000000        1.1144526690       -0.9888420813
H          0.0000000000       -1.1144526690       -0.9888420813
}

set {
  reference uhf
  basis aug-cc-pv(t+d)z
  scf_type OUT_OF_CORE
  freeze_core true
}

energy('ccsd')
--------------------------------------------------------------------------

  Memory set to 232.831 GiB by Python driver.

*** tstart() called on cqc05
*** at Thu Aug 20 20:06:49 2020

   => Loading Basis Set <=

    Name: AUG-CC-PV(T+D)Z
    Role: ORBITAL
    Keyword: BASIS
    atoms 1   entry SI         line   760 file /home/irmler/Programs/psi4/beforeGrueneis3/stage/usr/local/psi4/share/psi4/basis/aug-cc-pv_tpd_z.gbs 
    atoms 2-3 entry H          line    56 file /home/irmler/Programs/psi4/beforeGrueneis3/stage/usr/local/psi4/share/psi4/basis/aug-cc-pv_tpd_z.gbs 


         ---------------------------------------------------------
                                   SCF
            by Justin Turney, Rob Parrish, Andy Simmonett
                             and Daniel Smith
                              UHF Reference
                        4 Threads, 238418 MiB Core
         ---------------------------------------------------------

  ==> Geometry <==

    Molecular point group: c2v
    Full point group: C2v

    Geometry (in Angstrom), charge = -1, multiplicity = 2:

       Center              X                  Y                   Z               Mass       
    ------------   -----------------  -----------------  -----------------  -----------------
          SI          0.000000000000     0.000000000000     0.071225014523    27.976926532460
           H         -0.000000000000     1.114452669000    -0.988592729477     1.007825032070
           H          0.000000000000    -1.114452669000    -0.988592729477     1.007825032070

  Running in c2v symmetry.

  Rotational constants: A =      7.98239  B =      6.73377  C =      3.65255 [cm^-1]
  Rotational constants: A = 239305.93011  B = 201873.26262  C = 109500.78714 [MHz]
  Nuclear repulsion =    9.871790547880602

  Charge       = -1
  Multiplicity = 2
  Electrons    = 17
  Nalpha       = 9
  Nbeta        = 8

  ==> Algorithm <==

  SCF Algorithm Type is OUT_OF_CORE.
  DIIS enabled.
  MOM disabled.
  Fractional occupation disabled.
  Guess Type is GWH.
  Energy threshold   = 1.00e-08
  Density threshold  = 1.00e-08
  Integral threshold = 0.00e+00

  ==> Primary Basis <==

  Basis Set: AUG-CC-PV(T+D)Z
    Blend: AUG-CC-PV(T+D)Z
    Number of shells: 35
    Number of basis function: 101
    Number of Cartesian functions: 115
    Spherical Harmonics?: true
    Max angular momentum: 3

  ==> Pre-Iterations <==

   -------------------------------------------------------
    Irrep   Nso     Nmo     Nalpha   Nbeta   Ndocc  Nsocc
   -------------------------------------------------------
     A1        39      39       0       0       0       0
     A2        13      13       0       0       0       0
     B1        20      20       0       0       0       0
     B2        29      29       0       0       0       0
   -------------------------------------------------------
    Total     101     101       9       8       8       1
   -------------------------------------------------------

  ==> Integral Setup <==

  ==> DiskJK: Disk-Based J/K Matrices <==

    J tasked:                  Yes
    K tasked:                  Yes
    wK tasked:                  No
    Memory (MB):            178813
    Schwarz Cutoff:          1E-12

  Minimum eigenvalue in the overlap matrix is 3.4461099608E-04.
  Using Symmetric Orthogonalization.

  SCF Guess: Generalized Wolfsberg-Helmholtz.

  ==> Iterations <==

                        Total Energy        Delta E     RMS |[F,P]|

    Occupation by irrep:
             A1    A2    B1    B2 
    DOCC [     5,    0,    1,    2 ]
    SOCC [     0,    0,    0,    1 ]

   @UHF iter   1:  -286.47120333032927   -2.86471e+02   8.96440e-02 
    Occupation by irrep:
             A1    A2    B1    B2 
    DOCC [     5,    0,    1,    2 ]
    SOCC [     0,    0,    1,    0 ]

   @UHF iter   2:  -288.64095642693979   -2.16975e+00   2.52040e-02 DIIS
   @UHF iter   3:  -289.67108797166884   -1.03013e+00   2.14826e-02 DIIS
   @UHF iter   4:  -289.99458302087294   -3.23495e-01   6.38979e-03 DIIS
   @UHF iter   5:  -290.05044552029341   -5.58625e-02   1.01079e-03 DIIS
   @UHF iter   6:  -290.05322648193123   -2.78096e-03   3.39117e-04 DIIS
   @UHF iter   7:  -290.05354943225035   -3.22950e-04   1.54115e-04 DIIS
   @UHF iter   8:  -290.05364109526778   -9.16630e-05   6.11528e-05 DIIS
   @UHF iter   9:  -290.05366396237781   -2.28671e-05   2.16081e-05 DIIS
   @UHF iter  10:  -290.05366580084933   -1.83847e-06   7.33258e-06 DIIS
   @UHF iter  11:  -290.05366606273986   -2.61891e-07   2.18682e-06 DIIS
   @UHF iter  12:  -290.05366608367183   -2.09320e-08   8.41745e-07 DIIS
   @UHF iter  13:  -290.05366608603504   -2.36321e-09   2.11396e-07 DIIS
   @UHF iter  14:  -290.05366608621409   -1.79057e-10   8.23794e-08 DIIS
   @UHF iter  15:  -290.05366608624797   -3.38787e-11   3.20098e-08 DIIS
   @UHF iter  16:  -290.05366608625377   -5.79803e-12   1.29661e-08 DIIS
   @UHF iter  17:  -290.05366608625451   -7.38964e-13   5.31553e-09 DIIS

  ==> Post-Iterations <==

   @Spin Contamination Metric:   2.625405240E-02
   @S^2 Expected:                7.500000000E-01
   @S^2 Observed:                7.762540524E-01
   @S   Expected:                5.000000000E-01
   @S   Observed:                5.000000000E-01

    Orbital Energies (a.u.)
    -----------------------

    Alpha Occupied:                                                       

       1A1   -68.537960     2A1    -5.883790     1B1    -3.994411  
       1B2    -3.986341     3A1    -3.985175     4A1    -0.452394  
       2B2    -0.227239     5A1    -0.112311     2B1    -0.047330  

    Alpha Virtual:                                                        

       6A1     0.147794     3B2     0.175363     4B2     0.183733  
       7A1     0.186279     3B1     0.206389     8A1     0.284973  
       9A1     0.299413     1A2     0.305162    10A1     0.306425  
       4B1     0.307487     5B2     0.329422     6B2     0.413127  
      11A1     0.427785     7B2     0.444522    12A1     0.449685  
       2A2     0.486421    13A1     0.496761     5B1     0.500855  
       8B2     0.524175     6B1     0.651466     3A2     0.665732  
      14A1     0.669219     7B1     0.672256     9B2     0.685051  
      15A1     0.689063     8B1     0.692231    16A1     0.736482  
      10B2     0.774298    11B2     0.797386    17A1     0.800334  
       9B1     0.801636     4A2     0.816863    18A1     0.817162  
      12B2     0.855061    19A1     0.884164    20A1     1.021909  
      13B2     1.104248    21A1     1.196330     5A2     1.196807  
      14B2     1.197157    10B1     1.205683     6A2     1.260096  
      11B1     1.284576    22A1     1.289317    15B2     1.364722  
      16B2     1.379948    23A1     1.432112     7A2     1.468767  
      12B1     1.481979    17B2     1.513254    24A1     1.542164  
      25A1     1.572519     8A2     1.609653    13B1     1.612631  
      18B2     1.625518    26A1     1.655931    14B1     1.713911  
      19B2     1.760024    27A1     1.782060    15B1     1.889306  
      20B2     2.038225     9A2     2.049784    28A1     2.104779  
      29A1     2.136758    21B2     2.332729    16B1     2.963278  
      30A1     3.143858    22B2     3.259613    31A1     3.281219  
      23B2     3.623530    10A2     4.166248    24B2     4.183563  
      32A1     4.197968    17B1     4.252465    33A1     4.260035  
      18B1     4.291302    25B2     4.315048    11A2     4.325735  
      34A1     4.427661    35A1     4.520061    26B2     4.563070  
      19B1     4.599932    12A2     4.622216    27B2     4.642292  
      36A1     4.701682    28B2     5.124361    37A1     5.152070  
      20B1     5.174096    13A2     5.186832    38A1     5.390936  
      29B2     6.244548    39A1     6.509453  

    Beta Occupied:                                                        

       1A1   -68.534340     2A1    -5.879266     1B2    -3.983910  
       3A1    -3.983836     1B1    -3.975879     4A1    -0.412645  
       2B2    -0.225004     5A1    -0.093054  

    Beta Virtual:                                                         

       6A1     0.149837     3B2     0.175691     2B1     0.182867  
       4B2     0.184653     7A1     0.188367     8A1     0.300156  
       9A1     0.303685     3B1     0.304357    10A1     0.315147  
       1A2     0.321749     4B1     0.323283     5B2     0.330854  
       6B2     0.415549    11A1     0.443044     7B2     0.448446  
      12A1     0.458412     2A2     0.496156    13A1     0.505561  
       5B1     0.514727     8B2     0.527335    14A1     0.687071  
       9B2     0.692232     6B1     0.699843     3A2     0.701554  
      15A1     0.701624     7B1     0.706176     8B1     0.709647  
      16A1     0.747573    10B2     0.786062    11B2     0.796022  
      17A1     0.807604     9B1     0.823490    18A1     0.823859  
       4A2     0.830130    12B2     0.857209    19A1     0.902740  
      20A1     1.026577    13B2     1.112221    14B2     1.197092  
       5A2     1.200586    21A1     1.205116    10B1     1.210222  
       6A2     1.266110    22A1     1.289539    11B1     1.290574  
      15B2     1.367318    16B2     1.380829    23A1     1.434722  
       7A2     1.484628    12B1     1.499201    17B2     1.514352  
      24A1     1.558890    25A1     1.577117     8A2     1.623258  
      18B2     1.627656    13B1     1.632512    26A1     1.661083  
      14B1     1.729312    19B2     1.781393    27A1     1.799480  
      15B1     1.910927    20B2     2.037275     9A2     2.060913  
      28A1     2.106324    29A1     2.139718    21B2     2.333634  
      16B1     2.988105    30A1     3.145615    22B2     3.260342  
      31A1     3.281434    23B2     3.624585    10A2     4.166536  
      24B2     4.183454    32A1     4.198158    17B1     4.252876  
      33A1     4.265309    18B1     4.292791    25B2     4.314477  
      11A2     4.327169    34A1     4.427010    35A1     4.519641  
      26B2     4.562224    19B1     4.600060    12A2     4.622249  
      27B2     4.640800    36A1     4.700524    28B2     5.124044  
      37A1     5.155587    20B1     5.179162    13A2     5.192280  
      38A1     5.392168    29B2     6.247005    39A1     6.512803  

    Final Occupation by Irrep:
             A1    A2    B1    B2 
    DOCC [     5,    0,    1,    2 ]
    SOCC [     0,    0,    1,    0 ]

  Energy converged.

  @UHF Final Energy:  -290.05366608625451

   => Energetics <=

    Nuclear Repulsion Energy =              9.8717905478806021
    One-Electron Energy =                -425.5360283972682396
    Two-Electron Energy =                 125.6105717631331657
    PCM Polarization Energy =               0.0000000000000000
    Total Energy =                       -290.0536660862544522

    Alert: EFP and PCM quantities not currently incorporated into SCF psivars.
  UHF NO Occupations:
  HONO-2 :    2 B2 1.9995969
  HONO-1 :    5 A1 1.9875888
  HONO-0 :    2 B1 1.0000000
  LUNO+0 :    6 A1 0.0124112
  LUNO+1 :    3 B2 0.0004031
  LUNO+2 :    7 A1 0.0003876
  LUNO+3 :    3 B1 0.0000020



Properties will be evaluated at   0.000000,   0.000000,   0.000000 Bohr

Properties computed using the SCF density matrix

  Nuclear Dipole Moment: (a.u.)
     X:     0.0000      Y:     0.0000      Z:    -1.8520

  Electronic Dipole Moment: (a.u.)
     X:     0.0000      Y:     0.0000      Z:     1.7219

  Dipole Moment: (a.u.)
     X:     0.0000      Y:     0.0000      Z:    -0.1301     Total:     0.1301

  Dipole Moment: (Debye)
     X:     0.0000      Y:     0.0000      Z:    -0.3306     Total:     0.3306


*** tstop() called on cqc05 at Thu Aug 20 20:06:51 2020
Module time:
	user time   =       2.98 seconds =       0.05 minutes
	system time =       0.13 seconds =       0.00 minutes
	total time  =          2 seconds =       0.03 minutes
Total time:
	user time   =       2.98 seconds =       0.05 minutes
	system time =       0.13 seconds =       0.00 minutes
	total time  =          2 seconds =       0.03 minutes

*** tstart() called on cqc05
*** at Thu Aug 20 20:06:51 2020


	Wfn Parameters:
	--------------------
	Wavefunction         = CCSD
	Number of irreps     = 4
	Number of MOs        = 101
	Number of active MOs = 96
	AO-Basis             = NONE
	Semicanonical        = false
	Reference            = UHF
	Print Level          = 1

	IRREP	# MOs	# FZDC	# DOCC	# SOCC	# VIRT	# FZVR
	-----	-----	------	------	------	------	------
	 A1	   39	    3	    2	    0	    34	    0
	 A2	   13	    0	    0	    0	    13	    0
	 B1	   20	    1	    0	    1	    18	    0
	 B2	   29	    1	    1	    0	    27	    0
	Transforming integrals...
	IWL integrals will be deleted.
	(OO|OO)...
	Presorting SO-basis two-electron integrals.
	Sorting File: SO Ints (nn|nn) nbuckets = 1
	Transforming the one-electron integrals and constructing Fock matrices
	Starting AA/AB first half-transformation.
	Sorting AA/AB half-transformed integrals.
	Starting BB first half-transformation.
	Sorting BB half-transformed integrals.
	First half integral transformation complete.
	Starting AA second half-transformation.
	Starting AB second half-transformation.
	Starting BB second half-transformation.
	Two-electron integral transformation complete.
	(OO|OV)...
	Starting AA second half-transformation.
	Starting AB second half-transformation.
	Starting BB second half-transformation.
	Two-electron integral transformation complete.
	(OO|VV)...
	Starting AA second half-transformation.
	Starting AB second half-transformation.
	Starting BB second half-transformation.
	Two-electron integral transformation complete.
	(OV|OO)...
	Starting AA/AB first half-transformation.
	Sorting AA/AB half-transformed integrals.
	Starting BB first half-transformation.
	Sorting BB half-transformed integrals.
	First half integral transformation complete.
	Starting AA second half-transformation.
	Starting AB second half-transformation.
	Starting BB second half-transformation.
	Two-electron integral transformation complete.
	(OV|OV)...
	Starting AA second half-transformation.
	Starting AB second half-transformation.
	Starting BB second half-transformation.
	Two-electron integral transformation complete.
	(OV|VV)...
	Starting AA second half-transformation.
	Starting AB second half-transformation.
	Starting BB second half-transformation.
	Two-electron integral transformation complete.
	(VV|OO)...
	Starting AA/AB first half-transformation.
	Sorting AA/AB half-transformed integrals.
	Starting BB first half-transformation.
	Sorting BB half-transformed integrals.
	First half integral transformation complete.
	Starting AA second half-transformation.
	Starting AB second half-transformation.
	Starting BB second half-transformation.
	Two-electron integral transformation complete.
	(VV|OV)...
	Starting AA second half-transformation.
	Starting AB second half-transformation.
	Starting BB second half-transformation.
	Two-electron integral transformation complete.
	(VV|VV)...
	Starting AA second half-transformation.
	Starting AB second half-transformation.
	Starting BB second half-transformation.
	Two-electron integral transformation complete.
	Frozen core energy     =   -292.05761040668995

	Size of irrep 0 of <AB|CD> integrals:      1.306 (MW) /     10.452 (MB)
	Size of irrep 1 of <AB|CD> integrals:      0.861 (MW) /      6.889 (MB)
	Size of irrep 2 of <AB|CD> integrals:      0.927 (MW) /      7.419 (MB)
	Size of irrep 3 of <AB|CD> integrals:      1.327 (MW) /     10.617 (MB)
	Total:                                     4.422 (MW) /     35.377 (MB)

	Size of irrep 0 of <ab|cd> integrals:      1.348 (MW) /     10.783 (MB)
	Size of irrep 1 of <ab|cd> integrals:      0.912 (MW) /      7.296 (MB)
	Size of irrep 2 of <ab|cd> integrals:      0.994 (MW) /      7.952 (MB)
	Size of irrep 3 of <ab|cd> integrals:      1.357 (MW) /     10.858 (MB)
	Total:                                     4.611 (MW) /     36.889 (MB)

	Size of irrep 0 of <Ab|Cd> integrals:      5.741 (MW) /     45.927 (MB)
	Size of irrep 1 of <Ab|Cd> integrals:      3.546 (MW) /     28.366 (MB)
	Size of irrep 2 of <Ab|Cd> integrals:      3.842 (MW) /     30.733 (MB)
	Size of irrep 3 of <Ab|Cd> integrals:      5.368 (MW) /     42.948 (MB)
	Total:                                    18.497 (MW) /    147.973 (MB)

	Size of irrep 0 of <IA|BC> integrals:      0.269 (MW) /      2.150 (MB)
	Size of irrep 1 of <IA|BC> integrals:      0.132 (MW) /      1.054 (MB)
	Size of irrep 2 of <IA|BC> integrals:      0.160 (MW) /      1.279 (MB)
	Size of irrep 3 of <IA|BC> integrals:      0.233 (MW) /      1.862 (MB)
	Total:                                     0.793 (MW) /      6.344 (MB)

	Size of irrep 0 of <ia|bc> integrals:      0.229 (MW) /      1.835 (MB)
	Size of irrep 1 of <ia|bc> integrals:      0.086 (MW) /      0.688 (MB)
	Size of irrep 2 of <ia|bc> integrals:      0.102 (MW) /      0.814 (MB)
	Size of irrep 3 of <ia|bc> integrals:      0.205 (MW) /      1.640 (MB)
	Total:                                     0.622 (MW) /      4.977 (MB)

	Size of irrep 0 of <Ia|Bc> integrals:      0.273 (MW) /      2.185 (MB)
	Size of irrep 1 of <Ia|Bc> integrals:      0.136 (MW) /      1.085 (MB)
	Size of irrep 2 of <Ia|Bc> integrals:      0.167 (MW) /      1.333 (MB)
	Size of irrep 3 of <Ia|Bc> integrals:      0.234 (MW) /      1.872 (MB)
	Total:                                     0.809 (MW) /      6.475 (MB)

	Size of irrep 0 of <iA|bC> integrals:      0.228 (MW) /      1.821 (MB)
	Size of irrep 1 of <iA|bC> integrals:      0.083 (MW) /      0.663 (MB)
	Size of irrep 2 of <iA|bC> integrals:      0.096 (MW) /      0.768 (MB)
	Size of irrep 3 of <iA|bC> integrals:      0.204 (MW) /      1.631 (MB)
	Total:                                     0.610 (MW) /      4.883 (MB)

	Size of irrep 0 of tIjAb amplitudes:       0.012 (MW) /      0.096 (MB)
	Size of irrep 1 of tIjAb amplitudes:       0.002 (MW) /      0.015 (MB)
	Size of irrep 2 of tIjAb amplitudes:       0.004 (MW) /      0.031 (MB)
	Size of irrep 3 of tIjAb amplitudes:       0.009 (MW) /      0.074 (MB)
	Total:                                     0.027 (MW) /      0.216 (MB)

	Nuclear Rep. energy          =      9.87179054788060
	SCF energy                   =   -290.05366608625451
	One-electron energy          =    -14.16571555673129
	Two-electron (AA) energy     =      1.55238409058459
	Two-electron (BB) energy     =      0.77085544574466
	Two-electron (AB) energy     =      3.97462979295608
	Two-electron energy          =      6.29786932928533
	Reference energy             =   -290.05366608625530

*** tstop() called on cqc05 at Thu Aug 20 20:06:54 2020
Module time:
	user time   =       1.84 seconds =       0.03 minutes
	system time =       0.98 seconds =       0.02 minutes
	total time  =          3 seconds =       0.05 minutes
Total time:
	user time   =       4.82 seconds =       0.08 minutes
	system time =       1.11 seconds =       0.02 minutes
	total time  =          5 seconds =       0.08 minutes

*** tstart() called on cqc05
*** at Thu Aug 20 20:06:54 2020

            **************************
            *                        *
            *        CCENERGY        *
            *                        *
            **************************

    Nuclear Rep. energy (wfn)     =    9.871790547880602
    SCF energy          (wfn)     = -290.053666086254509
    Reference energy    (file100) = -290.053666086255305

    Input parameters:
    -----------------
    Wave function   =     CCSD
    Reference wfn   =     UHF
    Brueckner       =     No
    Memory (Mbytes) =     250000.0
    Maxiter         =     50
    R_Convergence   =     1.0e-07
    E_Convergence   =     1.0e-06
    Restart         =     Yes
    DIIS            =     Yes
    AO Basis        =     NONE
    ABCD            =     NEW
    Cache Level     =     2
    Cache Type      =     LRU
    Print Level     =     1
    Num. of threads =     4
    # Amps to Print =     10
    Print MP2 Amps? =     No
    Analyze T2 Amps =     No
    Print Pair Ener =     No
    Local CC        =     No
    SCS-MP2         =     False
    SCSN-MP2        =     False
    SCS-CCSD        =     False

MP2 correlation energy -0.1270470098409711
                Solving CC Amplitude Equations
                ------------------------------
  Iter             Energy              RMS        T1Diag      D1Diag    New D1Diag    D2Diag
  ----     ---------------------    ---------   ----------  ----------  ----------   --------
     0        -0.127047009840975    0.000e+00    0.000000    0.000000    0.000000    0.000000
     1        -0.144933721867766    6.403e-02    0.013766    0.000000    0.000000    0.000000
     2        -0.152256211633529    2.613e-02    0.023006    0.000000    0.000000    0.000000
     3        -0.152813076860788    8.966e-03    0.027198    0.000000    0.000000    0.000000
     4        -0.152790520460403    3.531e-03    0.028909    0.000000    0.000000    0.000000
     5        -0.152761020495356    1.285e-03    0.029399    0.000000    0.000000    0.000000
     6        -0.152759861210884    4.687e-04    0.029496    0.000000    0.000000    0.000000
     7        -0.152764181380078    2.002e-04    0.029501    0.000000    0.000000    0.000000
     8        -0.152765675421720    7.159e-05    0.029502    0.000000    0.000000    0.000000
     9        -0.152765414539187    2.742e-05    0.029501    0.000000    0.000000    0.000000
    10        -0.152765291671290    1.129e-05    0.029500    0.000000    0.000000    0.000000
    11        -0.152765348896295    4.341e-06    0.029500    0.000000    0.000000    0.000000
    12        -0.152765442015690    1.952e-06    0.029500    0.000000    0.000000    0.000000
    13        -0.152765495300217    9.085e-07    0.029500    0.000000    0.000000    0.000000
    14        -0.152765501365176    3.613e-07    0.029500    0.000000    0.000000    0.000000
    15        -0.152765497332008    1.612e-07    0.029500    0.000000    0.000000    0.000000
    16        -0.152765496090167    7.034e-08    0.029500    0.000000    0.000000    0.000000
    16        -0.152765496090167    7.034e-08    0.029500    0.000000    0.000000    0.000000

    Iterations converged.


    CCSD corr. energy   =   -0.152765496090167
    PPL corr. energy    =    0.049008731602967
    OS PPL corr. energy =    0.043811895359976
    SS PPL corr. energy =    0.005196836242992
    Largest TIA Amplitudes:
              1   2         0.0296834764
              2  48         0.0212517642
              1   8        -0.0193595590
              1   4        -0.0167175447
              2  49         0.0147884453
              3  67         0.0143861211
              1   5         0.0138372042
              1   6        -0.0093927614
              1   0        -0.0088118554
              0   2         0.0079540948

    Largest Tia Amplitudes:
              1   7         0.0202875217
              1   2         0.0194323347
              1   4        -0.0157232790
              2  68         0.0145940900
              0   6         0.0134050182
              1   9         0.0128886536
              0   7         0.0117018854
              0   4        -0.0115358409
              2  69        -0.0103602759
              0   9         0.0085836561

    Largest TIJAB Amplitudes:
      2   1  67  34        -0.0196002228
      2   1  48   7        -0.0188248604
      2   1  47   1         0.0178487940
      2   1  48   2         0.0165934449
      2   1  51   7         0.0156128030
      2   1  47   2        -0.0155291327
      3   1  67   7         0.0152556114
      2   1  49   7        -0.0150893324
      2   1  48   4        -0.0146444019
      2   1  67  36        -0.0146242646

    Largest Tijab Amplitudes:
      2   1  68   6        -0.0138484776
      2   1  68   2         0.0120125144
      2   1  68   7         0.0116541069
      2   1  70   6        -0.0103915800
      2   1  69   7        -0.0101962167
      1   0  50  48         0.0090467727
      2   1  69   8        -0.0088614810
      1   0  49  48         0.0087477183
      2   1  69   2        -0.0087392983
      2   1  68   8         0.0086797178

    Largest TIjAb Amplitudes:
      1   1  67  68        -0.0604013140
      2   1   5  48         0.0352502911
      1   1  51  48        -0.0329428762
      1   1  68  68         0.0324043600
      1   1   7   7        -0.0322021946
      1   1  47  48        -0.0320154335
      1   1  67  69         0.0314212049
      2   1  36  68         0.0306333672
      2   1  34  68         0.0305779032
      1   1  67  72         0.0299929259

    SCF energy       (wfn)                    = -290.053666086254509
    Reference energy (file100)                = -290.053666086255305

    Opposite-spin MP2 correlation energy      =   -0.106834637644558
    Same-spin MP2 correlation energy          =   -0.020212372196343
    MP2 correlation energy                    =   -0.127047009840971
      * MP2 total energy                      = -290.180713096096270

    Opposite-spin CCSD correlation energy     =   -0.130935568473781
    Same-spin CCSD correlation energy         =   -0.021829934228727
    CCSD correlation energy                   =   -0.152765496090167
      * CCSD total energy                     = -290.206431582345488


*** tstop() called on cqc05 at Thu Aug 20 20:06:59 2020
Module time:
	user time   =       1.76 seconds =       0.03 minutes
	system time =       1.36 seconds =       0.02 minutes
	total time  =          5 seconds =       0.08 minutes
Total time:
	user time   =       6.58 seconds =       0.11 minutes
	system time =       2.47 seconds =       0.04 minutes
	total time  =         10 seconds =       0.17 minutes

*** Psi4 exiting successfully. Buy a developer a beer!
