
    -----------------------------------------------------------------------
          Psi4: An Open-Source Ab Initio Electronic Structure Package
                               Psi4 1.2a1.dev938 

                         Git: Rev {HEAD} fc51d9a dirty


    R. M. Parrish, L. A. Burns, D. G. A. Smith, A. C. Simmonett,
    A. E. DePrince III, E. G. Hohenstein, U. Bozkaya, A. Yu. Sokolov,
    R. Di Remigio, R. M. Richard, J. F. Gonthier, A. M. James,
    H. R. McAlexander, A. Kumar, M. Saitow, X. Wang, B. P. Pritchard,
    P. Verma, H. F. Schaefer III, K. Patkowski, R. A. King, E. F. Valeev,
    F. A. Evangelista, J. M. Turney, T. D. Crawford, and C. D. Sherrill,
    J. Chem. Theory Comput. 13(7) pp 3185--3197 (2017).
    (doi: 10.1021/acs.jctc.7b00174)

    -----------------------------------------------------------------------


    Psi4 started on: Thursday, 20 August 2020 08:16PM

    Process ID: 424342
    PSIDATADIR: /home/irmler/Programs/psi4/beforeGrueneis3/stage/usr/local/psi4/share/psi4
    Memory:     500.0 MiB
    Threads:    4
    
  ==> Input File <==

--------------------------------------------------------------------------
# Any line starting with the # character is a comment line
memory 250000 mb
molecule molecule{
0 3
S          0.0000000000        0.0000000000       -0.5025036822
O          0.0000000000        0.0000000000        1.0069295132
}

set {
  reference uhf
  basis aug-cc-pv(q+d)z
  scf_type OUT_OF_CORE
  freeze_core true
}

energy('ccsd')
--------------------------------------------------------------------------

  Memory set to 232.831 GiB by Python driver.

*** tstart() called on cqc05
*** at Thu Aug 20 20:16:57 2020

   => Loading Basis Set <=

    Name: AUG-CC-PV(Q+D)Z
    Role: ORBITAL
    Keyword: BASIS
    atoms 1 entry S          line  1148 file /home/irmler/Programs/psi4/beforeGrueneis3/stage/usr/local/psi4/share/psi4/basis/aug-cc-pv_qpd_z.gbs 
    atoms 2 entry O          line   439 file /home/irmler/Programs/psi4/beforeGrueneis3/stage/usr/local/psi4/share/psi4/basis/aug-cc-pv_qpd_z.gbs 


         ---------------------------------------------------------
                                   SCF
            by Justin Turney, Rob Parrish, Andy Simmonett
                             and Daniel Smith
                              UHF Reference
                        4 Threads, 238418 MiB Core
         ---------------------------------------------------------

  ==> Geometry <==

    Molecular point group: c2v
    Full point group: C_inf_v

    Geometry (in Angstrom), charge = 0, multiplicity = 3:

       Center              X                  Y                   Z               Mass       
    ------------   -----------------  -----------------  -----------------  -----------------
           S          0.000000000000     0.000000000000    -0.503330671565    31.972070999000
           O          0.000000000000     0.000000000000     1.006102523835    15.994914619560

  Running in c2v symmetry.

  Rotational constants: A = ************  B =      0.69400  C =      0.69400 [cm^-1]
  Rotational constants: A = ************  B =  20805.54682  C =  20805.54682 [MHz]
  Nuclear repulsion =   44.874250086682565

  Charge       = 0
  Multiplicity = 3
  Electrons    = 24
  Nalpha       = 13
  Nbeta        = 11

  ==> Algorithm <==

  SCF Algorithm Type is OUT_OF_CORE.
  DIIS enabled.
  MOM disabled.
  Fractional occupation disabled.
  Guess Type is GWH.
  Energy threshold   = 1.00e-08
  Density threshold  = 1.00e-08
  Integral threshold = 0.00e+00

  ==> Primary Basis <==

  Basis Set: AUG-CC-PV(Q+D)Z
    Blend: AUG-CC-PV(Q+D)Z
    Number of shells: 43
    Number of basis function: 169
    Number of Cartesian functions: 220
    Spherical Harmonics?: true
    Max angular momentum: 4

  ==> Pre-Iterations <==

   -------------------------------------------------------
    Irrep   Nso     Nmo     Nalpha   Nbeta   Ndocc  Nsocc
   -------------------------------------------------------
     A1        66      66       0       0       0       0
     A2        23      23       0       0       0       0
     B1        40      40       0       0       0       0
     B2        40      40       0       0       0       0
   -------------------------------------------------------
    Total     169     169      13      11      11       2
   -------------------------------------------------------

  ==> Integral Setup <==

  ==> DiskJK: Disk-Based J/K Matrices <==

    J tasked:                  Yes
    K tasked:                  Yes
    wK tasked:                  No
    Memory (MB):            178813
    Schwarz Cutoff:          1E-12

  Minimum eigenvalue in the overlap matrix is 1.4408487399E-04.
  Using Symmetric Orthogonalization.

  SCF Guess: Generalized Wolfsberg-Helmholtz.

  ==> Iterations <==

                        Total Energy        Delta E     RMS |[F,P]|

    Occupation by irrep:
             A1    A2    B1    B2 
    DOCC [     7,    0,    2,    2 ]
    SOCC [     0,    0,    1,    1 ]

   @UHF iter   1:  -427.49315184493855   -4.27493e+02   3.24340e-01 
    Occupation by irrep:
             A1    A2    B1    B2 
    DOCC [     7,    0,    2,    2 ]
    SOCC [     1,    1,    0,    0 ]

   @UHF iter   2:  -434.60440468580055   -7.11125e+00   1.87427e-01 DIIS
    Occupation by irrep:
             A1    A2    B1    B2 
    DOCC [     7,    0,    2,    2 ]
    SOCC [     0,    0,    1,    1 ]

   @UHF iter   3:  -457.93744217902679   -2.33330e+01   1.00910e-01 DIIS
   @UHF iter   4:  -468.49898925394632   -1.05615e+01   6.59760e-02 DIIS
   @UHF iter   5:  -472.23219109583454   -3.73320e+00   1.11808e-02 DIIS
   @UHF iter   6:  -472.40006416008481   -1.67873e-01   2.29328e-03 DIIS
   @UHF iter   7:  -472.41025590399778   -1.01917e-02   1.24820e-03 DIIS
   @UHF iter   8:  -472.41348704806495   -3.23114e-03   5.67412e-04 DIIS
   @UHF iter   9:  -472.41489687543816   -1.40983e-03   3.34256e-04 DIIS
   @UHF iter  10:  -472.41582551969572   -9.28644e-04   2.43038e-04 DIIS
   @UHF iter  11:  -472.41603979113637   -2.14271e-04   9.36205e-05 DIIS
   @UHF iter  12:  -472.41607553020935   -3.57391e-05   2.00493e-05 DIIS
   @UHF iter  13:  -472.41607748693087   -1.95672e-06   6.56032e-06 DIIS
   @UHF iter  14:  -472.41607771206145   -2.25131e-07   3.80661e-06 DIIS
   @UHF iter  15:  -472.41607778058068   -6.85192e-08   1.22059e-06 DIIS
   @UHF iter  16:  -472.41607778859475   -8.01407e-09   3.38279e-07 DIIS
   @UHF iter  17:  -472.41607778907917   -4.84420e-10   7.66394e-08 DIIS
   @UHF iter  18:  -472.41607778909969   -2.05205e-11   2.06718e-08 DIIS
   @UHF iter  19:  -472.41607778910156   -1.87583e-12   5.88879e-09 DIIS

  ==> Post-Iterations <==

   @Spin Contamination Metric:   6.249669854E-02
   @S^2 Expected:                2.000000000E+00
   @S^2 Observed:                2.062496699E+00
   @S   Expected:                1.000000000E+00
   @S   Observed:                1.000000000E+00

    Orbital Energies (a.u.)
    -----------------------

    Alpha Occupied:                                                       

       1A1   -92.068919     2A1   -20.656118     3A1    -9.063358  
       1B2    -6.752513     1B1    -6.752513     4A1    -6.738008  
       5A1    -1.450155     6A1    -0.956065     2B2    -0.675511  
       2B1    -0.675511     7A1    -0.640172     3B2    -0.434195  
       3B1    -0.434195  

    Alpha Virtual:                                                        

       8A1     0.056410     9A1     0.061987     4B1     0.073459  
       4B2     0.073459    10A1     0.143853     5B2     0.163985  
       5B1     0.163985    11A1     0.166693    12A1     0.187347  
       1A2     0.187347     6B1     0.260799     6B2     0.260799  
      13A1     0.279042    14A1     0.293735     7B2     0.367424  
       7B1     0.367424    15A1     0.418068     2A2     0.465825  
      16A1     0.465825    17A1     0.506909    18A1     0.518116  
       3A2     0.518116     8B2     0.527276     8B1     0.527276  
       9B2     0.540515     9B1     0.540515    10B2     0.630566  
      10B1     0.630566    19A1     0.637085    11B2     0.670710  
      11B1     0.670710     4A2     0.682101    20A1     0.682101  
      21A1     0.744047    22A1     0.790335    12B2     0.944101  
      12B1     0.944101    23A1     1.067889    24A1     1.197976  
       5A2     1.254646    25A1     1.254646    13B2     1.304537  
      13B1     1.304537    26A1     1.309348    14B1     1.333348  
      14B2     1.333348     6A2     1.363417    27A1     1.363417  
      28A1     1.440409     7A2     1.440409    15B1     1.456028  
      15B2     1.456028    16B2     1.469910    16B1     1.469910  
       8A2     1.563478    29A1     1.563478    17B1     1.563717  
      17B2     1.563717    30A1     1.603493    18B1     1.648110  
      18B2     1.648110    31A1     1.660530    32A1     1.663686  
       9A2     1.663686    19B2     1.676436    19B1     1.676436  
      33A1     1.899578    20B2     2.050161    20B1     2.050161  
      34A1     2.156287    10A2     2.173384    35A1     2.173384  
      21B1     2.332054    21B2     2.332054    36A1     2.363921  
      37A1     2.703227    22B2     2.961232    22B1     2.961232  
      11A2     3.014012    38A1     3.014012    39A1     3.218440  
      23B1     3.444943    23B2     3.444943    12A2     3.467958  
      40A1     3.467958    41A1     3.507678    24B2     3.531279  
      24B1     3.531279    25B1     3.614947    25B2     3.614947  
      26B1     3.617148    26B2     3.617148    42A1     3.671786  
      13A2     3.671786    14A2     3.771255    43A1     3.771255  
      44A1     3.779135    15A2     3.779135    45A1     3.966961  
      27B1     4.028535    27B2     4.028535    28B1     4.050011  
      28B2     4.050011    29B1     4.173924    29B2     4.173924  
      46A1     4.179676    47A1     4.280005    16A2     4.280005  
      30B2     4.455194    30B1     4.455194    48A1     4.491038  
      17A2     4.627330    49A1     4.627330    50A1     4.706273  
      18A2     4.919024    51A1     4.919024    31B2     5.000760  
      31B1     5.000760    52A1     5.367389    32B1     5.429965  
      32B2     5.429965    53A1     6.029577    33B2     6.335390  
      33B1     6.335390    54A1     7.765875    19A2     9.211162  
      55A1     9.211162    34B2     9.392528    34B1     9.392528  
      56A1     9.734699    20A2    10.603782    57A1    10.603782  
      35B1    10.703168    35B2    10.703168    36B1    10.874787  
      36B2    10.874787    21A2    10.913821    58A1    10.913821  
      37B1    10.959460    37B2    10.959460    59A1    11.041157  
      60A1    11.761470    38B2    11.856217    38B1    11.856217  
      61A1    12.003600    22A2    12.003600    39B1    12.423849  
      39B2    12.423849    23A2    12.797279    62A1    12.797279  
      63A1    12.820580    40B1    13.247554    40B2    13.247554  
      64A1    13.660484    65A1    20.696052    66A1    42.654173  

    Beta Occupied:                                                        

       1A1   -92.056551     2A1   -20.612699     3A1    -9.049853  
       4A1    -6.734859     1B2    -6.719558     1B1    -6.719558  
       5A1    -1.342908     6A1    -0.805835     7A1    -0.571923  
       2B2    -0.491217     2B1    -0.491217  

    Beta Virtual:                                                         

       3B2     0.026219     3B1     0.026219     8A1     0.061529  
       9A1     0.062583     4B2     0.087244     4B1     0.087244  
      10A1     0.149639     5B2     0.170521     5B1     0.170521  
      11A1     0.179487     1A2     0.201327    12A1     0.201327  
       6B1     0.277787     6B2     0.277787    13A1     0.282376  
      14A1     0.310148     7B2     0.389243     7B1     0.389243  
      15A1     0.429758    16A1     0.498831     2A2     0.498831  
      17A1     0.504535     8B2     0.548177     8B1     0.548177  
      18A1     0.551316     3A2     0.551316     9B2     0.553366  
       9B1     0.553366    19A1     0.645172    10B1     0.664806  
      10B2     0.664806     4A2     0.689299    20A1     0.689299  
      11B2     0.696894    11B1     0.696894    21A1     0.762695  
      22A1     0.807014    12B2     0.958910    12B1     0.958910  
      23A1     1.087768    24A1     1.201018    25A1     1.303308  
       5A2     1.303308    26A1     1.328787    13B2     1.332618  
      13B1     1.332618    14B2     1.343868    14B1     1.343868  
      27A1     1.385458     6A2     1.385458     7A2     1.454529  
      28A1     1.454529    15B1     1.478386    15B2     1.478386  
      16B1     1.513067    16B2     1.513067    17B1     1.579537  
      17B2     1.579537     8A2     1.585405    29A1     1.585405  
      30A1     1.612977    31A1     1.670439    18B1     1.673259  
      18B2     1.673259     9A2     1.673829    32A1     1.673829  
      19B2     1.684030    19B1     1.684030    33A1     1.915812  
      20B2     2.068098    20B1     2.068098    34A1     2.168584  
      10A2     2.197633    35A1     2.197633    21B1     2.367317  
      21B2     2.367317    36A1     2.389036    37A1     2.719127  
      22B2     2.989537    22B1     2.989537    38A1     3.038627  
      11A2     3.038627    39A1     3.229129    40A1     3.479098  
      12A2     3.479098    23B1     3.482936    23B2     3.482936  
      41A1     3.525764    24B2     3.548440    24B1     3.548440  
      25B2     3.624616    25B1     3.624616    26B1     3.664903  
      26B2     3.664903    42A1     3.676435    13A2     3.676435  
      43A1     3.798691    14A2     3.798691    44A1     3.816685  
      15A2     3.816685    45A1     3.986587    27B1     4.043127  
      27B2     4.043127    28B1     4.064894    28B2     4.064894  
      46A1     4.201633    29B2     4.202084    29B1     4.202084  
      47A1     4.312682    16A2     4.312682    30B1     4.468401  
      30B2     4.468401    48A1     4.500190    49A1     4.678303  
      17A2     4.678303    50A1     4.732480    51A1     4.941985  
      18A2     4.941985    31B2     5.032265    31B1     5.032265  
      52A1     5.381294    32B1     5.462071    32B2     5.462071  
      53A1     6.053166    33B2     6.360202    33B1     6.360202  
      54A1     7.779424    55A1     9.227970    19A2     9.227970  
      34B2     9.401628    34B1     9.401628    56A1     9.744063  
      20A2    10.635082    57A1    10.635082    35B1    10.726996  
      35B2    10.726996    36B1    10.899495    36B2    10.899495  
      58A1    10.932785    21A2    10.932785    37B1    11.008214  
      37B2    11.008214    59A1    11.056314    60A1    11.792513  
      38B2    11.912593    38B1    11.912593    61A1    12.044347  
      22A2    12.044347    39B1    12.454254    39B2    12.454254  
      62A1    12.837741    23A2    12.866647    63A1    12.866647  
      40B1    13.288940    40B2    13.288940    64A1    13.689062  
      65A1    20.709205    66A1    42.680268  

    Final Occupation by Irrep:
             A1    A2    B1    B2 
    DOCC [     7,    0,    2,    2 ]
    SOCC [     0,    0,    1,    1 ]

  Energy converged.

  @UHF Final Energy:  -472.41607778910156

   => Energetics <=

    Nuclear Repulsion Energy =             44.8742500866825651
    One-Electron Energy =                -741.6872443437609945
    Two-Electron Energy =                 224.3969164679769221
    PCM Polarization Energy =               0.0000000000000000
    Total Energy =                       -472.4160777891015641

    Alert: EFP and PCM quantities not currently incorporated into SCF psivars.
  UHF NO Occupations:
  HONO-2 :    2 B1 1.9885723
  HONO-1 :    3 B2 1.0000000
  HONO-0 :    3 B1 1.0000000
  LUNO+0 :    4 B1 0.0114277
  LUNO+1 :    4 B2 0.0114277
  LUNO+2 :    8 A1 0.0069114
  LUNO+3 :    9 A1 0.0012128



Properties will be evaluated at   0.000000,   0.000000,   0.000000 Bohr

Properties computed using the SCF density matrix

  Nuclear Dipole Moment: (a.u.)
     X:     0.0000      Y:     0.0000      Z:    -0.0084

  Electronic Dipole Moment: (a.u.)
     X:     0.0000      Y:     0.0000      Z:    -0.7555

  Dipole Moment: (a.u.)
     X:     0.0000      Y:     0.0000      Z:    -0.7640     Total:     0.7640

  Dipole Moment: (Debye)
     X:     0.0000      Y:     0.0000      Z:    -1.9419     Total:     1.9419


*** tstop() called on cqc05 at Thu Aug 20 20:17:20 2020
Module time:
	user time   =      22.61 seconds =       0.38 minutes
	system time =       1.18 seconds =       0.02 minutes
	total time  =         23 seconds =       0.38 minutes
Total time:
	user time   =      22.61 seconds =       0.38 minutes
	system time =       1.18 seconds =       0.02 minutes
	total time  =         23 seconds =       0.38 minutes

*** tstart() called on cqc05
*** at Thu Aug 20 20:17:20 2020


	Wfn Parameters:
	--------------------
	Wavefunction         = CCSD
	Number of irreps     = 4
	Number of MOs        = 169
	Number of active MOs = 163
	AO-Basis             = NONE
	Semicanonical        = false
	Reference            = UHF
	Print Level          = 1

	IRREP	# MOs	# FZDC	# DOCC	# SOCC	# VIRT	# FZVR
	-----	-----	------	------	------	------	------
	 A1	   66	    4	    3	    0	    59	    0
	 A2	   23	    0	    0	    0	    23	    0
	 B1	   40	    1	    1	    1	    37	    0
	 B2	   40	    1	    1	    1	    37	    0
	Transforming integrals...
	IWL integrals will be deleted.
	(OO|OO)...
	Presorting SO-basis two-electron integrals.
	Sorting File: SO Ints (nn|nn) nbuckets = 1
	Transforming the one-electron integrals and constructing Fock matrices
	Starting AA/AB first half-transformation.
	Sorting AA/AB half-transformed integrals.
	Starting BB first half-transformation.
	Sorting BB half-transformed integrals.
	First half integral transformation complete.
	Starting AA second half-transformation.
	Starting AB second half-transformation.
	Starting BB second half-transformation.
	Two-electron integral transformation complete.
	(OO|OV)...
	Starting AA second half-transformation.
	Starting AB second half-transformation.
	Starting BB second half-transformation.
	Two-electron integral transformation complete.
	(OO|VV)...
	Starting AA second half-transformation.
	Starting AB second half-transformation.
	Starting BB second half-transformation.
	Two-electron integral transformation complete.
	(OV|OO)...
	Starting AA/AB first half-transformation.
	Sorting AA/AB half-transformed integrals.
	Starting BB first half-transformation.
	Sorting BB half-transformed integrals.
	First half integral transformation complete.
	Starting AA second half-transformation.
	Starting AB second half-transformation.
	Starting BB second half-transformation.
	Two-electron integral transformation complete.
	(OV|OV)...
	Starting AA second half-transformation.
	Starting AB second half-transformation.
	Starting BB second half-transformation.
	Two-electron integral transformation complete.
	(OV|VV)...
	Starting AA second half-transformation.
	Starting AB second half-transformation.
	Starting BB second half-transformation.
	Two-electron integral transformation complete.
	(VV|OO)...
	Starting AA/AB first half-transformation.
	Sorting AA/AB half-transformed integrals.
	Starting BB first half-transformation.
	Sorting BB half-transformed integrals.
	First half integral transformation complete.
	Starting AA second half-transformation.
	Starting AB second half-transformation.
	Starting BB second half-transformation.
	Two-electron integral transformation complete.
	(VV|OV)...
	Starting AA second half-transformation.
	Starting AB second half-transformation.
	Starting BB second half-transformation.
	Two-electron integral transformation complete.
	(VV|VV)...
	Starting AA second half-transformation.
	Starting AB second half-transformation.
	Starting BB second half-transformation.
	Two-electron integral transformation complete.
	Frozen core energy     =   -478.91618665206238

	Size of irrep 0 of <AB|CD> integrals:     10.864 (MW) /     86.909 (MB)
	Size of irrep 1 of <AB|CD> integrals:      7.431 (MW) /     59.449 (MB)
	Size of irrep 2 of <AB|CD> integrals:      9.205 (MW) /     73.641 (MB)
	Size of irrep 3 of <AB|CD> integrals:      9.205 (MW) /     73.641 (MB)
	Total:                                    36.705 (MW) /    293.640 (MB)

	Size of irrep 0 of <ab|cd> integrals:     11.357 (MW) /     90.855 (MB)
	Size of irrep 1 of <ab|cd> integrals:      7.846 (MW) /     62.765 (MB)
	Size of irrep 2 of <ab|cd> integrals:      9.709 (MW) /     77.676 (MB)
	Size of irrep 3 of <ab|cd> integrals:      9.709 (MW) /     77.676 (MB)
	Total:                                    38.621 (MW) /    308.971 (MB)

	Size of irrep 0 of <Ab|Cd> integrals:     46.540 (MW) /    372.317 (MB)
	Size of irrep 1 of <Ab|Cd> integrals:     30.537 (MW) /    244.293 (MB)
	Size of irrep 2 of <Ab|Cd> integrals:     37.822 (MW) /    302.580 (MB)
	Size of irrep 3 of <Ab|Cd> integrals:     37.822 (MW) /    302.580 (MB)
	Total:                                   152.721 (MW) /   1221.771 (MB)

	Size of irrep 0 of <IA|BC> integrals:      2.193 (MW) /     17.545 (MB)
	Size of irrep 1 of <IA|BC> integrals:      1.183 (MW) /      9.465 (MB)
	Size of irrep 2 of <IA|BC> integrals:      1.669 (MW) /     13.350 (MB)
	Size of irrep 3 of <IA|BC> integrals:      1.669 (MW) /     13.350 (MB)
	Total:                                     6.714 (MW) /     53.709 (MB)

	Size of irrep 0 of <ia|bc> integrals:      1.745 (MW) /     13.962 (MB)
	Size of irrep 1 of <ia|bc> integrals:      0.812 (MW) /      6.498 (MB)
	Size of irrep 2 of <ia|bc> integrals:      1.221 (MW) /      9.772 (MB)
	Size of irrep 3 of <ia|bc> integrals:      1.221 (MW) /      9.772 (MB)
	Total:                                     5.000 (MW) /     40.003 (MB)

	Size of irrep 0 of <Ia|Bc> integrals:      2.244 (MW) /     17.956 (MB)
	Size of irrep 1 of <Ia|Bc> integrals:      1.221 (MW) /      9.770 (MB)
	Size of irrep 2 of <Ia|Bc> integrals:      1.710 (MW) /     13.678 (MB)
	Size of irrep 3 of <Ia|Bc> integrals:      1.710 (MW) /     13.678 (MB)
	Total:                                     6.885 (MW) /     55.081 (MB)

	Size of irrep 0 of <iA|bC> integrals:      1.712 (MW) /     13.699 (MB)
	Size of irrep 1 of <iA|bC> integrals:      0.790 (MW) /      6.322 (MB)
	Size of irrep 2 of <iA|bC> integrals:      1.187 (MW) /      9.496 (MB)
	Size of irrep 3 of <iA|bC> integrals:      1.187 (MW) /      9.496 (MB)
	Total:                                     4.876 (MW) /     39.012 (MB)

	Size of irrep 0 of tIjAb amplitudes:       0.089 (MW) /      0.709 (MB)
	Size of irrep 1 of tIjAb amplitudes:       0.022 (MW) /      0.177 (MB)
	Size of irrep 2 of tIjAb amplitudes:       0.055 (MW) /      0.443 (MB)
	Size of irrep 3 of tIjAb amplitudes:       0.055 (MW) /      0.443 (MB)
	Total:                                     0.221 (MW) /      1.772 (MB)

	Nuclear Rep. energy          =     44.87425008668257
	SCF energy                   =   -472.41607778910156
	One-electron energy          =    -67.77937898999852
	Two-electron (AA) energy     =      8.45622918685868
	Two-electron (BB) energy     =      4.13950383623074
	Two-electron (AB) energy     =     16.80950474318748
	Two-electron energy          =     29.40523776627690
	Reference energy             =   -472.41607778910145

*** tstop() called on cqc05 at Thu Aug 20 20:17:46 2020
Module time:
	user time   =      15.70 seconds =       0.26 minutes
	system time =       9.44 seconds =       0.16 minutes
	total time  =         26 seconds =       0.43 minutes
Total time:
	user time   =      38.31 seconds =       0.64 minutes
	system time =      10.62 seconds =       0.18 minutes
	total time  =         49 seconds =       0.82 minutes

*** tstart() called on cqc05
*** at Thu Aug 20 20:17:46 2020

            **************************
            *                        *
            *        CCENERGY        *
            *                        *
            **************************

    Nuclear Rep. energy (wfn)     =   44.874250086682565
    SCF energy          (wfn)     = -472.416077789101564
    Reference energy    (file100) = -472.416077789101450

    Input parameters:
    -----------------
    Wave function   =     CCSD
    Reference wfn   =     UHF
    Brueckner       =     No
    Memory (Mbytes) =     250000.0
    Maxiter         =     50
    R_Convergence   =     1.0e-07
    E_Convergence   =     1.0e-06
    Restart         =     Yes
    DIIS            =     Yes
    AO Basis        =     NONE
    ABCD            =     NEW
    Cache Level     =     2
    Cache Type      =     LRU
    Print Level     =     1
    Num. of threads =     4
    # Amps to Print =     10
    Print MP2 Amps? =     No
    Analyze T2 Amps =     No
    Print Pair Ener =     No
    Local CC        =     No
    SCS-MP2         =     False
    SCSN-MP2        =     False
    SCS-CCSD        =     False

MP2 correlation energy -0.4130043751279354
                Solving CC Amplitude Equations
                ------------------------------
  Iter             Energy              RMS        T1Diag      D1Diag    New D1Diag    D2Diag
  ----     ---------------------    ---------   ----------  ----------  ----------   --------
     0        -0.413004375127935    0.000e+00    0.000000    0.000000    0.000000    0.000000
     1        -0.403671368053434    9.785e-02    0.021901    0.000000    0.000000    0.000000
     2        -0.417879154203997    3.301e-02    0.022706    0.000000    0.000000    0.000000
     3        -0.421473826697501    1.702e-02    0.028227    0.000000    0.000000    0.000000
     4        -0.421271945050032    4.709e-03    0.029516    0.000000    0.000000    0.000000
     5        -0.421256732467292    1.915e-03    0.030124    0.000000    0.000000    0.000000
     6        -0.421258454050727    6.440e-04    0.030206    0.000000    0.000000    0.000000
     7        -0.421259206138251    2.696e-04    0.030212    0.000000    0.000000    0.000000
     8        -0.421264235498429    9.723e-05    0.030215    0.000000    0.000000    0.000000
     9        -0.421264794483586    3.424e-05    0.030214    0.000000    0.000000    0.000000
    10        -0.421263663718480    1.528e-05    0.030214    0.000000    0.000000    0.000000
    11        -0.421264033209735    7.268e-06    0.030213    0.000000    0.000000    0.000000
    12        -0.421263743322325    2.897e-06    0.030214    0.000000    0.000000    0.000000
    13        -0.421263886478053    1.471e-06    0.030214    0.000000    0.000000    0.000000
    14        -0.421263923081960    3.965e-07    0.030214    0.000000    0.000000    0.000000
    15        -0.421263918390708    1.321e-07    0.030214    0.000000    0.000000    0.000000
    16        -0.421263920383584    5.298e-08    0.030214    0.000000    0.000000    0.000000
    16        -0.421263920383584    5.298e-08    0.030214    0.000000    0.000000    0.000000

    Iterations converged.


    CCSD corr. energy   =   -0.421263920383584
    PPL corr. energy    =    0.103213653359275
    OS PPL corr. energy =    0.081612453128118
    SS PPL corr. energy =    0.021601200231156
    Largest TIA Amplitudes:
              2   2         0.0231733504
              3  88        -0.0207685171
              5 125        -0.0207685171
              3  84        -0.0202197649
              5 121        -0.0202197649
              2   3         0.0185973489
              2   7        -0.0170692200
              3  86         0.0166626925
              5 123         0.0166626925
              3  83         0.0145596749

    Largest Tia Amplitudes:
              3  90         0.0225725349
              4 128         0.0225725349
              1   3        -0.0199588342
              1   6         0.0156421956
              3  83         0.0148828826
              4 121         0.0148828826
              3  86        -0.0147419796
              4 124        -0.0147419796
              3  82        -0.0145716064
              4 120        -0.0145716064

    Largest TIJAB Amplitudes:
      6   4  60   8        -0.0275978483
      6   4  59   8        -0.0182502806
      6   4  60   4        -0.0182502806
      6   4  59   4        -0.0141617644
      5   4  60   8         0.0136362465
      6   3  60   8         0.0136362465
      6   4 123  86        -0.0131275271
      4   2  86   2        -0.0129169069
      6   2 123   2        -0.0129169069
      4   2  86   7         0.0122776453

    Largest Tijab Amplitudes:
      4   3 120  82        -0.0781674999
      4   3 120  83         0.0350811665
      4   3 121  82         0.0350811665
      3   2  82   3        -0.0266418749
      4   2 120   3        -0.0266418749
      3   2  82   7         0.0259378658
      4   2 120   7         0.0259378658
      4   3 120  85        -0.0228855270
      4   3 123  82        -0.0228855270
      3   2  82   6         0.0228836003

    Largest TIjAb Amplitudes:
      2   2   7   7         0.0261067441
      2   3   2  82         0.0261055318
      2   4   2 120         0.0261055318
      3   3  88  82        -0.0257582737
      5   4 125 120        -0.0257582737
      2   3   7  82        -0.0248070678
      2   4   7 120        -0.0248070678
      4   3  88  82        -0.0247416251
      6   4 125 120        -0.0247416251
      4   1   8  82        -0.0246214411

    SCF energy       (wfn)                    = -472.416077789101564
    Reference energy (file100)                = -472.416077789101450

    Opposite-spin MP2 correlation energy      =   -0.303301315237826
    Same-spin MP2 correlation energy          =   -0.109703059890084
    MP2 correlation energy                    =   -0.413004375127935
      * MP2 total energy                      = -472.829082164229362

    Opposite-spin CCSD correlation energy     =   -0.322064112304316
    Same-spin CCSD correlation energy         =   -0.099199808477987
    CCSD correlation energy                   =   -0.421263920383584
      * CCSD total energy                     = -472.837341709485031


*** tstop() called on cqc05 at Thu Aug 20 20:18:16 2020
Module time:
	user time   =      15.59 seconds =       0.26 minutes
	system time =      12.89 seconds =       0.21 minutes
	total time  =         30 seconds =       0.50 minutes
Total time:
	user time   =      53.90 seconds =       0.90 minutes
	system time =      23.51 seconds =       0.39 minutes
	total time  =         79 seconds =       1.32 minutes

*** Psi4 exiting successfully. Buy a developer a beer!
