
    -----------------------------------------------------------------------
          Psi4: An Open-Source Ab Initio Electronic Structure Package
                               Psi4 1.2a1.dev938 

                         Git: Rev {HEAD} fc51d9a dirty


    R. M. Parrish, L. A. Burns, D. G. A. Smith, A. C. Simmonett,
    A. E. DePrince III, E. G. Hohenstein, U. Bozkaya, A. Yu. Sokolov,
    R. Di Remigio, R. M. Richard, J. F. Gonthier, A. M. James,
    H. R. McAlexander, A. Kumar, M. Saitow, X. Wang, B. P. Pritchard,
    P. Verma, H. F. Schaefer III, K. Patkowski, R. A. King, E. F. Valeev,
    F. A. Evangelista, J. M. Turney, T. D. Crawford, and C. D. Sherrill,
    J. Chem. Theory Comput. 13(7) pp 3185--3197 (2017).
    (doi: 10.1021/acs.jctc.7b00174)

    -----------------------------------------------------------------------


    Psi4 started on: Thursday, 20 August 2020 07:56PM

    Process ID: 423212
    PSIDATADIR: /home/irmler/Programs/psi4/beforeGrueneis3/stage/usr/local/psi4/share/psi4
    Memory:     500.0 MiB
    Threads:    4
    
  ==> Input File <==

--------------------------------------------------------------------------
# Any line starting with the # character is a comment line
memory 250000 mb
molecule molecule{
0 3
S          0.0000000000        0.0000000000       -0.5025036822
O          0.0000000000        0.0000000000        1.0069295132
}

set {
  reference uhf
  basis aug-cc-pv(d+d)z
  scf_type OUT_OF_CORE
  freeze_core true
}

energy('ccsd')
--------------------------------------------------------------------------

  Memory set to 232.831 GiB by Python driver.

*** tstart() called on cqc05
*** at Thu Aug 20 19:56:57 2020

   => Loading Basis Set <=

    Name: AUG-CC-PV(D+D)Z
    Role: ORBITAL
    Keyword: BASIS
    atoms 1 entry S          line   724 file /home/irmler/Programs/psi4/beforeGrueneis3/stage/usr/local/psi4/share/psi4/basis/aug-cc-pv_dpd_z.gbs 
    atoms 2 entry O          line   270 file /home/irmler/Programs/psi4/beforeGrueneis3/stage/usr/local/psi4/share/psi4/basis/aug-cc-pv_dpd_z.gbs 


         ---------------------------------------------------------
                                   SCF
            by Justin Turney, Rob Parrish, Andy Simmonett
                             and Daniel Smith
                              UHF Reference
                        4 Threads, 238418 MiB Core
         ---------------------------------------------------------

  ==> Geometry <==

    Molecular point group: c2v
    Full point group: C_inf_v

    Geometry (in Angstrom), charge = 0, multiplicity = 3:

       Center              X                  Y                   Z               Mass       
    ------------   -----------------  -----------------  -----------------  -----------------
           S          0.000000000000     0.000000000000    -0.503330671565    31.972070999000
           O          0.000000000000     0.000000000000     1.006102523835    15.994914619560

  Running in c2v symmetry.

  Rotational constants: A = ************  B =      0.69400  C =      0.69400 [cm^-1]
  Rotational constants: A = ************  B =  20805.54682  C =  20805.54682 [MHz]
  Nuclear repulsion =   44.874250086682565

  Charge       = 0
  Multiplicity = 3
  Electrons    = 24
  Nalpha       = 13
  Nbeta        = 11

  ==> Algorithm <==

  SCF Algorithm Type is OUT_OF_CORE.
  DIIS enabled.
  MOM disabled.
  Fractional occupation disabled.
  Guess Type is GWH.
  Energy threshold   = 1.00e-08
  Density threshold  = 1.00e-08
  Integral threshold = 0.00e+00

  ==> Primary Basis <==

  Basis Set: AUG-CC-PV(D+D)Z
    Blend: AUG-CC-PV(D+D)Z
    Number of shells: 21
    Number of basis function: 55
    Number of Cartesian functions: 60
    Spherical Harmonics?: true
    Max angular momentum: 2

  ==> Pre-Iterations <==

   -------------------------------------------------------
    Irrep   Nso     Nmo     Nalpha   Nbeta   Ndocc  Nsocc
   -------------------------------------------------------
     A1        26      26       0       0       0       0
     A2         5       5       0       0       0       0
     B1        12      12       0       0       0       0
     B2        12      12       0       0       0       0
   -------------------------------------------------------
    Total      55      55      13      11      11       2
   -------------------------------------------------------

  ==> Integral Setup <==

  ==> DiskJK: Disk-Based J/K Matrices <==

    J tasked:                  Yes
    K tasked:                  Yes
    wK tasked:                  No
    Memory (MB):            178813
    Schwarz Cutoff:          1E-12

  Minimum eigenvalue in the overlap matrix is 3.3113188189E-03.
  Using Symmetric Orthogonalization.

  SCF Guess: Generalized Wolfsberg-Helmholtz.

  ==> Iterations <==

                        Total Energy        Delta E     RMS |[F,P]|

    Occupation by irrep:
             A1    A2    B1    B2 
    DOCC [     7,    0,    2,    2 ]
    SOCC [     0,    0,    1,    1 ]

   @UHF iter   1:  -428.62835156913650   -4.28628e+02   5.21474e-01 
    Occupation by irrep:
             A1    A2    B1    B2 
    DOCC [     7,    0,    2,    2 ]
    SOCC [     1,    0,    0,    1 ]

   @UHF iter   2:  -456.93993668218667   -2.83116e+01   3.01542e-01 DIIS
    Occupation by irrep:
             A1    A2    B1    B2 
    DOCC [     7,    0,    2,    2 ]
    SOCC [     0,    0,    1,    1 ]

   @UHF iter   3:  -465.07044847756373   -8.13051e+00   1.22812e-01 DIIS
   @UHF iter   4:  -468.28967148283414   -3.21922e+00   1.38412e-01 DIIS
   @UHF iter   5:  -471.36445280252315   -3.07478e+00   6.56111e-02 DIIS
   @UHF iter   6:  -472.18246658593398   -8.18014e-01   2.85997e-02 DIIS
   @UHF iter   7:  -472.36066038858132   -1.78194e-01   3.12733e-03 DIIS
   @UHF iter   8:  -472.36580140192791   -5.14101e-03   2.09292e-03 DIIS
   @UHF iter   9:  -472.36851533590948   -2.71393e-03   1.26266e-03 DIIS
   @UHF iter  10:  -472.37085954728633   -2.34421e-03   4.93830e-04 DIIS
   @UHF iter  11:  -472.37128692291026   -4.27376e-04   1.50887e-04 DIIS
   @UHF iter  12:  -472.37133045933399   -4.35364e-05   8.57938e-05 DIIS
   @UHF iter  13:  -472.37133555970269   -5.10037e-06   1.29542e-05 DIIS
   @UHF iter  14:  -472.37133568458404   -1.24881e-07   5.13838e-06 DIIS
   @UHF iter  15:  -472.37133570657323   -2.19892e-08   2.82174e-06 DIIS
   @UHF iter  16:  -472.37133572577113   -1.91979e-08   2.18615e-06 DIIS
   @UHF iter  17:  -472.37133575723817   -3.14670e-08   1.73262e-06 DIIS
   @UHF iter  18:  -472.37133578747108   -3.02329e-08   5.53746e-07 DIIS
   @UHF iter  19:  -472.37133578931855   -1.84747e-09   2.17627e-07 DIIS
   @UHF iter  20:  -472.37133578939813   -7.95808e-11   9.82132e-08 DIIS
   @UHF iter  21:  -472.37133578941217   -1.40403e-11   2.84750e-08 DIIS
   @UHF iter  22:  -472.37133578941325   -1.08002e-12   8.42817e-09 DIIS

  ==> Post-Iterations <==

   @Spin Contamination Metric:   5.708716107E-02
   @S^2 Expected:                2.000000000E+00
   @S^2 Observed:                2.057087161E+00
   @S   Expected:                1.000000000E+00
   @S   Observed:                1.000000000E+00

    Orbital Energies (a.u.)
    -----------------------

    Alpha Occupied:                                                       

       1A1   -92.074774     2A1   -20.671396     3A1    -9.069300  
       1B2    -6.757206     1B1    -6.757206     4A1    -6.745290  
       5A1    -1.459562     6A1    -0.959023     2B2    -0.678605  
       2B1    -0.678605     7A1    -0.643149     3B2    -0.432787  
       3B1    -0.432787  

    Alpha Virtual:                                                        

       8A1     0.070541     9A1     0.094760     4B2     0.104876  
       4B1     0.104876    10A1     0.197085    11A1     0.231795  
       5B1     0.240927     5B2     0.240927     1A2     0.318840  
      12A1     0.318840    13A1     0.398793     6B2     0.441670  
       6B1     0.441670    14A1     0.615706     7B2     0.747166  
       7B1     0.747166    15A1     0.782628    16A1     0.940723  
       8B2     0.972938     8B1     0.972938     2A2     0.984002  
      17A1     0.984002     3A2     1.013223    18A1     1.013223  
      19A1     1.208792     9B1     1.256545     9B2     1.256545  
      20A1     1.468161    10B2     1.523008    10B1     1.523008  
      21A1     1.719145    22A1     2.826416     4A2     3.507304  
      23A1     3.507304    11B1     3.607330    11B2     3.607330  
      24A1     3.652673     5A2     4.953072    25A1     4.953072  
      12B2     5.031710    12B1     5.031710    26A1     5.111462  

    Beta Occupied:                                                        

       1A1   -92.062636     2A1   -20.626932     3A1    -9.056118  
       4A1    -6.741906     1B1    -6.725505     1B2    -6.725505  
       5A1    -1.351081     6A1    -0.810617     7A1    -0.573044  
       2B2    -0.492111     2B1    -0.492111  

    Beta Virtual:                                                         

       3B2     0.025492     3B1     0.025492     8A1     0.076273  
       9A1     0.100719     4B1     0.125119     4B2     0.125119  
      10A1     0.209998    11A1     0.248889     5B2     0.257345  
       5B1     0.257345     1A2     0.372433    12A1     0.372433  
      13A1     0.406949     6B2     0.488351     6B1     0.488351  
      14A1     0.646407    15A1     0.792465     7B1     0.798983  
       7B2     0.798983    16A1     0.946230     8B1     1.004434  
       8B2     1.004434     2A2     1.019702    17A1     1.019702  
       3A2     1.066254    18A1     1.066254    19A1     1.246533  
       9B2     1.305915     9B1     1.305915    20A1     1.488979  
      10B2     1.588691    10B1     1.588691    21A1     1.743350  
      22A1     2.849074     4A2     3.599503    23A1     3.599503  
      11B2     3.659976    11B1     3.659976    24A1     3.699336  
       5A2     4.966689    25A1     4.966689    12B2     5.039452  
      12B1     5.039452    26A1     5.117978  

    Final Occupation by Irrep:
             A1    A2    B1    B2 
    DOCC [     7,    0,    2,    2 ]
    SOCC [     0,    0,    1,    1 ]

  Energy converged.

  @UHF Final Energy:  -472.37133578941325

   => Energetics <=

    Nuclear Repulsion Energy =             44.8742500866825651
    One-Electron Energy =                -741.4739134035885399
    Two-Electron Energy =                 224.2283275274927519
    PCM Polarization Energy =               0.0000000000000000
    Total Energy =                       -472.3713357894132514

    Alert: EFP and PCM quantities not currently incorporated into SCF psivars.
  UHF NO Occupations:
  HONO-2 :    2 B1 1.9892169
  HONO-1 :    3 B2 1.0000000
  HONO-0 :    3 B1 1.0000000
  LUNO+0 :    4 B1 0.0107831
  LUNO+1 :    4 B2 0.0107831
  LUNO+2 :    8 A1 0.0056275
  LUNO+3 :    9 A1 0.0011153



Properties will be evaluated at   0.000000,   0.000000,   0.000000 Bohr

Properties computed using the SCF density matrix

  Nuclear Dipole Moment: (a.u.)
     X:     0.0000      Y:     0.0000      Z:    -0.0084

  Electronic Dipole Moment: (a.u.)
     X:     0.0000      Y:     0.0000      Z:    -0.7378

  Dipole Moment: (a.u.)
     X:     0.0000      Y:     0.0000      Z:    -0.7463     Total:     0.7463

  Dipole Moment: (Debye)
     X:     0.0000      Y:     0.0000      Z:    -1.8968     Total:     1.8968


*** tstop() called on cqc05 at Thu Aug 20 19:56:57 2020
Module time:
	user time   =       1.45 seconds =       0.02 minutes
	system time =       0.02 seconds =       0.00 minutes
	total time  =          0 seconds =       0.00 minutes
Total time:
	user time   =       1.45 seconds =       0.02 minutes
	system time =       0.02 seconds =       0.00 minutes
	total time  =          0 seconds =       0.00 minutes

*** tstart() called on cqc05
*** at Thu Aug 20 19:56:57 2020


	Wfn Parameters:
	--------------------
	Wavefunction         = CCSD
	Number of irreps     = 4
	Number of MOs        = 55
	Number of active MOs = 49
	AO-Basis             = NONE
	Semicanonical        = false
	Reference            = UHF
	Print Level          = 1

	IRREP	# MOs	# FZDC	# DOCC	# SOCC	# VIRT	# FZVR
	-----	-----	------	------	------	------	------
	 A1	   26	    4	    3	    0	    19	    0
	 A2	   5	    0	    0	    0	    5	    0
	 B1	   12	    1	    1	    1	    9	    0
	 B2	   12	    1	    1	    1	    9	    0
	Transforming integrals...
	IWL integrals will be deleted.
	(OO|OO)...
	Presorting SO-basis two-electron integrals.
	Sorting File: SO Ints (nn|nn) nbuckets = 1
	Transforming the one-electron integrals and constructing Fock matrices
	Starting AA/AB first half-transformation.
	Sorting AA/AB half-transformed integrals.
	Starting BB first half-transformation.
	Sorting BB half-transformed integrals.
	First half integral transformation complete.
	Starting AA second half-transformation.
	Starting AB second half-transformation.
	Starting BB second half-transformation.
	Two-electron integral transformation complete.
	(OO|OV)...
	Starting AA second half-transformation.
	Starting AB second half-transformation.
	Starting BB second half-transformation.
	Two-electron integral transformation complete.
	(OO|VV)...
	Starting AA second half-transformation.
	Starting AB second half-transformation.
	Starting BB second half-transformation.
	Two-electron integral transformation complete.
	(OV|OO)...
	Starting AA/AB first half-transformation.
	Sorting AA/AB half-transformed integrals.
	Starting BB first half-transformation.
	Sorting BB half-transformed integrals.
	First half integral transformation complete.
	Starting AA second half-transformation.
	Starting AB second half-transformation.
	Starting BB second half-transformation.
	Two-electron integral transformation complete.
	(OV|OV)...
	Starting AA second half-transformation.
	Starting AB second half-transformation.
	Starting BB second half-transformation.
	Two-electron integral transformation complete.
	(OV|VV)...
	Starting AA second half-transformation.
	Starting AB second half-transformation.
	Starting BB second half-transformation.
	Two-electron integral transformation complete.
	(VV|OO)...
	Starting AA/AB first half-transformation.
	Sorting AA/AB half-transformed integrals.
	Starting BB first half-transformation.
	Sorting BB half-transformed integrals.
	First half integral transformation complete.
	Starting AA second half-transformation.
	Starting AB second half-transformation.
	Starting BB second half-transformation.
	Two-electron integral transformation complete.
	(VV|OV)...
	Starting AA second half-transformation.
	Starting AB second half-transformation.
	Starting BB second half-transformation.
	Two-electron integral transformation complete.
	(VV|VV)...
	Starting AA second half-transformation.
	Starting AB second half-transformation.
	Starting BB second half-transformation.
	Two-electron integral transformation complete.
	Frozen core energy     =   -478.90701629876946

	Size of irrep 0 of <AB|CD> integrals:      0.064 (MW) /      0.512 (MB)
	Size of irrep 1 of <AB|CD> integrals:      0.031 (MW) /      0.248 (MB)
	Size of irrep 2 of <AB|CD> integrals:      0.047 (MW) /      0.373 (MB)
	Size of irrep 3 of <AB|CD> integrals:      0.047 (MW) /      0.373 (MB)
	Total:                                     0.188 (MW) /      1.506 (MB)

	Size of irrep 0 of <ab|cd> integrals:      0.073 (MW) /      0.588 (MB)
	Size of irrep 1 of <ab|cd> integrals:      0.038 (MW) /      0.304 (MB)
	Size of irrep 2 of <ab|cd> integrals:      0.058 (MW) /      0.461 (MB)
	Size of irrep 3 of <ab|cd> integrals:      0.058 (MW) /      0.461 (MB)
	Total:                                     0.227 (MW) /      1.813 (MB)

	Size of irrep 0 of <Ab|Cd> integrals:      0.320 (MW) /      2.563 (MB)
	Size of irrep 1 of <Ab|Cd> integrals:      0.137 (MW) /      1.095 (MB)
	Size of irrep 2 of <Ab|Cd> integrals:      0.208 (MW) /      1.663 (MB)
	Size of irrep 3 of <Ab|Cd> integrals:      0.208 (MW) /      1.663 (MB)
	Total:                                     0.873 (MW) /      6.985 (MB)

	Size of irrep 0 of <IA|BC> integrals:      0.051 (MW) /      0.408 (MB)
	Size of irrep 1 of <IA|BC> integrals:      0.018 (MW) /      0.144 (MB)
	Size of irrep 2 of <IA|BC> integrals:      0.032 (MW) /      0.259 (MB)
	Size of irrep 3 of <IA|BC> integrals:      0.032 (MW) /      0.259 (MB)
	Total:                                     0.134 (MW) /      1.070 (MB)

	Size of irrep 0 of <ia|bc> integrals:      0.045 (MW) /      0.361 (MB)
	Size of irrep 1 of <ia|bc> integrals:      0.014 (MW) /      0.109 (MB)
	Size of irrep 2 of <ia|bc> integrals:      0.026 (MW) /      0.207 (MB)
	Size of irrep 3 of <ia|bc> integrals:      0.026 (MW) /      0.207 (MB)
	Total:                                     0.111 (MW) /      0.885 (MB)

	Size of irrep 0 of <Ia|Bc> integrals:      0.055 (MW) /      0.439 (MB)
	Size of irrep 1 of <Ia|Bc> integrals:      0.020 (MW) /      0.163 (MB)
	Size of irrep 2 of <Ia|Bc> integrals:      0.036 (MW) /      0.285 (MB)
	Size of irrep 3 of <Ia|Bc> integrals:      0.036 (MW) /      0.285 (MB)
	Total:                                     0.146 (MW) /      1.171 (MB)

	Size of irrep 0 of <iA|bC> integrals:      0.042 (MW) /      0.340 (MB)
	Size of irrep 1 of <iA|bC> integrals:      0.012 (MW) /      0.098 (MB)
	Size of irrep 2 of <iA|bC> integrals:      0.023 (MW) /      0.186 (MB)
	Size of irrep 3 of <iA|bC> integrals:      0.023 (MW) /      0.186 (MB)
	Total:                                     0.101 (MW) /      0.809 (MB)

	Size of irrep 0 of tIjAb amplitudes:       0.007 (MW) /      0.059 (MB)
	Size of irrep 1 of tIjAb amplitudes:       0.001 (MW) /      0.012 (MB)
	Size of irrep 2 of tIjAb amplitudes:       0.004 (MW) /      0.033 (MB)
	Size of irrep 3 of tIjAb amplitudes:       0.004 (MW) /      0.033 (MB)
	Total:                                     0.017 (MW) /      0.136 (MB)

	Nuclear Rep. energy          =     44.87425008668257
	SCF energy                   =   -472.37133578941325
	One-electron energy          =    -67.67365460124989
	Two-electron (AA) energy     =      8.44509692716050
	Two-electron (BB) energy     =      4.12338045135910
	Two-electron (AB) energy     =     16.76660764540451
	Two-electron energy          =     29.33508502392412
	Reference energy             =   -472.37133578941268

*** tstop() called on cqc05 at Thu Aug 20 19:56:58 2020
Module time:
	user time   =       0.18 seconds =       0.00 minutes
	system time =       0.12 seconds =       0.00 minutes
	total time  =          1 seconds =       0.02 minutes
Total time:
	user time   =       1.63 seconds =       0.03 minutes
	system time =       0.14 seconds =       0.00 minutes
	total time  =          1 seconds =       0.02 minutes

*** tstart() called on cqc05
*** at Thu Aug 20 19:56:58 2020

            **************************
            *                        *
            *        CCENERGY        *
            *                        *
            **************************

    Nuclear Rep. energy (wfn)     =   44.874250086682565
    SCF energy          (wfn)     = -472.371335789413251
    Reference energy    (file100) = -472.371335789412683

    Input parameters:
    -----------------
    Wave function   =     CCSD
    Reference wfn   =     UHF
    Brueckner       =     No
    Memory (Mbytes) =     250000.0
    Maxiter         =     50
    R_Convergence   =     1.0e-07
    E_Convergence   =     1.0e-06
    Restart         =     Yes
    DIIS            =     Yes
    AO Basis        =     NONE
    ABCD            =     NEW
    Cache Level     =     2
    Cache Type      =     LRU
    Print Level     =     1
    Num. of threads =     4
    # Amps to Print =     10
    Print MP2 Amps? =     No
    Analyze T2 Amps =     No
    Print Pair Ener =     No
    Local CC        =     No
    SCS-MP2         =     False
    SCSN-MP2        =     False
    SCS-CCSD        =     False

MP2 correlation energy -0.3154499056574914
                Solving CC Amplitude Equations
                ------------------------------
  Iter             Energy              RMS        T1Diag      D1Diag    New D1Diag    D2Diag
  ----     ---------------------    ---------   ----------  ----------  ----------   --------
     0        -0.315449905657494    0.000e+00    0.000000    0.000000    0.000000    0.000000
     1        -0.313313249515511    9.500e-02    0.021535    0.000000    0.000000    0.000000
     2        -0.325274617848051    3.115e-02    0.022574    0.000000    0.000000    0.000000
     3        -0.328711336343769    1.629e-02    0.027867    0.000000    0.000000    0.000000
     4        -0.328627639321849    4.286e-03    0.029018    0.000000    0.000000    0.000000
     5        -0.328633992556346    1.717e-03    0.029493    0.000000    0.000000    0.000000
     6        -0.328638356525610    6.227e-04    0.029562    0.000000    0.000000    0.000000
     7        -0.328640954569197    2.611e-04    0.029564    0.000000    0.000000    0.000000
     8        -0.328645441714697    1.008e-04    0.029563    0.000000    0.000000    0.000000
     9        -0.328645945213609    3.170e-05    0.029564    0.000000    0.000000    0.000000
    10        -0.328645222123024    1.150e-05    0.029563    0.000000    0.000000    0.000000
    11        -0.328645491507968    4.909e-06    0.029563    0.000000    0.000000    0.000000
    12        -0.328645389008822    2.022e-06    0.029563    0.000000    0.000000    0.000000
    13        -0.328645491167644    8.700e-07    0.029563    0.000000    0.000000    0.000000
    14        -0.328645502938685    2.592e-07    0.029563    0.000000    0.000000    0.000000
    15        -0.328645500670706    9.413e-08    0.029563    0.000000    0.000000    0.000000
    15        -0.328645500670706    9.413e-08    0.029563    0.000000    0.000000    0.000000

    Iterations converged.


    CCSD corr. energy   =   -0.328645500670706
    PPL corr. energy    =    0.072426333368853
    OS PPL corr. energy =    0.054719713180198
    SS PPL corr. energy =    0.017706620188655
    Largest TIA Amplitudes:
              2   2         0.0295266957
              5  35        -0.0290843242
              3  26        -0.0290843068
              5  34        -0.0252902187
              3  25        -0.0252902059
              2   0        -0.0186562121
              2   5        -0.0160245592
              2   3        -0.0137750922
              6  34        -0.0111199402
              4  25        -0.0111199277

    Largest Tia Amplitudes:
              4  41        -0.0202425799
              3  31        -0.0202425447
              4  37         0.0197992357
              3  27         0.0197991412
              1   3        -0.0187519964
              3  24         0.0157128498
              4  34         0.0157122370
              1   2         0.0150137821
              1   5        -0.0133814093
              3  25         0.0121525622

    Largest TIJAB Amplitudes:
      6   4  19   4        -0.0350224080
      6   4  35  26        -0.0211273476
      6   2  35   2         0.0208627770
      4   2  26   2         0.0208627767
      6   4  19   9        -0.0166201043
      6   4  20   4        -0.0166201043
      5   4  19   4         0.0161851261
      6   3  19   4         0.0161851257
      6   4  36  27        -0.0150084469
      6   4  20   9        -0.0145500684

    Largest Tijab Amplitudes:
      4   3  34  24        -0.0880391765
      4   3  34  25        -0.0346004627
      4   3  35  24        -0.0346004597
      3   2  24   3         0.0322819617
      4   2  34   3         0.0322819390
      3   2  24   2        -0.0265625884
      4   2  34   2        -0.0265625694
      4   3  36  24         0.0264871941
      4   3  34  26         0.0264871802
      4   3  37  24         0.0238043425

    Largest TIjAb Amplitudes:
      2   3   2  24        -0.0372843817
      2   4   2  34        -0.0372843594
      4   3  26  24         0.0349154143
      6   4  35  34         0.0349153777
      2   2   2   3         0.0312285093
      2   2   2   2        -0.0292562521
      4   1  19  34         0.0281585724
      6   1   4  34        -0.0281585707
      4   1   4  24         0.0281585595
      6   1  19  24         0.0281585578

    SCF energy       (wfn)                    = -472.371335789413251
    Reference energy (file100)                = -472.371335789412683

    Opposite-spin MP2 correlation energy      =   -0.223302327248465
    Same-spin MP2 correlation energy          =   -0.092147578408991
    MP2 correlation energy                    =   -0.315449905657491
      * MP2 total energy                      = -472.686785695070171

    Opposite-spin CCSD correlation energy     =   -0.245737807664347
    Same-spin CCSD correlation energy         =   -0.082907693615942
    CCSD correlation energy                   =   -0.328645500670706
      * CCSD total energy                     = -472.699981290083372


*** tstop() called on cqc05 at Thu Aug 20 19:57:00 2020
Module time:
	user time   =       0.53 seconds =       0.01 minutes
	system time =       0.31 seconds =       0.01 minutes
	total time  =          2 seconds =       0.03 minutes
Total time:
	user time   =       2.16 seconds =       0.04 minutes
	system time =       0.45 seconds =       0.01 minutes
	total time  =          3 seconds =       0.05 minutes

*** Psi4 exiting successfully. Buy a developer a beer!
