
    -----------------------------------------------------------------------
          Psi4: An Open-Source Ab Initio Electronic Structure Package
                               Psi4 1.2a1.dev938 

                         Git: Rev {HEAD} fc51d9a dirty


    R. M. Parrish, L. A. Burns, D. G. A. Smith, A. C. Simmonett,
    A. E. DePrince III, E. G. Hohenstein, U. Bozkaya, A. Yu. Sokolov,
    R. Di Remigio, R. M. Richard, J. F. Gonthier, A. M. James,
    H. R. McAlexander, A. Kumar, M. Saitow, X. Wang, B. P. Pritchard,
    P. Verma, H. F. Schaefer III, K. Patkowski, R. A. King, E. F. Valeev,
    F. A. Evangelista, J. M. Turney, T. D. Crawford, and C. D. Sherrill,
    J. Chem. Theory Comput. 13(7) pp 3185--3197 (2017).
    (doi: 10.1021/acs.jctc.7b00174)

    -----------------------------------------------------------------------


    Psi4 started on: Thursday, 20 August 2020 07:58PM

    Process ID: 423316
    PSIDATADIR: /home/irmler/Programs/psi4/beforeGrueneis3/stage/usr/local/psi4/share/psi4
    Memory:     500.0 MiB
    Threads:    4
    
  ==> Input File <==

--------------------------------------------------------------------------
# Any line starting with the # character is a comment line
memory 250000 mb
molecule molecule{
0 2
C          0.0000000000        0.0000000000       -0.0861964165
H          0.0000000000        0.0000000000        1.0271495913
}

set {
  reference uhf
  basis aug-cc-pv(t+d)z
  scf_type OUT_OF_CORE
  freeze_core true
}

energy('ccsd')
--------------------------------------------------------------------------

  Memory set to 232.831 GiB by Python driver.

*** tstart() called on cqc05
*** at Thu Aug 20 19:58:21 2020

   => Loading Basis Set <=

    Name: AUG-CC-PV(T+D)Z
    Role: ORBITAL
    Keyword: BASIS
    atoms 1 entry C          line   255 file /home/irmler/Programs/psi4/beforeGrueneis3/stage/usr/local/psi4/share/psi4/basis/aug-cc-pv_tpd_z.gbs 
    atoms 2 entry H          line    56 file /home/irmler/Programs/psi4/beforeGrueneis3/stage/usr/local/psi4/share/psi4/basis/aug-cc-pv_tpd_z.gbs 


         ---------------------------------------------------------
                                   SCF
            by Justin Turney, Rob Parrish, Andy Simmonett
                             and Daniel Smith
                              UHF Reference
                        4 Threads, 238418 MiB Core
         ---------------------------------------------------------

  ==> Geometry <==

    Molecular point group: c2v
    Full point group: C_inf_v

    Geometry (in Angstrom), charge = 0, multiplicity = 2:

       Center              X                  Y                   Z               Mass       
    ------------   -----------------  -----------------  -----------------  -----------------
           C          0.000000000000     0.000000000000    -0.086260229766    12.000000000000
           H          0.000000000000     0.000000000000     1.027085778034     1.007825032070

  Running in c2v symmetry.

  Rotational constants: A = ************  B =     14.62765  C =     14.62765 [cm^-1]
  Rotational constants: A = ************  B = 438525.83400  C = 438525.83400 [MHz]
  Nuclear repulsion =    2.851820754101419

  Charge       = 0
  Multiplicity = 2
  Electrons    = 7
  Nalpha       = 4
  Nbeta        = 3

  ==> Algorithm <==

  SCF Algorithm Type is OUT_OF_CORE.
  DIIS enabled.
  MOM disabled.
  Fractional occupation disabled.
  Guess Type is GWH.
  Energy threshold   = 1.00e-08
  Density threshold  = 1.00e-08
  Integral threshold = 0.00e+00

  ==> Primary Basis <==

  Basis Set: AUG-CC-PV(T+D)Z
    Blend: AUG-CC-PV(T+D)Z
    Number of shells: 23
    Number of basis function: 69
    Number of Cartesian functions: 80
    Spherical Harmonics?: true
    Max angular momentum: 3

  ==> Pre-Iterations <==

   -------------------------------------------------------
    Irrep   Nso     Nmo     Nalpha   Nbeta   Ndocc  Nsocc
   -------------------------------------------------------
     A1        30      30       0       0       0       0
     A2         7       7       0       0       0       0
     B1        16      16       0       0       0       0
     B2        16      16       0       0       0       0
   -------------------------------------------------------
    Total      69      69       4       3       3       1
   -------------------------------------------------------

  ==> Integral Setup <==

  ==> DiskJK: Disk-Based J/K Matrices <==

    J tasked:                  Yes
    K tasked:                  Yes
    wK tasked:                  No
    Memory (MB):            178813
    Schwarz Cutoff:          1E-12

  Minimum eigenvalue in the overlap matrix is 2.0564798068E-04.
  Using Symmetric Orthogonalization.

  SCF Guess: Generalized Wolfsberg-Helmholtz.

  ==> Iterations <==

                        Total Energy        Delta E     RMS |[F,P]|

    Occupation by irrep:
             A1    A2    B1    B2 
    DOCC [     3,    0,    0,    0 ]
    SOCC [     1,    0,    0,    0 ]

   @UHF iter   1:   -35.96486668551836   -3.59649e+01   1.19387e-01 
    Occupation by irrep:
             A1    A2    B1    B2 
    DOCC [     3,    0,    0,    0 ]
    SOCC [     0,    0,    1,    0 ]

   @UHF iter   2:   -37.09324341718001   -1.12838e+00   3.39337e-02 DIIS
   @UHF iter   3:   -38.11420767834843   -1.02096e+00   2.29264e-02 DIIS
   @UHF iter   4:   -38.26406076210301   -1.49853e-01   6.06194e-03 DIIS
   @UHF iter   5:   -38.28182838261500   -1.77676e-02   7.53777e-04 DIIS
   @UHF iter   6:   -38.28219432210113   -3.65939e-04   1.63877e-04 DIIS
   @UHF iter   7:   -38.28221716606858   -2.28440e-05   4.60178e-05 DIIS
   @UHF iter   8:   -38.28221871550125   -1.54943e-06   8.52658e-06 DIIS
   @UHF iter   9:   -38.28221878274736   -6.72461e-08   2.74780e-06 DIIS
   @UHF iter  10:   -38.28221879358843   -1.08411e-08   1.01272e-06 DIIS
   @UHF iter  11:   -38.28221879501066   -1.42223e-09   3.17471e-07 DIIS
   @UHF iter  12:   -38.28221879517824   -1.67582e-10   1.03063e-07 DIIS
   @UHF iter  13:   -38.28221879519350   -1.52625e-11   1.89957e-08 DIIS
   @UHF iter  14:   -38.28221879519398   -4.76064e-13   5.06496e-09 DIIS

  ==> Post-Iterations <==

   @Spin Contamination Metric:   9.634237254E-03
   @S^2 Expected:                7.500000000E-01
   @S^2 Observed:                7.596342373E-01
   @S   Expected:                5.000000000E-01
   @S   Observed:                5.000000000E-01

    Orbital Energies (a.u.)
    -----------------------

    Alpha Occupied:                                                       

       1A1   -11.326416     2A1    -0.881612     3A1    -0.473796  
       1B1    -0.425049  

    Alpha Virtual:                                                        

       1B2     0.019123     4A1     0.029320     2B1     0.094577  
       5A1     0.097704     2B2     0.121667     6A1     0.144122  
       7A1     0.228151     3B1     0.267935     3B2     0.271534  
       1A2     0.301989     8A1     0.302179     9A1     0.367142  
       4B1     0.381070     4B2     0.385849    10A1     0.400976  
       5B1     0.564913    11A1     0.570794     5B2     0.607179  
      12A1     0.670360     2A2     0.874071    13A1     0.874072  
       6B1     0.880233     6B2     0.884255    14A1     0.951727  
       3A2     1.063028    15A1     1.063703     7B1     1.080618  
       7B2     1.082808     8B1     1.084224     8B2     1.089246  
      16A1     1.095662    17A1     1.291347     9B2     1.303500  
       9B1     1.311309     4A2     1.332538    18A1     1.333560  
      19A1     1.540152    10B1     1.747089    10B2     1.753603  
      20A1     2.033660    11B1     2.654085    11B2     2.670439  
      21A1     2.854334    22A1     3.090896    12B1     3.219005  
      12B2     3.220176     5A2     3.353090    23A1     3.353188  
       6A2     3.418142    24A1     3.418267    13B1     3.438372  
      13B2     3.438374    25A1     3.554568    14B2     3.653539  
      14B1     3.661664    26A1     3.802549     7A2     4.165273  
      27A1     4.165408    15B2     4.587724    15B1     4.595204  
      16B2     5.064276    16B1     5.076395    28A1     5.187479  
      29A1     5.463289    30A1    11.591993  

    Beta Occupied:                                                        

       1A1   -11.303480     2A1    -0.787833     3A1    -0.435337  

    Beta Virtual:                                                         

       4A1     0.030491     1B2     0.030962     1B1     0.058301  
       5A1     0.098872     2B2     0.130423     6A1     0.149582  
       2B1     0.162955     7A1     0.232374     3B2     0.272229  
       3B1     0.284157     8A1     0.313298     1A2     0.313309  
       9A1     0.372330     4B2     0.386936     4B1     0.397654  
      10A1     0.409436    11A1     0.580144     5B2     0.618135  
       5B1     0.656602    12A1     0.680985     6B2     0.884660  
      13A1     0.887468     2A2     0.887478     6B1     0.901551  
      14A1     0.967594    15A1     1.089714     7B2     1.090500  
       7B1     1.099081     8B2     1.100440     3A2     1.105446  
       8B1     1.118383    16A1     1.122897    17A1     1.294651  
       9B2     1.303980     9B1     1.323790     4A2     1.345733  
      18A1     1.348148    19A1     1.555192    10B2     1.758248  
      10B1     1.788764    20A1     2.048450    11B2     2.681356  
      11B1     2.730657    21A1     2.862471    22A1     3.105716  
      12B2     3.227772    12B1     3.266988    23A1     3.379985  
       5A2     3.380475    24A1     3.473051     6A2     3.476318  
      13B2     3.478458    13B1     3.478563    25A1     3.579818  
      14B2     3.658685    14B1     3.699877    26A1     3.812239  
       7A2     4.174410    27A1     4.175217    15B2     4.585830  
      15B1     4.598085    16B2     5.066821    16B1     5.094654  
      28A1     5.194287    29A1     5.468734    30A1    11.608394  

    Final Occupation by Irrep:
             A1    A2    B1    B2 
    DOCC [     3,    0,    0,    0 ]
    SOCC [     0,    0,    1,    0 ]

  Energy converged.

  @UHF Final Energy:   -38.28221879519398

   => Energetics <=

    Nuclear Repulsion Energy =              2.8518207541014187
    One-Electron Energy =                 -56.6345570468870534
    Two-Electron Energy =                  15.5005174975916589
    PCM Polarization Energy =               0.0000000000000000
    Total Energy =                        -38.2822187951939767

    Alert: EFP and PCM quantities not currently incorporated into SCF psivars.
  UHF NO Occupations:
  HONO-2 :    2 A1 1.9994649
  HONO-1 :    3 A1 1.9957101
  HONO-0 :    1 B1 1.0000000
  LUNO+0 :    4 A1 0.0042899
  LUNO+1 :    5 A1 0.0005351
  LUNO+2 :    6 A1 0.0000014
  LUNO+3 :    7 A1 0.0000000



Properties will be evaluated at   0.000000,   0.000000,   0.000000 Bohr

Properties computed using the SCF density matrix

  Nuclear Dipole Moment: (a.u.)
     X:     0.0000      Y:     0.0000      Z:     0.9629

  Electronic Dipole Moment: (a.u.)
     X:     0.0000      Y:     0.0000      Z:    -0.3351

  Dipole Moment: (a.u.)
     X:     0.0000      Y:     0.0000      Z:     0.6278     Total:     0.6278

  Dipole Moment: (Debye)
     X:     0.0000      Y:     0.0000      Z:     1.5957     Total:     1.5957


*** tstop() called on cqc05 at Thu Aug 20 19:58:21 2020
Module time:
	user time   =       1.11 seconds =       0.02 minutes
	system time =       0.03 seconds =       0.00 minutes
	total time  =          0 seconds =       0.00 minutes
Total time:
	user time   =       1.11 seconds =       0.02 minutes
	system time =       0.03 seconds =       0.00 minutes
	total time  =          0 seconds =       0.00 minutes

*** tstart() called on cqc05
*** at Thu Aug 20 19:58:21 2020


	Wfn Parameters:
	--------------------
	Wavefunction         = CCSD
	Number of irreps     = 4
	Number of MOs        = 69
	Number of active MOs = 68
	AO-Basis             = NONE
	Semicanonical        = false
	Reference            = UHF
	Print Level          = 1

	IRREP	# MOs	# FZDC	# DOCC	# SOCC	# VIRT	# FZVR
	-----	-----	------	------	------	------	------
	 A1	   30	    1	    2	    0	    27	    0
	 A2	   7	    0	    0	    0	    7	    0
	 B1	   16	    0	    0	    1	    15	    0
	 B2	   16	    0	    0	    0	    16	    0
	Transforming integrals...
	IWL integrals will be deleted.
	(OO|OO)...
	Presorting SO-basis two-electron integrals.
	Sorting File: SO Ints (nn|nn) nbuckets = 1
	Transforming the one-electron integrals and constructing Fock matrices
	Starting AA/AB first half-transformation.
	Sorting AA/AB half-transformed integrals.
	Starting BB first half-transformation.
	Sorting BB half-transformed integrals.
	First half integral transformation complete.
	Starting AA second half-transformation.
	Starting AB second half-transformation.
	Starting BB second half-transformation.
	Two-electron integral transformation complete.
	(OO|OV)...
	Starting AA second half-transformation.
	Starting AB second half-transformation.
	Starting BB second half-transformation.
	Two-electron integral transformation complete.
	(OO|VV)...
	Starting AA second half-transformation.
	Starting AB second half-transformation.
	Starting BB second half-transformation.
	Two-electron integral transformation complete.
	(OV|OO)...
	Starting AA/AB first half-transformation.
	Sorting AA/AB half-transformed integrals.
	Starting BB first half-transformation.
	Sorting BB half-transformed integrals.
	First half integral transformation complete.
	Starting AA second half-transformation.
	Starting AB second half-transformation.
	Starting BB second half-transformation.
	Two-electron integral transformation complete.
	(OV|OV)...
	Starting AA second half-transformation.
	Starting AB second half-transformation.
	Starting BB second half-transformation.
	Two-electron integral transformation complete.
	(OV|VV)...
	Starting AA second half-transformation.
	Starting AB second half-transformation.
	Starting BB second half-transformation.
	Two-electron integral transformation complete.
	(VV|OO)...
	Starting AA/AB first half-transformation.
	Sorting AA/AB half-transformed integrals.
	Starting BB first half-transformation.
	Sorting BB half-transformed integrals.
	First half integral transformation complete.
	Starting AA second half-transformation.
	Starting AB second half-transformation.
	Starting BB second half-transformation.
	Two-electron integral transformation complete.
	(VV|OV)...
	Starting AA second half-transformation.
	Starting AB second half-transformation.
	Starting BB second half-transformation.
	Two-electron integral transformation complete.
	(VV|VV)...
	Starting AA second half-transformation.
	Starting AB second half-transformation.
	Starting BB second half-transformation.
	Two-electron integral transformation complete.
	Frozen core energy     =    -33.30997763806099

	Size of irrep 0 of <AB|CD> integrals:      0.356 (MW) /      2.851 (MB)
	Size of irrep 1 of <AB|CD> integrals:      0.184 (MW) /      1.472 (MB)
	Size of irrep 2 of <AB|CD> integrals:      0.267 (MW) /      2.138 (MB)
	Size of irrep 3 of <AB|CD> integrals:      0.288 (MW) /      2.307 (MB)
	Total:                                     1.096 (MW) /      8.769 (MB)

	Size of irrep 0 of <ab|cd> integrals:      0.375 (MW) /      2.996 (MB)
	Size of irrep 1 of <ab|cd> integrals:      0.198 (MW) /      1.584 (MB)
	Size of irrep 2 of <ab|cd> integrals:      0.296 (MW) /      2.367 (MB)
	Size of irrep 3 of <ab|cd> integrals:      0.296 (MW) /      2.367 (MB)
	Total:                                     1.164 (MW) /      9.316 (MB)

	Size of irrep 0 of <Ab|Cd> integrals:      1.623 (MW) /     12.985 (MB)
	Size of irrep 1 of <Ab|Cd> integrals:      0.764 (MW) /      6.111 (MB)
	Size of irrep 2 of <Ab|Cd> integrals:      1.126 (MW) /      9.006 (MB)
	Size of irrep 3 of <Ab|Cd> integrals:      1.169 (MW) /      9.348 (MB)
	Total:                                     4.681 (MW) /     37.450 (MB)

	Size of irrep 0 of <IA|BC> integrals:      0.087 (MW) /      0.695 (MB)
	Size of irrep 1 of <IA|BC> integrals:      0.026 (MW) /      0.206 (MB)
	Size of irrep 2 of <IA|BC> integrals:      0.059 (MW) /      0.472 (MB)
	Size of irrep 3 of <IA|BC> integrals:      0.042 (MW) /      0.335 (MB)
	Total:                                     0.213 (MW) /      1.707 (MB)

	Size of irrep 0 of <ia|bc> integrals:      0.070 (MW) /      0.557 (MB)
	Size of irrep 1 of <ia|bc> integrals:      0.012 (MW) /      0.100 (MB)
	Size of irrep 2 of <ia|bc> integrals:      0.035 (MW) /      0.279 (MB)
	Size of irrep 3 of <ia|bc> integrals:      0.035 (MW) /      0.279 (MB)
	Total:                                     0.152 (MW) /      1.214 (MB)

	Size of irrep 0 of <Ia|Bc> integrals:      0.089 (MW) /      0.713 (MB)
	Size of irrep 1 of <Ia|Bc> integrals:      0.026 (MW) /      0.210 (MB)
	Size of irrep 2 of <Ia|Bc> integrals:      0.063 (MW) /      0.501 (MB)
	Size of irrep 3 of <Ia|Bc> integrals:      0.042 (MW) /      0.337 (MB)
	Total:                                     0.220 (MW) /      1.761 (MB)

	Size of irrep 0 of <iA|bC> integrals:      0.069 (MW) /      0.550 (MB)
	Size of irrep 1 of <iA|bC> integrals:      0.012 (MW) /      0.098 (MB)
	Size of irrep 2 of <iA|bC> integrals:      0.032 (MW) /      0.255 (MB)
	Size of irrep 3 of <iA|bC> integrals:      0.035 (MW) /      0.277 (MB)
	Total:                                     0.147 (MW) /      1.180 (MB)

	Size of irrep 0 of tIjAb amplitudes:       0.005 (MW) /      0.041 (MB)
	Size of irrep 1 of tIjAb amplitudes:       0.000 (MW) /      0.000 (MB)
	Size of irrep 2 of tIjAb amplitudes:       0.002 (MW) /      0.017 (MB)
	Size of irrep 3 of tIjAb amplitudes:       0.000 (MW) /      0.000 (MB)
	Total:                                     0.007 (MW) /      0.058 (MB)

	Nuclear Rep. energy          =      2.85182075410142
	SCF energy                   =    -38.28221879519398
	One-electron energy          =    -12.64449690964517
	Two-electron (AA) energy     =      1.28992968636250
	Two-electron (BB) energy     =      0.38669095760416
	Two-electron (AB) energy     =      3.14381435444417
	Two-electron energy          =      4.82043499841082
	Reference energy             =    -38.28221879519391

*** tstop() called on cqc05 at Thu Aug 20 19:58:22 2020
Module time:
	user time   =       0.42 seconds =       0.01 minutes
	system time =       0.28 seconds =       0.00 minutes
	total time  =          1 seconds =       0.02 minutes
Total time:
	user time   =       1.53 seconds =       0.03 minutes
	system time =       0.31 seconds =       0.01 minutes
	total time  =          1 seconds =       0.02 minutes

*** tstart() called on cqc05
*** at Thu Aug 20 19:58:22 2020

            **************************
            *                        *
            *        CCENERGY        *
            *                        *
            **************************

    Nuclear Rep. energy (wfn)     =    2.851820754101419
    SCF energy          (wfn)     =  -38.282218795193977
    Reference energy    (file100) =  -38.282218795193913

    Input parameters:
    -----------------
    Wave function   =     CCSD
    Reference wfn   =     UHF
    Brueckner       =     No
    Memory (Mbytes) =     250000.0
    Maxiter         =     50
    R_Convergence   =     1.0e-07
    E_Convergence   =     1.0e-06
    Restart         =     Yes
    DIIS            =     Yes
    AO Basis        =     NONE
    ABCD            =     NEW
    Cache Level     =     2
    Cache Type      =     LRU
    Print Level     =     1
    Num. of threads =     4
    # Amps to Print =     10
    Print MP2 Amps? =     No
    Analyze T2 Amps =     No
    Print Pair Ener =     No
    Local CC        =     No
    SCS-MP2         =     False
    SCSN-MP2        =     False
    SCS-CCSD        =     False

MP2 correlation energy -0.1027814258877118
                Solving CC Amplitude Equations
                ------------------------------
  Iter             Energy              RMS        T1Diag      D1Diag    New D1Diag    D2Diag
  ----     ---------------------    ---------   ----------  ----------  ----------   --------
     0        -0.102781425887712    0.000e+00    0.000000    0.000000    0.000000    0.000000
     1        -0.118699708907119    5.051e-02    0.008450    0.000000    0.000000    0.000000
     2        -0.126235303942015    2.408e-02    0.014686    0.000000    0.000000    0.000000
     3        -0.126981132726874    8.306e-03    0.016956    0.000000    0.000000    0.000000
     4        -0.127055521072108    2.920e-03    0.017166    0.000000    0.000000    0.000000
     5        -0.127070201971490    1.349e-03    0.017099    0.000000    0.000000    0.000000
     6        -0.127072522136319    5.002e-04    0.017010    0.000000    0.000000    0.000000
     7        -0.127077400683718    1.601e-04    0.016987    0.000000    0.000000    0.000000
     8        -0.127077012239837    4.783e-05    0.016986    0.000000    0.000000    0.000000
     9        -0.127076333982349    1.509e-05    0.016987    0.000000    0.000000    0.000000
    10        -0.127076381746107    5.334e-06    0.016987    0.000000    0.000000    0.000000
    11        -0.127076370834187    2.042e-06    0.016987    0.000000    0.000000    0.000000
    12        -0.127076400209665    7.888e-07    0.016987    0.000000    0.000000    0.000000
    13        -0.127076397023814    2.730e-07    0.016987    0.000000    0.000000    0.000000
    14        -0.127076393792940    1.016e-07    0.016987    0.000000    0.000000    0.000000
    15        -0.127076393098925    4.116e-08    0.016987    0.000000    0.000000    0.000000
    15        -0.127076393098925    4.116e-08    0.016987    0.000000    0.000000    0.000000

    Iterations converged.


    CCSD corr. energy   =   -0.127076393098925
    PPL corr. energy    =    0.038484948916191
    OS PPL corr. energy =    0.035503879284918
    SS PPL corr. energy =    0.002981069631274
    Largest TIA Amplitudes:
              2  34        -0.0110558291
              2  35        -0.0097938337
              1  11         0.0089402294
              1   4         0.0088715910
              0  11        -0.0078896055
              0   4        -0.0070028803
              2  37        -0.0048455898
              0   9         0.0045889757
              1   7        -0.0038689902
              1   9        -0.0036154268

    Largest Tia Amplitudes:
              0   6        -0.0099211273
              0   3         0.0097228272
              1   7        -0.0096400935
              0   8         0.0094812129
              1   3        -0.0086715697
              1   6         0.0072894445
              1   5         0.0060939938
              1   2         0.0059770451
              1  15         0.0053990517
              0  10        -0.0050780274

    Largest TIJAB Amplitudes:
      2   1  37   8        -0.0171105468
      2   1  35   8        -0.0152968486
      2   1  35   3        -0.0148919303
      2   1  37   7         0.0144442689
      2   1  38   8        -0.0138943076
      2   1  37   3        -0.0135793846
      2   1  39   8        -0.0107870039
      2   1  37   1         0.0106143834
      2   1  38   3        -0.0104517789
      2   0  37  10         0.0100181854

    Largest Tijab Amplitudes:
      1   0  39  35         0.0090280223
      1   0  41  35         0.0083735181
      1   0  55  50         0.0082224746
      1   0  36  35         0.0080212486
      1   0  52  50         0.0072358846
      1   0  55  51         0.0069436213
      1   0   7   6        -0.0069242425
      1   0  39  34         0.0066078067
      1   0  56  50         0.0060970341
      1   0  36  34         0.0060710966

    Largest TIjAb Amplitudes:
      1   1  49  50        -0.0980541619
      1   1  49  51        -0.0757338485
      1   1  50  50        -0.0624818029
      1   1   8   8        -0.0538482687
      0   0  49  50        -0.0525885461
      1   1  50  51        -0.0489697934
      0   0  49  51        -0.0455506433
      0   1  49  50         0.0428958180
      0   0  50  50        -0.0374050723
      1   1   3   8        -0.0369020007

    SCF energy       (wfn)                    =  -38.282218795193977
    Reference energy (file100)                =  -38.282218795193913

    Opposite-spin MP2 correlation energy      =   -0.087808802316242
    Same-spin MP2 correlation energy          =   -0.014972623571455
    MP2 correlation energy                    =   -0.102781425887712
      * MP2 total energy                      =  -38.385000221081626

    Opposite-spin CCSD correlation energy     =   -0.111325435020367
    Same-spin CCSD correlation energy         =   -0.015750956865640
    CCSD correlation energy                   =   -0.127076393098925
      * CCSD total energy                     =  -38.409295188292838


*** tstop() called on cqc05 at Thu Aug 20 19:58:24 2020
Module time:
	user time   =       0.55 seconds =       0.01 minutes
	system time =       0.32 seconds =       0.01 minutes
	total time  =          2 seconds =       0.03 minutes
Total time:
	user time   =       2.08 seconds =       0.03 minutes
	system time =       0.63 seconds =       0.01 minutes
	total time  =          3 seconds =       0.05 minutes

*** Psi4 exiting successfully. Buy a developer a beer!
