
    -----------------------------------------------------------------------
          Psi4: An Open-Source Ab Initio Electronic Structure Package
                               Psi4 1.2a1.dev938 

                         Git: Rev {HEAD} fc51d9a dirty


    R. M. Parrish, L. A. Burns, D. G. A. Smith, A. C. Simmonett,
    A. E. DePrince III, E. G. Hohenstein, U. Bozkaya, A. Yu. Sokolov,
    R. Di Remigio, R. M. Richard, J. F. Gonthier, A. M. James,
    H. R. McAlexander, A. Kumar, M. Saitow, X. Wang, B. P. Pritchard,
    P. Verma, H. F. Schaefer III, K. Patkowski, R. A. King, E. F. Valeev,
    F. A. Evangelista, J. M. Turney, T. D. Crawford, and C. D. Sherrill,
    J. Chem. Theory Comput. 13(7) pp 3185--3197 (2017).
    (doi: 10.1021/acs.jctc.7b00174)

    -----------------------------------------------------------------------


    Psi4 started on: Thursday, 20 August 2020 08:20PM

    Process ID: 424378
    PSIDATADIR: /home/irmler/Programs/psi4/beforeGrueneis3/stage/usr/local/psi4/share/psi4
    Memory:     500.0 MiB
    Threads:    4
    
  ==> Input File <==

--------------------------------------------------------------------------
# Any line starting with the # character is a comment line
memory 250000 mb
molecule molecule{
0 2
C          0.0000000000        0.0000000000       -0.0861964165
H          0.0000000000        0.0000000000        1.0271495913
}

set {
  reference uhf
  basis aug-cc-pv(q+d)z
  scf_type OUT_OF_CORE
  freeze_core true
}

energy('ccsd')
--------------------------------------------------------------------------

  Memory set to 232.831 GiB by Python driver.

*** tstart() called on cqc05
*** at Thu Aug 20 20:20:04 2020

   => Loading Basis Set <=

    Name: AUG-CC-PV(Q+D)Z
    Role: ORBITAL
    Keyword: BASIS
    atoms 1 entry C          line   319 file /home/irmler/Programs/psi4/beforeGrueneis3/stage/usr/local/psi4/share/psi4/basis/aug-cc-pv_qpd_z.gbs 
    atoms 2 entry H          line    56 file /home/irmler/Programs/psi4/beforeGrueneis3/stage/usr/local/psi4/share/psi4/basis/aug-cc-pv_qpd_z.gbs 


         ---------------------------------------------------------
                                   SCF
            by Justin Turney, Rob Parrish, Andy Simmonett
                             and Daniel Smith
                              UHF Reference
                        4 Threads, 238418 MiB Core
         ---------------------------------------------------------

  ==> Geometry <==

    Molecular point group: c2v
    Full point group: C_inf_v

    Geometry (in Angstrom), charge = 0, multiplicity = 2:

       Center              X                  Y                   Z               Mass       
    ------------   -----------------  -----------------  -----------------  -----------------
           C          0.000000000000     0.000000000000    -0.086260229766    12.000000000000
           H          0.000000000000     0.000000000000     1.027085778034     1.007825032070

  Running in c2v symmetry.

  Rotational constants: A = ************  B =     14.62765  C =     14.62765 [cm^-1]
  Rotational constants: A = ************  B = 438525.83400  C = 438525.83400 [MHz]
  Nuclear repulsion =    2.851820754101419

  Charge       = 0
  Multiplicity = 2
  Electrons    = 7
  Nalpha       = 4
  Nbeta        = 3

  ==> Algorithm <==

  SCF Algorithm Type is OUT_OF_CORE.
  DIIS enabled.
  MOM disabled.
  Fractional occupation disabled.
  Guess Type is GWH.
  Energy threshold   = 1.00e-08
  Density threshold  = 1.00e-08
  Integral threshold = 0.00e+00

  ==> Primary Basis <==

  Basis Set: AUG-CC-PV(Q+D)Z
    Blend: AUG-CC-PV(Q+D)Z
    Number of shells: 34
    Number of basis function: 126
    Number of Cartesian functions: 160
    Spherical Harmonics?: true
    Max angular momentum: 4

  ==> Pre-Iterations <==

   -------------------------------------------------------
    Irrep   Nso     Nmo     Nalpha   Nbeta   Ndocc  Nsocc
   -------------------------------------------------------
     A1        50      50       0       0       0       0
     A2        16      16       0       0       0       0
     B1        30      30       0       0       0       0
     B2        30      30       0       0       0       0
   -------------------------------------------------------
    Total     126     126       4       3       3       1
   -------------------------------------------------------

  ==> Integral Setup <==

  ==> DiskJK: Disk-Based J/K Matrices <==

    J tasked:                  Yes
    K tasked:                  Yes
    wK tasked:                  No
    Memory (MB):            178813
    Schwarz Cutoff:          1E-12

  Minimum eigenvalue in the overlap matrix is 6.5196245899E-05.
  Using Symmetric Orthogonalization.

  SCF Guess: Generalized Wolfsberg-Helmholtz.

  ==> Iterations <==

                        Total Energy        Delta E     RMS |[F,P]|

    Occupation by irrep:
             A1    A2    B1    B2 
    DOCC [     3,    0,    0,    0 ]
    SOCC [     1,    0,    0,    0 ]

   @UHF iter   1:   -33.87240716830400   -3.38724e+01   1.19462e-01 
    Occupation by irrep:
             A1    A2    B1    B2 
    DOCC [     3,    0,    0,    0 ]
    SOCC [     0,    0,    1,    0 ]

   @UHF iter   2:   -37.02010187372696   -3.14769e+00   2.58225e-02 DIIS
   @UHF iter   3:   -38.08751947483724   -1.06742e+00   1.48862e-02 DIIS
   @UHF iter   4:   -38.26975850143222   -1.82239e-01   3.34984e-03 DIIS
   @UHF iter   5:   -38.28372449382552   -1.39660e-02   3.92603e-04 DIIS
   @UHF iter   6:   -38.28403034699291   -3.05853e-04   1.01895e-04 DIIS
   @UHF iter   7:   -38.28405328977225   -2.29428e-05   2.35202e-05 DIIS
   @UHF iter   8:   -38.28405441914805   -1.12938e-06   3.47156e-06 DIIS
   @UHF iter   9:   -38.28405444483555   -2.56875e-08   8.31177e-07 DIIS
   @UHF iter  10:   -38.28405444679210   -1.95654e-09   2.73677e-07 DIIS
   @UHF iter  11:   -38.28405444706762   -2.75527e-10   9.48939e-08 DIIS
   @UHF iter  12:   -38.28405444709688   -2.92530e-11   3.34929e-08 DIIS
   @UHF iter  13:   -38.28405444710118   -4.29878e-12   1.07340e-08 DIIS
   @UHF iter  14:   -38.28405444710173   -5.54223e-13   2.97038e-09 DIIS

  ==> Post-Iterations <==

   @Spin Contamination Metric:   9.696738462E-03
   @S^2 Expected:                7.500000000E-01
   @S^2 Observed:                7.596967385E-01
   @S   Expected:                5.000000000E-01
   @S   Observed:                5.000000000E-01

    Orbital Energies (a.u.)
    -----------------------

    Alpha Occupied:                                                       

       1A1   -11.325432     2A1    -0.881288     3A1    -0.473855  
       1B1    -0.425327  

    Alpha Virtual:                                                        

       1B2     0.018451     4A1     0.026233     2B1     0.080717  
       5A1     0.083140     2B2     0.103786     6A1     0.127388  
       7A1     0.194515     3B1     0.218244     3B2     0.219351  
       1A2     0.233401     8A1     0.233605     9A1     0.283688  
       4B1     0.288884     4B2     0.294317    10A1     0.340913  
      11A1     0.426866     5B1     0.447753     5B2     0.484200  
      12A1     0.552160     6B1     0.627950     6B2     0.631064  
       2A2     0.660872    13A1     0.660872    14A1     0.743679  
       7B1     0.755942     7B2     0.755960    15A1     0.773866  
       3A2     0.780430    16A1     0.782000     8B1     0.834263  
       8B2     0.835488    17A1     0.892311     4A2     0.920863  
       9B2     0.921071    18A1     0.922015     9B1     0.925656  
      19A1     1.084011    10B1     1.262413    10B2     1.276487  
      20A1     1.443849    11B1     1.661165    11B2     1.661232  
      12B1     1.680045    12B2     1.687708    21A1     1.704418  
      22A1     1.918332     5A2     1.932115    23A1     1.933100  
      13B2     1.972668    13B1     1.973881    24A1     2.118654  
       6A2     2.119191    25A1     2.119288     7A2     2.132271  
      26A1     2.132599    14B1     2.178135    14B2     2.181839  
       8A2     2.258833    27A1     2.259143    15B2     2.269130  
      15B1     2.269141    28A1     2.294152    16B2     2.378225  
      16B1     2.391488    29A1     2.411900    17B2     2.413793  
      17B1     2.414061     9A2     2.420992    30A1     2.429289  
      18B2     2.654155    18B1     2.661282    31A1     2.923826  
      32A1     3.228350    19B2     3.484076    19B1     3.496227  
      10A2     3.547016    33A1     3.547343    34A1     3.998667  
      20B2     4.130235    20B1     4.140462    35A1     4.154058  
      36A1     5.858993    11A2     5.860451    21B2     5.861364  
      21B1     5.869424    22B2     5.901118    22B1     5.901249  
      37A1     5.927822    12A2     5.927857    38A1     5.961994  
      23B2     6.210075    23B1     6.222882    24B2     6.243276  
      24B1     6.262155    39A1     6.379170    13A2     6.379468  
      25B2     6.471235    25B1     6.471260    40A1     6.483171  
      14A2     6.574358    41A1     6.576369    42A1     6.732046  
      26B2     6.783442    26B1     6.783443    43A1     7.238484  
      27B2     7.318303    27B1     7.332752    15A2     7.679564  
      44A1     7.679620    28B2     8.241959    28B1     8.250400  
      45A1     8.311004    46A1     8.941870    16A2     8.941946  
      47A1     9.152817    29B2     9.330971    29B1     9.340512  
      30B2    10.004430    30B1    10.019275    48A1    10.375483  
      49A1    12.122947    50A1    23.145435  

    Beta Occupied:                                                        

       1A1   -11.302303     2A1    -0.787516     3A1    -0.435455  

    Beta Virtual:                                                         

       4A1     0.027253     1B2     0.029583     1B1     0.053895  
       5A1     0.084013     2B2     0.111962     6A1     0.131783  
       2B1     0.143187     7A1     0.197032     3B2     0.219669  
       3B1     0.228709     1A2     0.239419     8A1     0.240010  
       9A1     0.285138     4B2     0.295766     4B1     0.304008  
      10A1     0.349842    11A1     0.432730     5B2     0.493367  
       5B1     0.526290    12A1     0.562735     6B2     0.631140  
       6B1     0.644705     2A2     0.671198    13A1     0.671686  
      14A1     0.754882     7B2     0.764324     7B1     0.764365  
      15A1     0.779313     3A2     0.804279    16A1     0.808904  
       8B2     0.835841     8B1     0.854616    17A1     0.895169  
       9B2     0.922463     4A2     0.933822    18A1     0.935259  
       9B1     0.938607    19A1     1.093969    10B2     1.280633  
      10B1     1.304807    20A1     1.452823    11B2     1.665676  
      11B1     1.665803    12B2     1.692895    21A1     1.707547  
      12B1     1.720977    22A1     1.923831     5A2     1.936978  
      23A1     1.937965    13B2     1.978138    13B1     2.012297  
      24A1     2.133003     6A2     2.133031    25A1     2.135883  
       7A2     2.157744    26A1     2.158412    14B2     2.187365  
      14B1     2.219369    27A1     2.289531    15B2     2.295154  
      15B1     2.295403     8A2     2.300077    28A1     2.319517  
      16B2     2.379226    16B1     2.405614    29A1     2.413824  
      17B2     2.425373    17B1     2.425730     9A2     2.434585  
      30A1     2.450940    18B2     2.655861    18B1     2.680935  
      31A1     2.939087    32A1     3.236425    19B2     3.484416  
      19B1     3.504335    10A2     3.555489    33A1     3.556367  
      34A1     4.004046    20B2     4.134032    35A1     4.164097  
      20B1     4.164566    21B2     5.868691    36A1     5.870933  
      11A2     5.874714    21B1     5.909401    22B2     5.918746  
      22B1     5.926367    37A1     5.954454    12A2     5.954720  
      38A1     5.975353    23B2     6.215688    24B2     6.247990  
      23B1     6.252574    24B1     6.292149    39A1     6.415857  
      13A2     6.417480    40A1     6.497898    25B2     6.510956  
      25B1     6.511268    14A2     6.604849    41A1     6.612605  
      42A1     6.742536    26B2     6.788418    26B1     6.788424  
      43A1     7.243188    27B2     7.324827    27B1     7.366210  
      15A2     7.686240    44A1     7.686486    28B2     8.240985  
      28B1     8.253717    45A1     8.312753    46A1     8.942407  
      16A2     8.942519    47A1     9.156244    29B2     9.330185  
      29B1     9.343330    30B2    10.005959    30B1    10.029874  
      48A1    10.377456    49A1    12.125390    50A1    23.160342  

    Final Occupation by Irrep:
             A1    A2    B1    B2 
    DOCC [     3,    0,    0,    0 ]
    SOCC [     0,    0,    1,    0 ]

  Energy converged.

  @UHF Final Energy:   -38.28405444710173

   => Energetics <=

    Nuclear Repulsion Energy =              2.8518207541014187
    One-Electron Energy =                 -56.6405736447323065
    Two-Electron Energy =                  15.5046984435291577
    PCM Polarization Energy =               0.0000000000000000
    Total Energy =                        -38.2840544471017310

    Alert: EFP and PCM quantities not currently incorporated into SCF psivars.
  UHF NO Occupations:
  HONO-2 :    2 A1 1.9994645
  HONO-1 :    3 A1 1.9956794
  HONO-0 :    1 B1 1.0000000
  LUNO+0 :    4 A1 0.0043206
  LUNO+1 :    5 A1 0.0005355
  LUNO+2 :    6 A1 0.0000017
  LUNO+3 :    7 A1 0.0000000



Properties will be evaluated at   0.000000,   0.000000,   0.000000 Bohr

Properties computed using the SCF density matrix

  Nuclear Dipole Moment: (a.u.)
     X:     0.0000      Y:     0.0000      Z:     0.9629

  Electronic Dipole Moment: (a.u.)
     X:     0.0000      Y:     0.0000      Z:    -0.3364

  Dipole Moment: (a.u.)
     X:     0.0000      Y:     0.0000      Z:     0.6265     Total:     0.6265

  Dipole Moment: (Debye)
     X:     0.0000      Y:     0.0000      Z:     1.5924     Total:     1.5924


*** tstop() called on cqc05 at Thu Aug 20 20:20:10 2020
Module time:
	user time   =       5.35 seconds =       0.09 minutes
	system time =       0.31 seconds =       0.01 minutes
	total time  =          6 seconds =       0.10 minutes
Total time:
	user time   =       5.35 seconds =       0.09 minutes
	system time =       0.31 seconds =       0.01 minutes
	total time  =          6 seconds =       0.10 minutes

*** tstart() called on cqc05
*** at Thu Aug 20 20:20:10 2020


	Wfn Parameters:
	--------------------
	Wavefunction         = CCSD
	Number of irreps     = 4
	Number of MOs        = 126
	Number of active MOs = 125
	AO-Basis             = NONE
	Semicanonical        = false
	Reference            = UHF
	Print Level          = 1

	IRREP	# MOs	# FZDC	# DOCC	# SOCC	# VIRT	# FZVR
	-----	-----	------	------	------	------	------
	 A1	   50	    1	    2	    0	    47	    0
	 A2	   16	    0	    0	    0	    16	    0
	 B1	   30	    0	    0	    1	    29	    0
	 B2	   30	    0	    0	    0	    30	    0
	Transforming integrals...
	IWL integrals will be deleted.
	(OO|OO)...
	Presorting SO-basis two-electron integrals.
	Sorting File: SO Ints (nn|nn) nbuckets = 1
	Transforming the one-electron integrals and constructing Fock matrices
	Starting AA/AB first half-transformation.
	Sorting AA/AB half-transformed integrals.
	Starting BB first half-transformation.
	Sorting BB half-transformed integrals.
	First half integral transformation complete.
	Starting AA second half-transformation.
	Starting AB second half-transformation.
	Starting BB second half-transformation.
	Two-electron integral transformation complete.
	(OO|OV)...
	Starting AA second half-transformation.
	Starting AB second half-transformation.
	Starting BB second half-transformation.
	Two-electron integral transformation complete.
	(OO|VV)...
	Starting AA second half-transformation.
	Starting AB second half-transformation.
	Starting BB second half-transformation.
	Two-electron integral transformation complete.
	(OV|OO)...
	Starting AA/AB first half-transformation.
	Sorting AA/AB half-transformed integrals.
	Starting BB first half-transformation.
	Sorting BB half-transformed integrals.
	First half integral transformation complete.
	Starting AA second half-transformation.
	Starting AB second half-transformation.
	Starting BB second half-transformation.
	Two-electron integral transformation complete.
	(OV|OV)...
	Starting AA second half-transformation.
	Starting AB second half-transformation.
	Starting BB second half-transformation.
	Two-electron integral transformation complete.
	(OV|VV)...
	Starting AA second half-transformation.
	Starting AB second half-transformation.
	Starting BB second half-transformation.
	Two-electron integral transformation complete.
	(VV|OO)...
	Starting AA/AB first half-transformation.
	Sorting AA/AB half-transformed integrals.
	Starting BB first half-transformation.
	Sorting BB half-transformed integrals.
	First half integral transformation complete.
	Starting AA second half-transformation.
	Starting AB second half-transformation.
	Starting BB second half-transformation.
	Two-electron integral transformation complete.
	(VV|OV)...
	Starting AA second half-transformation.
	Starting AB second half-transformation.
	Starting BB second half-transformation.
	Two-electron integral transformation complete.
	(VV|VV)...
	Starting AA second half-transformation.
	Starting AB second half-transformation.
	Starting BB second half-transformation.
	Two-electron integral transformation complete.
	Frozen core energy     =    -33.31070149356470

	Size of irrep 0 of <AB|CD> integrals:      4.170 (MW) /     33.358 (MB)
	Size of irrep 1 of <AB|CD> integrals:      2.631 (MW) /     21.047 (MB)
	Size of irrep 2 of <AB|CD> integrals:      3.397 (MW) /     27.173 (MB)
	Size of irrep 3 of <AB|CD> integrals:      3.512 (MW) /     28.095 (MB)
	Total:                                    13.709 (MW) /    109.673 (MB)

	Size of irrep 0 of <ab|cd> integrals:      4.289 (MW) /     34.312 (MB)
	Size of irrep 1 of <ab|cd> integrals:      2.729 (MW) /     21.833 (MB)
	Size of irrep 2 of <ab|cd> integrals:      3.572 (MW) /     28.577 (MB)
	Size of irrep 3 of <ab|cd> integrals:      3.572 (MW) /     28.577 (MB)
	Total:                                    14.162 (MW) /    113.299 (MB)

	Size of irrep 0 of <Ab|Cd> integrals:     17.935 (MW) /    143.482 (MB)
	Size of irrep 1 of <Ab|Cd> integrals:     10.719 (MW) /     85.753 (MB)
	Size of irrep 2 of <Ab|Cd> integrals:     13.935 (MW) /    111.482 (MB)
	Size of irrep 3 of <Ab|Cd> integrals:     14.168 (MW) /    113.342 (MB)
	Total:                                    56.757 (MW) /    454.058 (MB)

	Size of irrep 0 of <IA|BC> integrals:      0.517 (MW) /      4.139 (MB)
	Size of irrep 1 of <IA|BC> integrals:      0.201 (MW) /      1.609 (MB)
	Size of irrep 2 of <IA|BC> integrals:      0.387 (MW) /      3.096 (MB)
	Size of irrep 3 of <IA|BC> integrals:      0.285 (MW) /      2.279 (MB)
	Total:                                     1.390 (MW) /     11.123 (MB)

	Size of irrep 0 of <ia|bc> integrals:      0.401 (MW) /      3.207 (MB)
	Size of irrep 1 of <ia|bc> integrals:      0.106 (MW) /      0.846 (MB)
	Size of irrep 2 of <ia|bc> integrals:      0.227 (MW) /      1.814 (MB)
	Size of irrep 3 of <ia|bc> integrals:      0.227 (MW) /      1.814 (MB)
	Total:                                     0.960 (MW) /      7.682 (MB)

	Size of irrep 0 of <Ia|Bc> integrals:      0.525 (MW) /      4.201 (MB)
	Size of irrep 1 of <Ia|Bc> integrals:      0.203 (MW) /      1.624 (MB)
	Size of irrep 2 of <Ia|Bc> integrals:      0.399 (MW) /      3.195 (MB)
	Size of irrep 3 of <Ia|Bc> integrals:      0.286 (MW) /      2.289 (MB)
	Total:                                     1.414 (MW) /     11.309 (MB)

	Size of irrep 0 of <iA|bC> integrals:      0.398 (MW) /      3.185 (MB)
	Size of irrep 1 of <iA|bC> integrals:      0.105 (MW) /      0.838 (MB)
	Size of irrep 2 of <iA|bC> integrals:      0.217 (MW) /      1.732 (MB)
	Size of irrep 3 of <iA|bC> integrals:      0.226 (MW) /      1.807 (MB)
	Total:                                     0.945 (MW) /      7.562 (MB)

	Size of irrep 0 of tIjAb amplitudes:       0.017 (MW) /      0.136 (MB)
	Size of irrep 1 of tIjAb amplitudes:       0.000 (MW) /      0.000 (MB)
	Size of irrep 2 of tIjAb amplitudes:       0.007 (MW) /      0.060 (MB)
	Size of irrep 3 of tIjAb amplitudes:       0.000 (MW) /      0.000 (MB)
	Total:                                     0.024 (MW) /      0.195 (MB)

	Nuclear Rep. energy          =      2.85182075410142
	SCF energy                   =    -38.28405444710173
	One-electron energy          =    -12.64690578840051
	Two-electron (AA) energy     =      1.29044129484759
	Two-electron (BB) energy     =      0.38671550174806
	Two-electron (AB) energy     =      3.14457528416645
	Two-electron energy          =      4.82173208076211
	Reference energy             =    -38.28405444710169

*** tstop() called on cqc05 at Thu Aug 20 20:20:18 2020
Module time:
	user time   =       5.14 seconds =       0.09 minutes
	system time =       3.19 seconds =       0.05 minutes
	total time  =          8 seconds =       0.13 minutes
Total time:
	user time   =      10.49 seconds =       0.17 minutes
	system time =       3.50 seconds =       0.06 minutes
	total time  =         14 seconds =       0.23 minutes

*** tstart() called on cqc05
*** at Thu Aug 20 20:20:18 2020

            **************************
            *                        *
            *        CCENERGY        *
            *                        *
            **************************

    Nuclear Rep. energy (wfn)     =    2.851820754101419
    SCF energy          (wfn)     =  -38.284054447101731
    Reference energy    (file100) =  -38.284054447101688

    Input parameters:
    -----------------
    Wave function   =     CCSD
    Reference wfn   =     UHF
    Brueckner       =     No
    Memory (Mbytes) =     250000.0
    Maxiter         =     50
    R_Convergence   =     1.0e-07
    E_Convergence   =     1.0e-06
    Restart         =     Yes
    DIIS            =     Yes
    AO Basis        =     NONE
    ABCD            =     NEW
    Cache Level     =     2
    Cache Type      =     LRU
    Print Level     =     1
    Num. of threads =     4
    # Amps to Print =     10
    Print MP2 Amps? =     No
    Analyze T2 Amps =     No
    Print Pair Ener =     No
    Local CC        =     No
    SCS-MP2         =     False
    SCSN-MP2        =     False
    SCS-CCSD        =     False

MP2 correlation energy -0.1093345142084484
                Solving CC Amplitude Equations
                ------------------------------
  Iter             Energy              RMS        T1Diag      D1Diag    New D1Diag    D2Diag
  ----     ---------------------    ---------   ----------  ----------  ----------   --------
     0        -0.109334514208450    0.000e+00    0.000000    0.000000    0.000000    0.000000
     1        -0.123538610453579    4.951e-02    0.008892    0.000000    0.000000    0.000000
     2        -0.130984367043684    2.381e-02    0.014906    0.000000    0.000000    0.000000
     3        -0.131658900517818    8.202e-03    0.017084    0.000000    0.000000    0.000000
     4        -0.131758292435807    3.065e-03    0.017351    0.000000    0.000000    0.000000
     5        -0.131777146140210    1.374e-03    0.017290    0.000000    0.000000    0.000000
     6        -0.131775684948781    5.256e-04    0.017207    0.000000    0.000000    0.000000
     7        -0.131781462636020    1.855e-04    0.017177    0.000000    0.000000    0.000000
     8        -0.131781656776367    5.055e-05    0.017177    0.000000    0.000000    0.000000
     9        -0.131780750273721    1.683e-05    0.017177    0.000000    0.000000    0.000000
    10        -0.131780810273149    6.220e-06    0.017177    0.000000    0.000000    0.000000
    11        -0.131780820556720    2.424e-06    0.017178    0.000000    0.000000    0.000000
    12        -0.131780878050146    8.789e-07    0.017178    0.000000    0.000000    0.000000
    13        -0.131780890679105    3.200e-07    0.017178    0.000000    0.000000    0.000000
    14        -0.131780891988170    1.300e-07    0.017178    0.000000    0.000000    0.000000
    15        -0.131780891571158    5.840e-08    0.017178    0.000000    0.000000    0.000000
    15        -0.131780891571158    5.840e-08    0.017178    0.000000    0.000000    0.000000

    Iterations converged.


    CCSD corr. energy   =   -0.131780891571158
    PPL corr. energy    =    0.041309299506062
    OS PPL corr. energy =    0.038167770349345
    SS PPL corr. energy =    0.003141529156716
    Largest TIA Amplitudes:
              2  63        -0.0094268001
              1  12        -0.0090495271
              2  64        -0.0086449289
              0  12         0.0072818642
              1   4         0.0070603078
              2  66        -0.0057081889
              0   4        -0.0053497831
              0   9         0.0048948154
              2  67         0.0045486733
              1   9        -0.0043632886

    Largest Tia Amplitudes:
              0   6        -0.0109243776
              1   7        -0.0105616174
              0   8        -0.0091682256
              0  10        -0.0084938873
              0   3         0.0073452852
              1  15         0.0070950792
              1   6         0.0068768521
              0  16         0.0059614379
              1   2         0.0058940575
              1   3        -0.0058890646

    Largest TIJAB Amplitudes:
      2   1  66   8         0.0156796903
      2   1  67   8        -0.0147702132
      2   1  64   8         0.0131958849
      2   1  66   7         0.0119194247
      2   1  66  15        -0.0108307197
      2   1  66   3        -0.0106283035
      2   1  69   8         0.0105974280
      2   1  71   8         0.0098895532
      2   0  66   6         0.0098661276
      2   1  64   3        -0.0098417720

    Largest Tijab Amplitudes:
      1   0  68  64        -0.0092736555
      1   0  98  93        -0.0081879805
      1   0   7   6        -0.0071062706
      1   0  98  94        -0.0069801387
      1   0  65  64         0.0063912063
      1   0  68  63        -0.0063038695
      1   0  70  64         0.0062502289
      1   0  71  64         0.0056566317
      1   0  95  93         0.0055777101
      1   0  15   6         0.0055672015

    Largest TIjAb Amplitudes:
      1   1  92  93        -0.0918683649
      1   1  92  94        -0.0743180321
      1   1  93  93        -0.0597115194
      1   1   8   8        -0.0511131833
      0   0  92  93        -0.0493811462
      1   1  93  94        -0.0487955587
      0   0  92  94        -0.0438190974
      0   1  92  93         0.0401588790
      1   1  92  97        -0.0392851288
      0   0  93  93        -0.0350791188

    SCF energy       (wfn)                    =  -38.284054447101731
    Reference energy (file100)                =  -38.284054447101688

    Opposite-spin MP2 correlation energy      =   -0.093759890338022
    Same-spin MP2 correlation energy          =   -0.015574623870392
    MP2 correlation energy                    =   -0.109334514208448
      * MP2 total energy                      =  -38.393388961310137

    Opposite-spin CCSD correlation energy     =   -0.115510742706035
    Same-spin CCSD correlation energy         =   -0.016270148523330
    CCSD correlation energy                   =   -0.131780891571158
      * CCSD total energy                     =  -38.415835338672849


*** tstop() called on cqc05 at Thu Aug 20 20:20:27 2020
Module time:
	user time   =       2.86 seconds =       0.05 minutes
	system time =       3.46 seconds =       0.06 minutes
	total time  =          9 seconds =       0.15 minutes
Total time:
	user time   =      13.35 seconds =       0.22 minutes
	system time =       6.96 seconds =       0.12 minutes
	total time  =         23 seconds =       0.38 minutes

*** Psi4 exiting successfully. Buy a developer a beer!
