
    -----------------------------------------------------------------------
          Psi4: An Open-Source Ab Initio Electronic Structure Package
                               Psi4 1.2a1.dev939 

                         Git: Rev {HEAD} fa1ec19 


    R. M. Parrish, L. A. Burns, D. G. A. Smith, A. C. Simmonett,
    A. E. DePrince III, E. G. Hohenstein, U. Bozkaya, A. Yu. Sokolov,
    R. Di Remigio, R. M. Richard, J. F. Gonthier, A. M. James,
    H. R. McAlexander, A. Kumar, M. Saitow, X. Wang, B. P. Pritchard,
    P. Verma, H. F. Schaefer III, K. Patkowski, R. A. King, E. F. Valeev,
    F. A. Evangelista, J. M. Turney, T. D. Crawford, and C. D. Sherrill,
    J. Chem. Theory Comput. 13(7) pp 3185--3197 (2017).
    (doi: 10.1021/acs.jctc.7b00174)

    -----------------------------------------------------------------------


    Psi4 started on: Friday, 26 April 2019 07:14PM

    Process ID:  31088
    PSIDATADIR: /home/grueneis/src/psi4/objdir/stage/usr/local/psi4/share/psi4
    Memory:     500.0 MiB
    Threads:    1
    
  ==> Input File <==

--------------------------------------------------------------------------
# Any line starting with the # character is a comment line

memory 32000 mb

molecule molecule {
0 1
S          0.0000000000        0.0000000000        0.3640837090
O          0.0000000000       -1.2543541245       -0.3647800452
O          0.0000000000        1.2543541245       -0.3647800452
}

set {
  reference rhf
  basis aug-cc-pv(T+d)z
  scf_type OUT_OF_CORE
  freeze_core true
}

energy('ccsd')
--------------------------------------------------------------------------

  Memory set to  29.802 GiB by Python driver.

*** tstart() called on cqc01
*** at Fri Apr 26 19:14:50 2019

   => Loading Basis Set <=

    Name: AUG-CC-PV(T+D)Z
    Role: ORBITAL
    Keyword: BASIS
    atoms 1   entry S          line   928 file /home/grueneis/src/psi4/objdir/stage/usr/local/psi4/share/psi4/basis/aug-cc-pv_tpd_z.gbs 
    atoms 2-3 entry O          line   347 file /home/grueneis/src/psi4/objdir/stage/usr/local/psi4/share/psi4/basis/aug-cc-pv_tpd_z.gbs 


         ---------------------------------------------------------
                                   SCF
            by Justin Turney, Rob Parrish, Andy Simmonett
                             and Daniel Smith
                              RHF Reference
                        1 Threads,  30517 MiB Core
         ---------------------------------------------------------

  ==> Geometry <==

    Molecular point group: c2v
    Full point group: C2v

    Geometry (in Angstrom), charge = 0, multiplicity = 1:

       Center              X                  Y                   Z               Mass       
    ------------   -----------------  -----------------  -----------------  -----------------
           S          0.000000000000     0.000000000000     0.364533057158    31.972070999000
           O          0.000000000000    -1.254354124500    -0.364330697042    15.994914619560
           O         -0.000000000000     1.254354124500    -0.364330697042    15.994914619560

  Running in c2v symmetry.

  Rotational constants: A =      1.98446  B =      0.33492  C =      0.28656 [cm^-1]
  Rotational constants: A =  59492.62830  B =  10040.72216  C =   8590.82652 [MHz]
  Nuclear repulsion =  106.879403020132131

  Charge       = 0
  Multiplicity = 1
  Electrons    = 32
  Nalpha       = 16
  Nbeta        = 16

  ==> Algorithm <==

  SCF Algorithm Type is OUT_OF_CORE.
  DIIS enabled.
  MOM disabled.
  Fractional occupation disabled.
  Guess Type is SAD.
  Energy threshold   = 1.00e-08
  Density threshold  = 1.00e-08
  Integral threshold = 0.00e+00

  ==> Primary Basis <==

  Basis Set: AUG-CC-PV(T+D)Z
    Blend: AUG-CC-PV(T+D)Z
    Number of shells: 45
    Number of basis function: 147
    Number of Cartesian functions: 175
    Spherical Harmonics?: true
    Max angular momentum: 3

  ==> Pre-Iterations <==

   -------------------------------------------------------
    Irrep   Nso     Nmo     Nalpha   Nbeta   Ndocc  Nsocc
   -------------------------------------------------------
     A1        53      53       0       0       0       0
     A2        22      22       0       0       0       0
     B1        29      29       0       0       0       0
     B2        43      43       0       0       0       0
   -------------------------------------------------------
    Total     147     147      16      16      16       0
   -------------------------------------------------------

  ==> Integral Setup <==

  ==> DiskJK: Disk-Based J/K Matrices <==

    J tasked:                  Yes
    K tasked:                  Yes
    wK tasked:                  No
    Memory (MB):             22888
    Schwarz Cutoff:          1E-12

  Minimum eigenvalue in the overlap matrix is 3.2029666434E-04.
  Using Symmetric Orthogonalization.

  SCF Guess: Superposition of Atomic Densities via on-the-fly atomic UHF.

  ==> Iterations <==

                        Total Energy        Delta E     RMS |[F,P]|

   @RHF iter   0:  -548.13064664672686   -5.48131e+02   4.16620e-02 
   @RHF iter   1:  -547.18005407433441    9.50593e-01   5.64349e-03 
   @RHF iter   2:  -547.25593256484308   -7.58785e-02   4.23459e-03 DIIS
   @RHF iter   3:  -547.29506275203300   -3.91302e-02   8.92305e-04 DIIS
   @RHF iter   4:  -547.30075034282663   -5.68759e-03   3.90655e-04 DIIS
   @RHF iter   5:  -547.30213642685442   -1.38608e-03   1.17995e-04 DIIS
   @RHF iter   6:  -547.30227951958625   -1.43093e-04   3.15229e-05 DIIS
   @RHF iter   7:  -547.30228735829121   -7.83870e-06   5.88545e-06 DIIS
   @RHF iter   8:  -547.30228758854366   -2.30252e-07   9.78213e-07 DIIS
   @RHF iter   9:  -547.30228759590977   -7.36611e-09   3.05239e-07 DIIS
   @RHF iter  10:  -547.30228759677425   -8.64475e-10   9.95511e-08 DIIS
   @RHF iter  11:  -547.30228759688259   -1.08344e-10   2.10964e-08 DIIS
   @RHF iter  12:  -547.30228759688578   -3.18323e-12   5.15573e-09 DIIS

  ==> Post-Iterations <==

    Orbital Energies (a.u.)
    -----------------------

    Doubly Occupied:                                                      

       1A1   -92.182074     1B2   -20.632253     2A1   -20.632226  
       3A1    -9.158774     1B1    -6.840477     2B2    -6.839428  
       4A1    -6.837868     5A1    -1.494285     3B2    -1.395796  
       6A1    -0.874217     4B2    -0.698853     7A1    -0.689183  
       2B1    -0.658783     5B2    -0.544335     1A2    -0.520697  
       8A1    -0.498377  

    Virtual:                                                              

       3B1     0.000690     9A1     0.066820    10A1     0.071278  
       6B2     0.071757     4B1     0.079171     7B2     0.163866  
      11A1     0.169581    12A1     0.176739     2A2     0.183272  
       5B1     0.209845     8B2     0.214494    13A1     0.218446  
       9B2     0.249080     6B1     0.296577    14A1     0.305000  
      10B2     0.352369     3A2     0.369663    15A1     0.388648  
      16A1     0.424981    11B2     0.443034     7B1     0.463401  
      17A1     0.509662    12B2     0.614750    18A1     0.632708  
       4A2     0.635727     8B1     0.637949    19A1     0.639120  
       9B1     0.701778    20A1     0.716480    13B2     0.749794  
       5A2     0.792113    21A1     0.832305    14B2     0.869707  
      10B1     0.877980     6A2     0.903719    15B2     0.925697  
      22A1     0.941086    11B1     0.943819    16B2     0.978829  
      23A1     0.986711    24A1     1.018897     7A2     1.040847  
      17B2     1.085287    12B1     1.118868    25A1     1.182627  
      18B2     1.218168     8A2     1.225303    13B1     1.236171  
      19B2     1.299341    26A1     1.320131    20B2     1.399557  
      27A1     1.494434    28A1     1.834573    21B2     1.839601  
      14B1     1.839605    29A1     1.899718     9A2     1.971394  
      30A1     2.005882    15B1     2.014252    10A2     2.028724  
      22B2     2.030256    23B2     2.053678    16B1     2.069057  
      31A1     2.082058    17B1     2.125562    32A1     2.186565  
      11A2     2.189526    24B2     2.195922    25B2     2.240489  
      12A2     2.249124    33A1     2.320617    34A1     2.346392  
      18B1     2.380684    13A2     2.413747    35A1     2.450671  
      26B2     2.468136    19B1     2.498573    27B2     2.545357  
      20B1     2.551006    36A1     2.602707    14A2     2.607337  
      28B2     2.624746    37A1     2.767411    29B2     2.779950  
      21B1     2.811966    38A1     2.870292    30B2     3.124537  
      15A2     3.139691    22B1     3.230731    39A1     3.238041  
      31B2     3.417657    40A1     3.687021    32B2     3.771543  
      16A2     4.411360    23B1     4.418768    41A1     4.434280  
      33B2     4.668871    42A1     4.884740    34B2     5.408360  
      43A1     6.437557    24B1     6.470392    44A1     6.476804  
      17A2     6.508667    35B2     6.509533    45A1     6.579219  
      18A2     6.586192    36B2     6.655323    25B1     6.661863  
      19A2     6.663604    26B1     6.708472    46A1     6.718527  
      37B2     6.746122    47A1     6.866517    38B2     6.888960  
      20A2     7.046348    48A1     7.056947    27B1     7.058892  
      39B2     7.066421    28B1     7.191938    21A2     7.256896  
      49A1     7.328827    40B2     7.400339    29B1     7.438856  
      50A1     7.459413    41B2     7.466968    51A1     7.602616  
      22A2     7.665946    42B2     8.446892    52A1     9.360779  
      43B2    11.426980    53A1    12.029013  

    Final Occupation by Irrep:
             A1    A2    B1    B2 
    DOCC [     8,    1,    2,    5 ]

  Energy converged.

  @RHF Final Energy:  -547.30228759688578

   => Energetics <=

    Nuclear Repulsion Energy =            106.8794030201321306
    One-Electron Energy =                -967.3681254722417862
    Two-Electron Energy =                 313.1864348552239221
    Total Energy =                       -547.3022875968856624



Properties will be evaluated at   0.000000,   0.000000,   0.000000 Bohr

Properties computed using the SCF density matrix

  Nuclear Dipole Moment: (a.u.)
     X:     0.0000      Y:     0.0000      Z:     0.0061

  Electronic Dipole Moment: (a.u.)
     X:     0.0000      Y:     0.0000      Z:     0.8061

  Dipole Moment: (a.u.)
     X:     0.0000      Y:     0.0000      Z:     0.8123     Total:     0.8123

  Dipole Moment: (Debye)
     X:     0.0000      Y:     0.0000      Z:     2.0646     Total:     2.0646


*** tstop() called on cqc01 at Fri Apr 26 19:15:03 2019
Module time:
	user time   =       7.43 seconds =       0.12 minutes
	system time =       2.08 seconds =       0.03 minutes
	total time  =         13 seconds =       0.22 minutes
Total time:
	user time   =       7.43 seconds =       0.12 minutes
	system time =       2.08 seconds =       0.03 minutes
	total time  =         13 seconds =       0.22 minutes

*** tstart() called on cqc01
*** at Fri Apr 26 19:15:03 2019


	Wfn Parameters:
	--------------------
	Wavefunction         = CCSD
	Number of irreps     = 4
	Number of MOs        = 147
	Number of active MOs = 140
	AO-Basis             = NONE
	Semicanonical        = false
	Reference            = RHF
	Print Level          = 1

	IRREP	# MOs	# FZDC	# DOCC	# SOCC	# VIRT	# FZVR
	-----	-----	------	------	------	------	------
	 A1	   53	    4	    4	    0	    45	    0
	 A2	   22	    0	    1	    0	    21	    0
	 B1	   29	    1	    1	    0	    27	    0
	 B2	   43	    2	    3	    0	    38	    0
	Transforming integrals...
	IWL integrals will be deleted.
	(OO|OO)...
	Presorting SO-basis two-electron integrals.
	Sorting File: SO Ints (nn|nn) nbuckets = 1
	Transforming the one-electron integrals and constructing Fock matrices
	Starting first half-transformation.
	Sorting half-transformed integrals.
	First half integral transformation complete.
	Starting second half-transformation.
	Two-electron integral transformation complete.
	(OO|OV)...
	Starting second half-transformation.
	Two-electron integral transformation complete.
	(OO|VV)...
	Starting second half-transformation.
	Two-electron integral transformation complete.
	(OV|OO)...
	Starting first half-transformation.
	Sorting half-transformed integrals.
	First half integral transformation complete.
	Starting second half-transformation.
	Two-electron integral transformation complete.
	(OV|OV)...
	Starting second half-transformation.
	Two-electron integral transformation complete.
	(OV|VV)...
	Starting second half-transformation.
	Two-electron integral transformation complete.
	(VV|OO)...
	Starting first half-transformation.
	Sorting half-transformed integrals.
	First half integral transformation complete.
	Starting second half-transformation.
	Two-electron integral transformation complete.
	(VV|OV)...
	Starting second half-transformation.
	Two-electron integral transformation complete.
	(VV|VV)...
	Starting second half-transformation.
	Two-electron integral transformation complete.
	Frozen core energy     =   -578.78980602834611

	Size of irrep 0 of <ab|cd> integrals:     21.520 (MW) /    172.163 (MB)
	Size of irrep 1 of <ab|cd> integrals:     15.539 (MW) /    124.315 (MB)
	Size of irrep 2 of <ab|cd> integrals:     16.209 (MW) /    129.669 (MB)
	Size of irrep 3 of <ab|cd> integrals:     20.739 (MW) /    165.911 (MB)
	Total:                                    74.007 (MW) /    592.058 (MB)

	Size of irrep 0 of <ia|bc> integrals:      1.587 (MW) /     12.692 (MB)
	Size of irrep 1 of <ia|bc> integrals:      0.978 (MW) /      7.821 (MB)
	Size of irrep 2 of <ia|bc> integrals:      1.023 (MW) /      8.181 (MB)
	Size of irrep 3 of <ia|bc> integrals:      1.526 (MW) /     12.205 (MB)
	Total:                                     5.112 (MW) /     40.899 (MB)

	Size of irrep 0 of tijab amplitudes:       0.125 (MW) /      1.002 (MB)
	Size of irrep 1 of tijab amplitudes:       0.055 (MW) /      0.442 (MB)
	Size of irrep 2 of tijab amplitudes:       0.056 (MW) /      0.451 (MB)
	Size of irrep 3 of tijab amplitudes:       0.118 (MW) /      0.947 (MB)
	Total:                                     0.355 (MW) /      2.842 (MB)

	Nuclear Rep. energy          =    106.87940302013213
	SCF energy                   =   -547.30228759688578
	One-electron energy          =   -136.03471297349324
	Two-electron energy          =     60.64282838481969
	Reference energy             =   -547.30228759688748

*** tstop() called on cqc01 at Fri Apr 26 19:15:44 2019
Module time:
	user time   =       5.16 seconds =       0.09 minutes
	system time =       2.79 seconds =       0.05 minutes
	total time  =         41 seconds =       0.68 minutes
Total time:
	user time   =      12.59 seconds =       0.21 minutes
	system time =       4.87 seconds =       0.08 minutes
	total time  =         54 seconds =       0.90 minutes

*** tstart() called on cqc01
*** at Fri Apr 26 19:15:44 2019

            **************************
            *                        *
            *        CCENERGY        *
            *                        *
            **************************

    Nuclear Rep. energy (wfn)     =  106.879403020132131
    SCF energy          (wfn)     = -547.302287596885776
    Reference energy    (file100) = -547.302287596887481

    Input parameters:
    -----------------
    Wave function   =     CCSD
    Reference wfn   =     RHF
    Brueckner       =     No
    Memory (Mbytes) =     32000.0
    Maxiter         =     50
    R_Convergence   =     1.0e-07
    E_Convergence   =     1.0e-06
    Restart         =     Yes
    DIIS            =     Yes
    AO Basis        =     NONE
    ABCD            =     NEW
    Cache Level     =     2
    Cache Type      =     LOW
    Print Level     =     1
    Num. of threads =     1
    # Amps to Print =     10
    Print MP2 Amps? =     No
    Analyze T2 Amps =     No
    Print Pair Ener =     No
    Local CC        =     No
    SCS-MP2         =     False
    SCSN-MP2        =     False
    SCS-CCSD        =     False

MP2 correlation energy -0.6775156920068733
                Solving CC Amplitude Equations
                ------------------------------
  Iter             Energy              RMS        T1Diag      D1Diag    New D1Diag    D2Diag
  ----     ---------------------    ---------   ----------  ----------  ----------   --------
     0        -0.677515692006812    0.000e+00    0.000000    0.000000    0.000000    0.188242
     1        -0.665585883212502    4.197e-01    0.037601    0.100030    0.100030    0.196399
     2        -0.685869094343748    1.175e-01    0.020706    0.051839    0.051839    0.213533
     3        -0.669221663976262    3.517e-02    0.022675    0.059337    0.059337    0.199395
     4        -0.666894031706236    6.114e-03    0.021993    0.056626    0.056626    0.197960
     5        -0.667180766589049    1.594e-03    0.021799    0.056090    0.056090    0.197487
     6        -0.667048174600915    6.179e-04    0.021764    0.055841    0.055841    0.197227
     7        -0.667025200111419    2.323e-04    0.021762    0.055742    0.055742    0.197140
     8        -0.667047529653236    9.505e-05    0.021769    0.055719    0.055719    0.197150
     9        -0.667044839634955    3.943e-05    0.021774    0.055701    0.055701    0.197150
    10        -0.667044282145229    1.222e-05    0.021775    0.055697    0.055697    0.197150
    11        -0.667045364731761    4.718e-06    0.021776    0.055697    0.055697    0.197152
    12        -0.667045601603588    1.599e-06    0.021776    0.055697    0.055697    0.197152
    13        -0.667045549339008    4.585e-07    0.021776    0.055697    0.055697    0.197152
    14        -0.667045568534969    1.803e-07    0.021776    0.055697    0.055697    0.197152
    15        -0.667045559181131    5.642e-08    0.021776    0.055697    0.055697    0.197152
    15        -0.667045559181131    5.642e-08    0.021776    0.055697    0.055697    0.197152

    Iterations converged.


    CCSD corr. energy   =   -0.667045559181131
    PPL corr. energy    =    0.152124127046677
    OS PPL corr. energy =    0.123100461861183
    SS PPL corr. energy =    0.029023665185494
    Largest TIA Amplitudes:
              5  66        -0.0512762164
              8  95        -0.0265435001
              3   1        -0.0182441732
              3   4         0.0177383723
              3   2         0.0155402126
              8  93         0.0153325304
              2   7        -0.0139667912
              7  95         0.0139293383
              5  67         0.0136264282
              2   6         0.0133490002

    Largest TIjAb Amplitudes:
      4   4  66  66        -0.1159808112
      5   5  66  66        -0.0729639856
      3   3  66  66        -0.0614609625
      1   1  66  66        -0.0364830938
      4   4  66  69        -0.0326887210
      4   4  69  66        -0.0326887210
      4   4  66  68         0.0312689817
      4   4  68  66         0.0312689817
      1   3  66  66        -0.0295458972
      3   1  66  66        -0.0295458972

    SCF energy       (wfn)                    = -547.302287596885776
    Reference energy (file100)                = -547.302287596887481

    Opposite-spin MP2 correlation energy      =   -0.496780843895068
    Same-spin MP2 correlation energy          =   -0.180734848111744
    MP2 correlation energy                    =   -0.677515692006873
      * MP2 total energy                      = -547.979803288894345

    Opposite-spin CCSD correlation energy     =   -0.512948099268203
    Same-spin CCSD correlation energy         =   -0.154097467374065
    CCSD correlation energy                   =   -0.667045559181131
      * CCSD total energy                     = -547.969333156068615


*** tstop() called on cqc01 at Fri Apr 26 19:16:18 2019
Module time:
	user time   =       8.25 seconds =       0.14 minutes
	system time =      13.79 seconds =       0.23 minutes
	total time  =         34 seconds =       0.57 minutes
Total time:
	user time   =      20.84 seconds =       0.35 minutes
	system time =      18.66 seconds =       0.31 minutes
	total time  =         88 seconds =       1.47 minutes

*** Psi4 exiting successfully. Buy a developer a beer!
