
    -----------------------------------------------------------------------
          Psi4: An Open-Source Ab Initio Electronic Structure Package
                               Psi4 1.2a1.dev939 

                         Git: Rev {HEAD} fa1ec19 


    R. M. Parrish, L. A. Burns, D. G. A. Smith, A. C. Simmonett,
    A. E. DePrince III, E. G. Hohenstein, U. Bozkaya, A. Yu. Sokolov,
    R. Di Remigio, R. M. Richard, J. F. Gonthier, A. M. James,
    H. R. McAlexander, A. Kumar, M. Saitow, X. Wang, B. P. Pritchard,
    P. Verma, H. F. Schaefer III, K. Patkowski, R. A. King, E. F. Valeev,
    F. A. Evangelista, J. M. Turney, T. D. Crawford, and C. D. Sherrill,
    J. Chem. Theory Comput. 13(7) pp 3185--3197 (2017).
    (doi: 10.1021/acs.jctc.7b00174)

    -----------------------------------------------------------------------


    Psi4 started on: Friday, 26 April 2019 03:44PM

    Process ID:  22979
    PSIDATADIR: /home/grueneis/src/psi4/objdir/stage/usr/local/psi4/share/psi4
    Memory:     500.0 MiB
    Threads:    1
    
  ==> Input File <==

--------------------------------------------------------------------------
# Any line starting with the # character is a comment line

memory 32000 mb

molecule molecule {
0 1
S          0.0000000000        0.0000000000        0.3640837090
O          0.0000000000       -1.2543541245       -0.3647800452
O          0.0000000000        1.2543541245       -0.3647800452
}

set {
  reference rhf
  basis aug-cc-pv(D+d)z
  scf_type OUT_OF_CORE
  freeze_core true
}

energy('ccsd')
--------------------------------------------------------------------------

  Memory set to  29.802 GiB by Python driver.

*** tstart() called on cqc01
*** at Fri Apr 26 15:44:21 2019

   => Loading Basis Set <=

    Name: AUG-CC-PV(D+D)Z
    Role: ORBITAL
    Keyword: BASIS
    atoms 1   entry S          line   724 file /home/grueneis/src/psi4/objdir/stage/usr/local/psi4/share/psi4/basis/aug-cc-pv_dpd_z.gbs 
    atoms 2-3 entry O          line   270 file /home/grueneis/src/psi4/objdir/stage/usr/local/psi4/share/psi4/basis/aug-cc-pv_dpd_z.gbs 


         ---------------------------------------------------------
                                   SCF
            by Justin Turney, Rob Parrish, Andy Simmonett
                             and Daniel Smith
                              RHF Reference
                        1 Threads,  30517 MiB Core
         ---------------------------------------------------------

  ==> Geometry <==

    Molecular point group: c2v
    Full point group: C2v

    Geometry (in Angstrom), charge = 0, multiplicity = 1:

       Center              X                  Y                   Z               Mass       
    ------------   -----------------  -----------------  -----------------  -----------------
           S          0.000000000000     0.000000000000     0.364533057158    31.972070999000
           O          0.000000000000    -1.254354124500    -0.364330697042    15.994914619560
           O         -0.000000000000     1.254354124500    -0.364330697042    15.994914619560

  Running in c2v symmetry.

  Rotational constants: A =      1.98446  B =      0.33492  C =      0.28656 [cm^-1]
  Rotational constants: A =  59492.62830  B =  10040.72216  C =   8590.82652 [MHz]
  Nuclear repulsion =  106.879403020132131

  Charge       = 0
  Multiplicity = 1
  Electrons    = 32
  Nalpha       = 16
  Nbeta        = 16

  ==> Algorithm <==

  SCF Algorithm Type is OUT_OF_CORE.
  DIIS enabled.
  MOM disabled.
  Fractional occupation disabled.
  Guess Type is SAD.
  Energy threshold   = 1.00e-08
  Density threshold  = 1.00e-08
  Integral threshold = 0.00e+00

  ==> Primary Basis <==

  Basis Set: AUG-CC-PV(D+D)Z
    Blend: AUG-CC-PV(D+D)Z
    Number of shells: 30
    Number of basis function: 78
    Number of Cartesian functions: 85
    Spherical Harmonics?: true
    Max angular momentum: 2

  ==> Pre-Iterations <==

   -------------------------------------------------------
    Irrep   Nso     Nmo     Nalpha   Nbeta   Ndocc  Nsocc
   -------------------------------------------------------
     A1        31      31       0       0       0       0
     A2        10      10       0       0       0       0
     B1        14      14       0       0       0       0
     B2        23      23       0       0       0       0
   -------------------------------------------------------
    Total      78      78      16      16      16       0
   -------------------------------------------------------

  ==> Integral Setup <==

  ==> DiskJK: Disk-Based J/K Matrices <==

    J tasked:                  Yes
    K tasked:                  Yes
    wK tasked:                  No
    Memory (MB):             22888
    Schwarz Cutoff:          1E-12

  Minimum eigenvalue in the overlap matrix is 2.2515540882E-03.
  Using Symmetric Orthogonalization.

  SCF Guess: Superposition of Atomic Densities via on-the-fly atomic UHF.

  ==> Iterations <==

                        Total Energy        Delta E     RMS |[F,P]|

   @RHF iter   0:  -548.08982085054197   -5.48090e+02   7.83098e-02 
   @RHF iter   1:  -547.15616182378528    9.33659e-01   9.09932e-03 
   @RHF iter   2:  -547.20540941845820   -4.92476e-02   6.19683e-03 DIIS
   @RHF iter   3:  -547.23202838103680   -2.66190e-02   1.11283e-03 DIIS
   @RHF iter   4:  -547.23341653047771   -1.38815e-03   2.99479e-04 DIIS
   @RHF iter   5:  -547.23358513073765   -1.68600e-04   7.87781e-05 DIIS
   @RHF iter   6:  -547.23360209116697   -1.69604e-05   2.77498e-05 DIIS
   @RHF iter   7:  -547.23360427973478   -2.18857e-06   7.26540e-06 DIIS
   @RHF iter   8:  -547.23360441978127   -1.40046e-07   1.43727e-06 DIIS
   @RHF iter   9:  -547.23360442518037   -5.39910e-09   3.27219e-07 DIIS
   @RHF iter  10:  -547.23360442546482   -2.84444e-10   6.66091e-08 DIIS
   @RHF iter  11:  -547.23360442547585   -1.10276e-11   1.05609e-08 DIIS
   @RHF iter  12:  -547.23360442547596   -1.13687e-13   2.36617e-09 DIIS

  ==> Post-Iterations <==

    Orbital Energies (a.u.)
    -----------------------

    Doubly Occupied:                                                      

       1A1   -92.197563     1B2   -20.641941     2A1   -20.641914  
       3A1    -9.173903     2B2    -6.856494     1B1    -6.855010  
       4A1    -6.852733     5A1    -1.502720     3B2    -1.403255  
       6A1    -0.879159     4B2    -0.702882     7A1    -0.692464  
       2B1    -0.661586     5B2    -0.542996     1A2    -0.520006  
       8A1    -0.496953  

    Virtual:                                                              

       3B1    -0.000120     9A1     0.080684     6B2     0.083668  
      10A1     0.083668     4B1     0.095945     7B2     0.201327  
      11A1     0.206100    12A1     0.219733     2A2     0.228846  
       8B2     0.256367     5B1     0.257962    13A1     0.262875  
       9B2     0.296991    14A1     0.375138     6B1     0.387546  
      10B2     0.418561    15A1     0.473603     3A2     0.481524  
      16A1     0.598085    11B2     0.684463     7B1     0.718396  
      17A1     0.747010    12B2     0.821040     4A2     0.906849  
      18A1     0.912262    19A1     0.944667     8B1     0.968923  
       9B1     1.014146    13B2     1.031315    20A1     1.033381  
       5A2     1.067703    21A1     1.170690    14B2     1.203085  
      10B1     1.260610    15B2     1.270690     6A2     1.304386  
      22A1     1.349662    23A1     1.508108    16B2     1.528415  
      17B2     1.575023     7A2     1.595485    11B1     1.600902  
      24A1     1.735731    18B2     1.824205    25A1     1.865160  
      19B2     2.823863    26A1     2.971428    12B1     3.542346  
      27A1     3.554879     8A2     3.584387    20B2     3.592315  
      13B1     3.614980    28A1     3.622437     9A2     3.632282  
      21B2     3.688418    29A1     3.698170    22B2     3.828808  
      30A1     4.910866    14B1     4.911107    10A2     4.986311  
      23B2     5.099179    31A1     5.127770  

    Final Occupation by Irrep:
             A1    A2    B1    B2 
    DOCC [     8,    1,    2,    5 ]

  Energy converged.

  @RHF Final Energy:  -547.23360442547596

   => Energetics <=

    Nuclear Repulsion Energy =            106.8794030201321306
    One-Electron Energy =                -966.9828588641800025
    Two-Electron Energy =                 312.8698514185719546
    PCM Polarization Energy =               0.0000000000000000
    Total Energy =                       -547.2336044254759599

    Alert: EFP and PCM quantities not currently incorporated into SCF psivars.

Properties will be evaluated at   0.000000,   0.000000,   0.000000 Bohr

Properties computed using the SCF density matrix

  Nuclear Dipole Moment: (a.u.)
     X:     0.0000      Y:     0.0000      Z:     0.0061

  Electronic Dipole Moment: (a.u.)
     X:     0.0000      Y:     0.0000      Z:     0.8026

  Dipole Moment: (a.u.)
     X:     0.0000      Y:     0.0000      Z:     0.8088     Total:     0.8088

  Dipole Moment: (Debye)
     X:     0.0000      Y:     0.0000      Z:     2.0557     Total:     2.0557


*** tstop() called on cqc01 at Fri Apr 26 15:44:25 2019
Module time:
	user time   =       1.62 seconds =       0.03 minutes
	system time =       1.08 seconds =       0.02 minutes
	total time  =          4 seconds =       0.07 minutes
Total time:
	user time   =       1.62 seconds =       0.03 minutes
	system time =       1.08 seconds =       0.02 minutes
	total time  =          4 seconds =       0.07 minutes

*** tstart() called on cqc01
*** at Fri Apr 26 15:44:25 2019


	Wfn Parameters:
	--------------------
	Wavefunction         = CCSD
	Number of irreps     = 4
	Number of MOs        = 78
	Number of active MOs = 71
	AO-Basis             = NONE
	Semicanonical        = false
	Reference            = RHF
	Print Level          = 1

	IRREP	# MOs	# FZDC	# DOCC	# SOCC	# VIRT	# FZVR
	-----	-----	------	------	------	------	------
	 A1	   31	    4	    4	    0	    23	    0
	 A2	   10	    0	    1	    0	    9	    0
	 B1	   14	    1	    1	    0	    12	    0
	 B2	   23	    2	    3	    0	    18	    0
	Transforming integrals...
	IWL integrals will be deleted.
	(OO|OO)...
	Presorting SO-basis two-electron integrals.
	Sorting File: SO Ints (nn|nn) nbuckets = 1
	Transforming the one-electron integrals and constructing Fock matrices
	Starting first half-transformation.
	Sorting half-transformed integrals.
	First half integral transformation complete.
	Starting second half-transformation.
	Two-electron integral transformation complete.
	(OO|OV)...
	Starting second half-transformation.
	Two-electron integral transformation complete.
	(OO|VV)...
	Starting second half-transformation.
	Two-electron integral transformation complete.
	(OV|OO)...
	Starting first half-transformation.
	Sorting half-transformed integrals.
	First half integral transformation complete.
	Starting second half-transformation.
	Two-electron integral transformation complete.
	(OV|OV)...
	Starting second half-transformation.
	Two-electron integral transformation complete.
	(OV|VV)...
	Starting second half-transformation.
	Two-electron integral transformation complete.
	(VV|OO)...
	Starting first half-transformation.
	Sorting half-transformed integrals.
	First half integral transformation complete.
	Starting second half-transformation.
	Two-electron integral transformation complete.
	(VV|OV)...
	Starting second half-transformation.
	Two-electron integral transformation complete.
	(VV|VV)...
	Starting second half-transformation.
	Two-electron integral transformation complete.
	Frozen core energy     =   -578.78374886383961

	Size of irrep 0 of <ab|cd> integrals:      1.162 (MW) /      9.297 (MB)
	Size of irrep 1 of <ab|cd> integrals:      0.716 (MW) /      5.726 (MB)
	Size of irrep 2 of <ab|cd> integrals:      0.767 (MW) /      6.139 (MB)
	Size of irrep 3 of <ab|cd> integrals:      1.090 (MW) /      8.719 (MB)
	Total:                                     3.735 (MW) /     29.881 (MB)

	Size of irrep 0 of <ia|bc> integrals:      0.180 (MW) /      1.440 (MB)
	Size of irrep 1 of <ia|bc> integrals:      0.096 (MW) /      0.765 (MB)
	Size of irrep 2 of <ia|bc> integrals:      0.102 (MW) /      0.813 (MB)
	Size of irrep 3 of <ia|bc> integrals:      0.169 (MW) /      1.353 (MB)
	Total:                                     0.546 (MW) /      4.371 (MB)

	Size of irrep 0 of tijab amplitudes:       0.029 (MW) /      0.233 (MB)
	Size of irrep 1 of tijab amplitudes:       0.012 (MW) /      0.095 (MB)
	Size of irrep 2 of tijab amplitudes:       0.012 (MW) /      0.098 (MB)
	Size of irrep 3 of tijab amplitudes:       0.027 (MW) /      0.217 (MB)
	Total:                                     0.080 (MW) /      0.643 (MB)

	Nuclear Rep. energy          =    106.87940302013213
	SCF energy                   =   -547.23360442547596
	One-electron energy          =   -135.85447681251674
	Two-electron energy          =     60.52521823074770
	Reference energy             =   -547.23360442547653

*** tstop() called on cqc01 at Fri Apr 26 15:44:28 2019
Module time:
	user time   =       0.36 seconds =       0.01 minutes
	system time =       0.25 seconds =       0.00 minutes
	total time  =          3 seconds =       0.05 minutes
Total time:
	user time   =       1.98 seconds =       0.03 minutes
	system time =       1.33 seconds =       0.02 minutes
	total time  =          7 seconds =       0.12 minutes

*** tstart() called on cqc01
*** at Fri Apr 26 15:44:28 2019

            **************************
            *                        *
            *        CCENERGY        *
            *                        *
            **************************

    Nuclear Rep. energy (wfn)     =  106.879403020132131
    SCF energy          (wfn)     = -547.233604425475960
    Reference energy    (file100) = -547.233604425476528

    Input parameters:
    -----------------
    Wave function   =     CCSD
    Reference wfn   =     RHF
    Brueckner       =     No
    Memory (Mbytes) =     32000.0
    Maxiter         =     50
    R_Convergence   =     1.0e-07
    E_Convergence   =     1.0e-06
    Restart         =     Yes
    DIIS            =     Yes
    AO Basis        =     NONE
    ABCD            =     NEW
    Cache Level     =     2
    Cache Type      =     LOW
    Print Level     =     1
    Num. of threads =     1
    # Amps to Print =     10
    Print MP2 Amps? =     No
    Analyze T2 Amps =     No
    Print Pair Ener =     No
    Local CC        =     No
    SCS-MP2         =     False
    SCSN-MP2        =     False
    SCS-CCSD        =     False

MP2 correlation energy -0.5598770268123490
                Solving CC Amplitude Equations
                ------------------------------
  Iter             Energy              RMS        T1Diag      D1Diag    New D1Diag    D2Diag
  ----     ---------------------    ---------   ----------  ----------  ----------   --------
     0        -0.559877026812346    0.000e+00    0.000000    0.000000    0.000000    0.189272
     1        -0.561173348582140    4.001e-01    0.038661    0.103450    0.103450    0.203040
     2        -0.571261609795753    1.130e-01    0.022062    0.054712    0.054712    0.216597
     3        -0.556091508501459    3.112e-02    0.023568    0.060773    0.060773    0.203285
     4        -0.555194154075411    5.578e-03    0.022886    0.058256    0.058256    0.202354
     5        -0.555014791982869    1.563e-03    0.022690    0.057600    0.057600    0.201703
     6        -0.554924304604331    5.441e-04    0.022654    0.057351    0.057351    0.201487
     7        -0.554941889420295    2.103e-04    0.022656    0.057249    0.057249    0.201437
     8        -0.554949310167143    8.266e-05    0.022661    0.057215    0.057215    0.201429
     9        -0.554947793725144    3.286e-05    0.022665    0.057199    0.057199    0.201429
    10        -0.554948532452818    1.001e-05    0.022666    0.057196    0.057196    0.201430
    11        -0.554949196063425    3.468e-06    0.022666    0.057195    0.057195    0.201431
    12        -0.554949161673646    1.210e-06    0.022667    0.057196    0.057196    0.201430
    13        -0.554949220397884    4.133e-07    0.022667    0.057195    0.057195    0.201431
    14        -0.554949212435064    1.757e-07    0.022667    0.057196    0.057196    0.201431
    15        -0.554949209520759    5.508e-08    0.022667    0.057196    0.057196    0.201431
    15        -0.554949209520759    5.508e-08    0.022667    0.057196    0.057196    0.201431

    Iterations converged.


    CCSD corr. energy   =   -0.554949209520759
    PPL corr. energy    =    0.120265227539492
    OS PPL corr. energy =    0.096167132066467
    SS PPL corr. energy =    0.024098095473025
    Largest TIA Amplitudes:
              5  32        -0.0537690943
              8  46        -0.0268496020
              8  44        -0.0211489789
              3   4         0.0208105869
              3   0         0.0192273494
              3   2        -0.0172253629
              2   6        -0.0167143644
              2   4        -0.0162106091
              3   1         0.0155920993
              8  47        -0.0154709039

    Largest TIjAb Amplitudes:
      4   4  32  32        -0.1237651930
      5   5  32  32        -0.0749272172
      3   3  32  32        -0.0617721229
      4   4  32  34        -0.0382768187
      4   4  34  32        -0.0382768187
      4   5  24  32         0.0371266495
      5   4  32  24         0.0371266495
      1   1  32  32        -0.0368641188
      4   8  32   6         0.0351832242
      8   4   6  32         0.0351832242

    SCF energy       (wfn)                    = -547.233604425475960
    Reference energy (file100)                = -547.233604425476528

    Opposite-spin MP2 correlation energy      =   -0.403203565897744
    Same-spin MP2 correlation energy          =   -0.156673460914602
    MP2 correlation energy                    =   -0.559877026812349
      * MP2 total energy                      = -547.793481452288916

    Opposite-spin CCSD correlation energy     =   -0.422960288108278
    Same-spin CCSD correlation energy         =   -0.131988921235270
    CCSD correlation energy                   =   -0.554949209520759
      * CCSD total energy                     = -547.788553634997243


*** tstop() called on cqc01 at Fri Apr 26 15:44:38 2019
Module time:
	user time   =       2.24 seconds =       0.04 minutes
	system time =       4.75 seconds =       0.08 minutes
	total time  =         10 seconds =       0.17 minutes
Total time:
	user time   =       4.22 seconds =       0.07 minutes
	system time =       6.08 seconds =       0.10 minutes
	total time  =         17 seconds =       0.28 minutes

*** Psi4 exiting successfully. Buy a developer a beer!
