
    -----------------------------------------------------------------------
          Psi4: An Open-Source Ab Initio Electronic Structure Package
                               Psi4 1.2a1.dev939 

                         Git: Rev {HEAD} fa1ec19 


    R. M. Parrish, L. A. Burns, D. G. A. Smith, A. C. Simmonett,
    A. E. DePrince III, E. G. Hohenstein, U. Bozkaya, A. Yu. Sokolov,
    R. Di Remigio, R. M. Richard, J. F. Gonthier, A. M. James,
    H. R. McAlexander, A. Kumar, M. Saitow, X. Wang, B. P. Pritchard,
    P. Verma, H. F. Schaefer III, K. Patkowski, R. A. King, E. F. Valeev,
    F. A. Evangelista, J. M. Turney, T. D. Crawford, and C. D. Sherrill,
    J. Chem. Theory Comput. 13(7) pp 3185--3197 (2017).
    (doi: 10.1021/acs.jctc.7b00174)

    -----------------------------------------------------------------------


    Psi4 started on: Friday, 26 April 2019 03:32PM

    Process ID:  24260
    PSIDATADIR: /home/grueneis/src/psi4/objdir/stage/usr/local/psi4/share/psi4
    Memory:     500.0 MiB
    Threads:    1
    
  ==> Input File <==

--------------------------------------------------------------------------
# Any line starting with the # character is a comment line

memory 32000 mb

molecule molecule {
0 1
C          0.0000000000        0.0000000000       -1.1198483656
S          0.0000000000        0.0000000000        0.4195414448
}

set {
  reference rhf
  basis aug-cc-pv(D+d)z
  scf_type OUT_OF_CORE
  freeze_core true
}

energy('ccsd')
--------------------------------------------------------------------------

  Memory set to  29.802 GiB by Python driver.

*** tstart() called on cqc01
*** at Fri Apr 26 15:32:37 2019

   => Loading Basis Set <=

    Name: AUG-CC-PV(D+D)Z
    Role: ORBITAL
    Keyword: BASIS
    atoms 1 entry C          line   198 file /home/grueneis/src/psi4/objdir/stage/usr/local/psi4/share/psi4/basis/aug-cc-pv_dpd_z.gbs 
    atoms 2 entry S          line   724 file /home/grueneis/src/psi4/objdir/stage/usr/local/psi4/share/psi4/basis/aug-cc-pv_dpd_z.gbs 


         ---------------------------------------------------------
                                   SCF
            by Justin Turney, Rob Parrish, Andy Simmonett
                             and Daniel Smith
                              RHF Reference
                        1 Threads,  30517 MiB Core
         ---------------------------------------------------------

  ==> Geometry <==

    Molecular point group: c2v
    Full point group: C_inf_v

    Geometry (in Angstrom), charge = 0, multiplicity = 1:

       Center              X                  Y                   Z               Mass       
    ------------   -----------------  -----------------  -----------------  -----------------
           C          0.000000000000     0.000000000000    -1.119289567106    12.000000000000
           S          0.000000000000     0.000000000000     0.420100243294    31.972070999000

  Running in c2v symmetry.

  Rotational constants: A = ************  B =      0.81531  C =      0.81531 [cm^-1]
  Rotational constants: A = ************  B =  24442.45851  C =  24442.45851 [MHz]
  Nuclear repulsion =   33.000745932857456

  Charge       = 0
  Multiplicity = 1
  Electrons    = 22
  Nalpha       = 11
  Nbeta        = 11

  ==> Algorithm <==

  SCF Algorithm Type is OUT_OF_CORE.
  DIIS enabled.
  MOM disabled.
  Fractional occupation disabled.
  Guess Type is SAD.
  Energy threshold   = 1.00e-08
  Density threshold  = 1.00e-08
  Integral threshold = 0.00e+00

  ==> Primary Basis <==

  Basis Set: AUG-CC-PV(D+D)Z
    Blend: AUG-CC-PV(D+D)Z
    Number of shells: 21
    Number of basis function: 55
    Number of Cartesian functions: 60
    Spherical Harmonics?: true
    Max angular momentum: 2

  ==> Pre-Iterations <==

   -------------------------------------------------------
    Irrep   Nso     Nmo     Nalpha   Nbeta   Ndocc  Nsocc
   -------------------------------------------------------
     A1        26      26       0       0       0       0
     A2         5       5       0       0       0       0
     B1        12      12       0       0       0       0
     B2        12      12       0       0       0       0
   -------------------------------------------------------
    Total      55      55      11      11      11       0
   -------------------------------------------------------

  ==> Integral Setup <==

  ==> DiskJK: Disk-Based J/K Matrices <==

    J tasked:                  Yes
    K tasked:                  Yes
    wK tasked:                  No
    Memory (MB):             22888
    Schwarz Cutoff:          1E-12

  Minimum eigenvalue in the overlap matrix is 4.9600656812E-04.
  Using Symmetric Orthogonalization.

  SCF Guess: Superposition of Atomic Densities via on-the-fly atomic UHF.

  ==> Iterations <==

                        Total Energy        Delta E     RMS |[F,P]|

   @RHF iter   0:  -435.30178812752422   -4.35302e+02   5.51900e-02 
   @RHF iter   1:  -435.28968238429923    1.21057e-02   6.54951e-03 
   @RHF iter   2:  -435.32104124561937   -3.13589e-02   3.78434e-03 DIIS
   @RHF iter   3:  -435.33273946935691   -1.16982e-02   2.21212e-03 DIIS
   @RHF iter   4:  -435.33782331024827   -5.08384e-03   5.72152e-04 DIIS
   @RHF iter   5:  -435.33850674999496   -6.83440e-04   1.71096e-04 DIIS
   @RHF iter   6:  -435.33859868420535   -9.19342e-05   5.94728e-05 DIIS
   @RHF iter   7:  -435.33861379679428   -1.51126e-05   2.92024e-05 DIIS
   @RHF iter   8:  -435.33861797821396   -4.18142e-06   8.59698e-06 DIIS
   @RHF iter   9:  -435.33861821046872   -2.32255e-07   1.14163e-06 DIIS
   @RHF iter  10:  -435.33861821288815   -2.41943e-09   1.61464e-07 DIIS
   @RHF iter  11:  -435.33861821291964   -3.14913e-11   1.84723e-08 DIIS
   @RHF iter  12:  -435.33861821292044   -7.95808e-13   3.82381e-09 DIIS

  ==> Post-Iterations <==

    Orbital Energies (a.u.)
    -----------------------

    Doubly Occupied:                                                      

       1A1   -92.004388     2A1   -11.364491     3A1    -9.011413  
       4A1    -6.692271     1B2    -6.690272     1B1    -6.690272  
       5A1    -1.104365     6A1    -0.695433     7A1    -0.472000  
       2B2    -0.463308     2B1    -0.463308  

    Virtual:                                                              

       3B1     0.046581     3B2     0.046581     8A1     0.064968  
       4B2     0.111140     4B1     0.111140     9A1     0.114595  
      10A1     0.126995     5B2     0.166234     5B1     0.166234  
      11A1     0.247084    12A1     0.309679    13A1     0.328926  
       1A2     0.328926     6B2     0.460909     6B1     0.460909  
      14A1     0.501952    15A1     0.537111     2A2     0.537111  
       7B2     0.654288     7B1     0.654288    16A1     0.663412  
       8B2     0.790331     8B1     0.790331    17A1     0.828979  
      18A1     0.884378     9B2     0.947871     9B1     0.947871  
      19A1     1.044312     3A2     1.044312    10B2     1.058411  
      10B1     1.058411    20A1     1.133126    21A1     1.367344  
      22A1     1.672951     4A2     1.672951    11B2     1.842026  
      11B1     1.842026    23A1     1.885592    24A1     2.292012  
      25A1     5.006998     5A2     5.006998    12B1     5.073381  
      12B2     5.073381    26A1     5.129593  

    Final Occupation by Irrep:
             A1    A2    B1    B2 
    DOCC [     7,    0,    2,    2 ]

  Energy converged.

  @RHF Final Energy:  -435.33861821292044

   => Energetics <=

    Nuclear Repulsion Energy =             33.0007459328574555
    One-Electron Energy =                -665.3756866818029039
    Two-Electron Energy =                 197.0363225360249544
    Total Energy =                       -435.3386182129204371



Properties will be evaluated at   0.000000,   0.000000,   0.000000 Bohr

Properties computed using the SCF density matrix

  Nuclear Dipole Moment: (a.u.)
     X:     0.0000      Y:     0.0000      Z:     0.0111

  Electronic Dipole Moment: (a.u.)
     X:     0.0000      Y:     0.0000      Z:     0.6184

  Dipole Moment: (a.u.)
     X:     0.0000      Y:     0.0000      Z:     0.6295     Total:     0.6295

  Dipole Moment: (Debye)
     X:     0.0000      Y:     0.0000      Z:     1.5999     Total:     1.5999


*** tstop() called on cqc01 at Fri Apr 26 15:32:38 2019
Module time:
	user time   =       0.84 seconds =       0.01 minutes
	system time =       0.48 seconds =       0.01 minutes
	total time  =          1 seconds =       0.02 minutes
Total time:
	user time   =       0.84 seconds =       0.01 minutes
	system time =       0.48 seconds =       0.01 minutes
	total time  =          1 seconds =       0.02 minutes

*** tstart() called on cqc01
*** at Fri Apr 26 15:32:38 2019


	Wfn Parameters:
	--------------------
	Wavefunction         = CCSD
	Number of irreps     = 4
	Number of MOs        = 55
	Number of active MOs = 49
	AO-Basis             = NONE
	Semicanonical        = false
	Reference            = RHF
	Print Level          = 1

	IRREP	# MOs	# FZDC	# DOCC	# SOCC	# VIRT	# FZVR
	-----	-----	------	------	------	------	------
	 A1	   26	    4	    3	    0	    19	    0
	 A2	   5	    0	    0	    0	    5	    0
	 B1	   12	    1	    1	    0	    10	    0
	 B2	   12	    1	    1	    0	    10	    0
	Transforming integrals...
	IWL integrals will be deleted.
	(OO|OO)...
	Presorting SO-basis two-electron integrals.
	Sorting File: SO Ints (nn|nn) nbuckets = 1
	Transforming the one-electron integrals and constructing Fock matrices
	Starting first half-transformation.
	Sorting half-transformed integrals.
	First half integral transformation complete.
	Starting second half-transformation.
	Two-electron integral transformation complete.
	(OO|OV)...
	Starting second half-transformation.
	Two-electron integral transformation complete.
	(OO|VV)...
	Starting second half-transformation.
	Two-electron integral transformation complete.
	(OV|OO)...
	Starting first half-transformation.
	Sorting half-transformed integrals.
	First half integral transformation complete.
	Starting second half-transformation.
	Two-electron integral transformation complete.
	(OV|OV)...
	Starting second half-transformation.
	Two-electron integral transformation complete.
	(OV|VV)...
	Starting second half-transformation.
	Two-electron integral transformation complete.
	(VV|OO)...
	Starting first half-transformation.
	Sorting half-transformed integrals.
	First half integral transformation complete.
	Starting second half-transformation.
	Two-electron integral transformation complete.
	(VV|OV)...
	Starting second half-transformation.
	Two-electron integral transformation complete.
	(VV|VV)...
	Starting second half-transformation.
	Two-electron integral transformation complete.
	Frozen core energy     =   -444.65511911457759

	Size of irrep 0 of <ab|cd> integrals:      0.343 (MW) /      2.747 (MB)
	Size of irrep 1 of <ab|cd> integrals:      0.152 (MW) /      1.217 (MB)
	Size of irrep 2 of <ab|cd> integrals:      0.230 (MW) /      1.843 (MB)
	Size of irrep 3 of <ab|cd> integrals:      0.230 (MW) /      1.843 (MB)
	Total:                                     0.956 (MW) /      7.650 (MB)

	Size of irrep 0 of <ia|bc> integrals:      0.045 (MW) /      0.361 (MB)
	Size of irrep 1 of <ia|bc> integrals:      0.014 (MW) /      0.109 (MB)
	Size of irrep 2 of <ia|bc> integrals:      0.026 (MW) /      0.207 (MB)
	Size of irrep 3 of <ia|bc> integrals:      0.026 (MW) /      0.207 (MB)
	Total:                                     0.111 (MW) /      0.885 (MB)

	Size of irrep 0 of tijab amplitudes:       0.006 (MW) /      0.052 (MB)
	Size of irrep 1 of tijab amplitudes:       0.001 (MW) /      0.006 (MB)
	Size of irrep 2 of tijab amplitudes:       0.003 (MW) /      0.023 (MB)
	Size of irrep 3 of tijab amplitudes:       0.003 (MW) /      0.023 (MB)
	Total:                                     0.013 (MW) /      0.104 (MB)

	Nuclear Rep. energy          =     33.00074593285746
	SCF energy                   =   -435.33861821292044
	One-electron energy          =    -40.97166153337942
	Two-electron energy          =     17.28741650217942
	Reference energy             =   -435.33861821292015

*** tstop() called on cqc01 at Fri Apr 26 15:32:40 2019
Module time:
	user time   =       0.09 seconds =       0.00 minutes
	system time =       0.10 seconds =       0.00 minutes
	total time  =          2 seconds =       0.03 minutes
Total time:
	user time   =       0.93 seconds =       0.02 minutes
	system time =       0.59 seconds =       0.01 minutes
	total time  =          3 seconds =       0.05 minutes

*** tstart() called on cqc01
*** at Fri Apr 26 15:32:40 2019

            **************************
            *                        *
            *        CCENERGY        *
            *                        *
            **************************

    Nuclear Rep. energy (wfn)     =   33.000745932857456
    SCF energy          (wfn)     = -435.338618212920437
    Reference energy    (file100) = -435.338618212920153

    Input parameters:
    -----------------
    Wave function   =     CCSD
    Reference wfn   =     RHF
    Brueckner       =     No
    Memory (Mbytes) =     32000.0
    Maxiter         =     50
    R_Convergence   =     1.0e-07
    E_Convergence   =     1.0e-06
    Restart         =     Yes
    DIIS            =     Yes
    AO Basis        =     NONE
    ABCD            =     NEW
    Cache Level     =     2
    Cache Type      =     LOW
    Print Level     =     1
    Num. of threads =     1
    # Amps to Print =     10
    Print MP2 Amps? =     No
    Analyze T2 Amps =     No
    Print Pair Ener =     No
    Local CC        =     No
    SCS-MP2         =     False
    SCSN-MP2        =     False
    SCS-CCSD        =     False

MP2 correlation energy -0.2556477232180935
                Solving CC Amplitude Equations
                ------------------------------
  Iter             Energy              RMS        T1Diag      D1Diag    New D1Diag    D2Diag
  ----     ---------------------    ---------   ----------  ----------  ----------   --------
     0        -0.255647723218091    0.000e+00    0.000000    0.000000    0.000000    0.166812
     1        -0.289378768378516    2.896e-01    0.039125    0.082002    0.082002    0.195392
     2        -0.282176886838000    7.701e-02    0.024164    0.045495    0.045495    0.191624
     3        -0.273914980428929    2.148e-02    0.025846    0.050999    0.050999    0.185064
     4        -0.273890189796112    3.547e-03    0.025579    0.050028    0.050028    0.185004
     5        -0.273573955643764    1.044e-03    0.025586    0.050017    0.050017    0.184702
     6        -0.273560068157306    3.287e-04    0.025633    0.050067    0.050067    0.184679
     7        -0.273586279429612    1.194e-04    0.025662    0.050114    0.050114    0.184703
     8        -0.273585268129366    4.777e-05    0.025679    0.050138    0.050138    0.184708
     9        -0.273587270562852    1.310e-05    0.025683    0.050144    0.050144    0.184712
    10        -0.273587618579462    3.222e-06    0.025683    0.050145    0.050145    0.184712
    11        -0.273587622873591    1.051e-06    0.025683    0.050145    0.050145    0.184712
    12        -0.273587646203087    2.913e-07    0.025683    0.050145    0.050145    0.184712
    13        -0.273587645688455    9.285e-08    0.025683    0.050145    0.050145    0.184712
    13        -0.273587645688455    9.285e-08    0.025683    0.050145    0.050145    0.184712

    Iterations converged.


    CCSD corr. energy   =   -0.273587645688455
    PPL corr. energy    =    0.078566534051498
    OS PPL corr. energy =    0.064325848476892
    SS PPL corr. energy =    0.014240685574606
    Largest TIA Amplitudes:
              3  24         0.0372468748
              4  34         0.0372468237
              2   4        -0.0286831888
              3  26         0.0179201985
              4  36         0.0179201746
              3  27         0.0160195153
              4  37         0.0160194964
              4  39         0.0137036375
              3  29         0.0137036281
              3  31         0.0134873264

    Largest TIjAb Amplitudes:
      3   3  24  24        -0.1141598530
      4   4  34  34        -0.1141598345
      3   4  24  34        -0.0700954762
      4   3  34  24        -0.0700954762
      2   2  24  24        -0.0640870852
      2   2  34  34        -0.0640870834
      3   3  24  26        -0.0590837115
      3   3  26  24        -0.0590837115
      4   4  34  36        -0.0590837044
      4   4  36  34        -0.0590837044

    SCF energy       (wfn)                    = -435.338618212920437
    Reference energy (file100)                = -435.338618212920153

    Opposite-spin MP2 correlation energy      =   -0.189124328284652
    Same-spin MP2 correlation energy          =   -0.066523394933439
    MP2 correlation energy                    =   -0.255647723218093
      * MP2 total energy                      = -435.594265936138243

    Opposite-spin CCSD correlation energy     =   -0.215157442602547
    Same-spin CCSD correlation energy         =   -0.058430202530138
    CCSD correlation energy                   =   -0.273587645688455
      * CCSD total energy                     = -435.612205858608604


*** tstop() called on cqc01 at Fri Apr 26 15:32:49 2019
Module time:
	user time   =       0.84 seconds =       0.01 minutes
	system time =       2.50 seconds =       0.04 minutes
	total time  =          9 seconds =       0.15 minutes
Total time:
	user time   =       1.77 seconds =       0.03 minutes
	system time =       3.09 seconds =       0.05 minutes
	total time  =         12 seconds =       0.20 minutes

*** Psi4 exiting successfully. Buy a developer a beer!
