
    -----------------------------------------------------------------------
          Psi4: An Open-Source Ab Initio Electronic Structure Package
                               Psi4 1.2a1.dev939 

                         Git: Rev {HEAD} fa1ec19 


    R. M. Parrish, L. A. Burns, D. G. A. Smith, A. C. Simmonett,
    A. E. DePrince III, E. G. Hohenstein, U. Bozkaya, A. Yu. Sokolov,
    R. Di Remigio, R. M. Richard, J. F. Gonthier, A. M. James,
    H. R. McAlexander, A. Kumar, M. Saitow, X. Wang, B. P. Pritchard,
    P. Verma, H. F. Schaefer III, K. Patkowski, R. A. King, E. F. Valeev,
    F. A. Evangelista, J. M. Turney, T. D. Crawford, and C. D. Sherrill,
    J. Chem. Theory Comput. 13(7) pp 3185--3197 (2017).
    (doi: 10.1021/acs.jctc.7b00174)

    -----------------------------------------------------------------------


    Psi4 started on: Wednesday, 01 May 2019 08:30AM

    Process ID:  27040
    PSIDATADIR: /home/grueneis/src/psi4/objdir/stage/usr/local/psi4/share/psi4
    Memory:     500.0 MiB
    Threads:    1
    
  ==> Input File <==

--------------------------------------------------------------------------
# Any line starting with the # character is a comment line

memory 32000 mb

molecule molecule {
0 1
C          0.0000000000        0.0000000000       -1.1198483656
S          0.0000000000        0.0000000000        0.4195414448
}

set {
  reference rhf


  basis aug-cc-pv(5+d)z
  scf_type OUT_OF_CORE
  freeze_core true
}

energy('ccsd')
--------------------------------------------------------------------------

  Memory set to  29.802 GiB by Python driver.

*** tstart() called on cqc01
*** at Wed May  1 08:30:49 2019

   => Loading Basis Set <=

    Name: AUG-CC-PV(5+D)Z
    Role: ORBITAL
    Keyword: BASIS
    atoms 1 entry C          line   223 file /home/grueneis/src/psi4/objdir/stage/usr/local/psi4/share/psi4/basis/aug-cc-pv_5pd_z.gbs 
    atoms 2 entry S          line   971 file /home/grueneis/src/psi4/objdir/stage/usr/local/psi4/share/psi4/basis/aug-cc-pv_5pd_z.gbs 


         ---------------------------------------------------------
                                   SCF
            by Justin Turney, Rob Parrish, Andy Simmonett
                             and Daniel Smith
                              RHF Reference
                        1 Threads,  30517 MiB Core
         ---------------------------------------------------------

  ==> Geometry <==

    Molecular point group: c2v
    Full point group: C_inf_v

    Geometry (in Angstrom), charge = 0, multiplicity = 1:

       Center              X                  Y                   Z               Mass       
    ------------   -----------------  -----------------  -----------------  -----------------
           C          0.000000000000     0.000000000000    -1.119289567106    12.000000000000
           S          0.000000000000     0.000000000000     0.420100243294    31.972070999000

  Running in c2v symmetry.

  Rotational constants: A = ************  B =      0.81531  C =      0.81531 [cm^-1]
  Rotational constants: A = ************  B =  24442.45851  C =  24442.45851 [MHz]
  Nuclear repulsion =   33.000745932857456

  Charge       = 0
  Multiplicity = 1
  Electrons    = 22
  Nalpha       = 11
  Nbeta        = 11

  ==> Algorithm <==

  SCF Algorithm Type is OUT_OF_CORE.
  DIIS enabled.
  MOM disabled.
  Fractional occupation disabled.
  Guess Type is SAD.
  Energy threshold   = 1.00e-08
  Density threshold  = 1.00e-08
  Integral threshold = 0.00e+00

  ==> Primary Basis <==

  Basis Set: AUG-CC-PV(5+D)Z
    Blend: AUG-CC-PV(5+D)Z
    Number of shells: 57
    Number of basis function: 263
    Number of Cartesian functions: 374
    Spherical Harmonics?: true
    Max angular momentum: 5

  ==> Pre-Iterations <==

   -------------------------------------------------------
    Irrep   Nso     Nmo     Nalpha   Nbeta   Ndocc  Nsocc
   -------------------------------------------------------
     A1        96      96       0       0       0       0
     A2        39      39       0       0       0       0
     B1        64      64       0       0       0       0
     B2        64      64       0       0       0       0
   -------------------------------------------------------
    Total     263     263      11      11      11       0
   -------------------------------------------------------

  ==> Integral Setup <==

  ==> DiskJK: Disk-Based J/K Matrices <==

    J tasked:                  Yes
    K tasked:                  Yes
    wK tasked:                  No
    Memory (MB):             22888
    Schwarz Cutoff:          1E-12

  Minimum eigenvalue in the overlap matrix is 9.6405622125E-06.
  Using Symmetric Orthogonalization.

  SCF Guess: Superposition of Atomic Densities via on-the-fly atomic UHF.

  ==> Iterations <==

                        Total Energy        Delta E     RMS |[F,P]|

   @RHF iter   0:  -435.70909543786109   -4.35709e+02   1.60776e-02 
   @RHF iter   1:  -435.33092539605377    3.78170e-01   1.87615e-03 
   @RHF iter   2:  -435.34427059468231   -1.33452e-02   1.30992e-03 DIIS
   @RHF iter   3:  -435.36007398949727   -1.58034e-02   2.50615e-04 DIIS
   @RHF iter   4:  -435.36122707334829   -1.15308e-03   8.42378e-05 DIIS
   @RHF iter   5:  -435.36163594432412   -4.08871e-04   4.53603e-05 DIIS
   @RHF iter   6:  -435.36177531279225   -1.39368e-04   2.07582e-05 DIIS
   @RHF iter   7:  -435.36181242077799   -3.71080e-05   7.58680e-06 DIIS
   @RHF iter   8:  -435.36181630640249   -3.88562e-06   2.40621e-06 DIIS
   @RHF iter   9:  -435.36181662618998   -3.19787e-07   5.20490e-07 DIIS
   @RHF iter  10:  -435.36181663359673   -7.40675e-09   5.44066e-08 DIIS
   @RHF iter  11:  -435.36181663367557   -7.88418e-11   7.82731e-09 DIIS

  ==> Post-Iterations <==

    Orbital Energies (a.u.)
    -----------------------

    Doubly Occupied:                                                      

       1A1   -92.001300     2A1   -11.355787     3A1    -9.007164  
       4A1    -6.687328     1B1    -6.686674     1B2    -6.686674  
       5A1    -1.098599     6A1    -0.692971     7A1    -0.470910  
       2B1    -0.462128     2B2    -0.462128  

    Virtual:                                                              

       8A1     0.038974     3B1     0.044715     3B2     0.044715  
       4B1     0.066111     4B2     0.066111     9A1     0.069099  
      10A1     0.085367     5B1     0.096107     5B2     0.096107  
      11A1     0.148278    12A1     0.177721     1A2     0.177721  
      13A1     0.192907     6B1     0.233404     6B2     0.233404  
       2A2     0.252159    14A1     0.252159    15A1     0.254914  
       7B1     0.265443     7B2     0.265443    16A1     0.293300  
       8B1     0.305764     8B2     0.305764    17A1     0.360620  
       9B1     0.438808     9B2     0.438808    18A1     0.439362  
      10B2     0.448441    10B1     0.448441    19A1     0.454635  
      20A1     0.461706     3A2     0.461706    11B1     0.505911  
      11B2     0.505911     4A2     0.525712    21A1     0.525712  
      22A1     0.599828    12B1     0.628413    12B2     0.628413  
      23A1     0.646908    13B1     0.650017    13B2     0.650017  
       5A2     0.654557    24A1     0.654557    14B1     0.737844  
      14B2     0.737844    25A1     0.746861    26A1     0.820843  
       6A2     0.855879    27A1     0.855879    15B1     0.932752  
      15B2     0.932752    16B1     0.974406    16B2     0.974406  
      28A1     1.023614    29A1     1.062494     7A2     1.062494  
       8A2     1.141408    30A1     1.141408    17B2     1.160334  
      17B1     1.160334    31A1     1.165241    18B1     1.173403  
      18B2     1.173403    19B1     1.185441    19B2     1.185441  
       9A2     1.210617    32A1     1.210617    33A1     1.289270  
      20B1     1.306420    20B2     1.306420    34A1     1.351580  
      21B1     1.369742    21B2     1.369742    10A2     1.393493  
      35A1     1.393493    36A1     1.426459    37A1     1.575832  
      11A2     1.636107    38A1     1.636107    22B1     1.690721  
      22B2     1.690721    23B1     1.743040    23B2     1.743040  
      12A2     1.757267    39A1     1.757267    40A1     1.825727  
      24B1     1.841624    24B2     1.841624    13A2     1.861470  
      41A1     1.861470    25B1     1.930033    25B2     1.930033  
      42A1     2.009486    43A1     2.092552    26B1     2.164887  
      26B2     2.164887    14A2     2.270422    44A1     2.270422  
      45A1     2.475903    27B1     2.492314    27B2     2.492314  
      28B1     2.567335    28B2     2.567335    15A2     2.673424  
      46A1     2.673424    16A2     2.674461    47A1     2.674461  
      29B1     2.679536    29B2     2.679536    30B1     2.707403  
      30B2     2.707403    48A1     2.722617    17A2     2.738485  
      49A1     2.738485    31B1     2.760340    31B2     2.760340  
      18A2     2.791693    50A1     2.791693    32B1     2.813966  
      32B2     2.813966    51A1     2.867524    33B1     2.899367  
      33B2     2.899367    52A1     2.987972    19A2     3.069223  
      53A1     3.069223    34B1     3.192616    34B2     3.192616  
      35B1     3.246522    35B2     3.246522    54A1     3.332937  
      36B2     3.521087    36B1     3.521087    55A1     3.551637  
      20A2     3.568933    56A1     3.568933    21A2     3.845665  
      57A1     3.845665    37B1     3.912935    37B2     3.912935  
      58A1     4.009347    38B1     4.090655    38B2     4.090655  
      22A2     4.106349    59A1     4.106349    60A1     4.158734  
      23A2     4.158734    39B1     4.256149    39B2     4.256149  
      61A1     4.259609    40B1     4.260419    40B2     4.260419  
      62A1     4.348827    24A2     4.348827    41B2     4.365364  
      41B1     4.365364    63A1     4.451911    42B1     4.580269  
      42B2     4.580269    43B1     4.605004    43B2     4.605004  
      25A2     4.677577    64A1     4.677577    65A1     4.782391  
      44B2     5.263277    44B1     5.263277    26A2     5.296921  
      66A1     5.296921    67A1     5.310574    45B1     5.379090  
      45B2     5.379090    46B2     5.644102    46B1     5.644102  
      27A2     5.676666    68A1     5.676666    47B2     5.827014  
      47B1     5.827014    69A1     5.861419    70A1     6.122684  
      28A2     6.134329    71A1     6.134329    48B1     6.195595  
      48B2     6.195595    29A2     6.209867    72A1     6.209867  
      49B2     6.241095    49B1     6.241095    30A2     6.294856  
      73A1     6.294856    74A1     6.322973    31A2     6.402022  
      75A1     6.402022    50B1     6.480988    50B2     6.480988  
      51B1     6.519824    51B2     6.519824    76A1     6.572799  
      77A1     7.060340    52B2     7.133667    52B1     7.133667  
      32A2     7.143035    78A1     7.143035    53B2     7.636221  
      53B1     7.636221    79A1     7.681222    54B1     8.926119  
      54B2     8.926119    80A1     8.938225    55B2     8.993589  
      55B1     8.993589    81A1     9.058774    33A2     9.058774  
      56B1     9.388587    56B2     9.388587    82A1     9.548491  
      34A2     9.548491    83A1     9.656615    57B2     9.757458  
      57B1     9.757458    84A1     9.968496    58B1    10.108503  
      58B2    10.108503    35A2    10.361527    85A1    10.361527  
      86A1    10.524188    36A2    10.524188    59B2    10.528733  
      59B1    10.528733    60B2    10.829234    60B1    10.829234  
      87A1    10.859476    37A2    10.859476    88A1    10.956213  
      61B2    11.904703    61B1    11.904703    89A1    12.409942  
      38A2    12.409942    90A1    12.865215    62B2    13.049045  
      62B1    13.049045    91A1    13.493942    39A2    16.366284  
      92A1    16.366284    63B2    16.803772    63B1    16.803772  
      93A1    16.983659    64B1    25.929671    64B2    25.929671  
      94A1    28.314039    95A1    37.274411    96A1    69.932557  

    Final Occupation by Irrep:
             A1    A2    B1    B2 
    DOCC [     7,    0,    2,    2 ]

  Energy converged.

  @RHF Final Energy:  -435.36181663367557

   => Energetics <=

    Nuclear Repulsion Energy =             33.0007459328574555
    One-Electron Energy =                -665.5018041710455918
    Two-Electron Energy =                 197.1392416045125628
    Total Energy =                       -435.3618166336755166



Properties will be evaluated at   0.000000,   0.000000,   0.000000 Bohr

Properties computed using the SCF density matrix

  Nuclear Dipole Moment: (a.u.)
     X:     0.0000      Y:     0.0000      Z:     0.0111

  Electronic Dipole Moment: (a.u.)
     X:     0.0000      Y:     0.0000      Z:     0.6212

  Dipole Moment: (a.u.)
     X:     0.0000      Y:     0.0000      Z:     0.6323     Total:     0.6323

  Dipole Moment: (Debye)
     X:     0.0000      Y:     0.0000      Z:     1.6071     Total:     1.6071


*** tstop() called on cqc01 at Wed May  1 08:33:16 2019
Module time:
	user time   =      74.59 seconds =       1.24 minutes
	system time =       9.87 seconds =       0.16 minutes
	total time  =        147 seconds =       2.45 minutes
Total time:
	user time   =      74.59 seconds =       1.24 minutes
	system time =       9.87 seconds =       0.16 minutes
	total time  =        147 seconds =       2.45 minutes

*** tstart() called on cqc01
*** at Wed May  1 08:33:16 2019


	Wfn Parameters:
	--------------------
	Wavefunction         = CCSD
	Number of irreps     = 4
	Number of MOs        = 263
	Number of active MOs = 257
	AO-Basis             = NONE
	Semicanonical        = false
	Reference            = RHF
	Print Level          = 1

	IRREP	# MOs	# FZDC	# DOCC	# SOCC	# VIRT	# FZVR
	-----	-----	------	------	------	------	------
	 A1	   96	    4	    3	    0	    89	    0
	 A2	   39	    0	    0	    0	    39	    0
	 B1	   64	    1	    1	    0	    62	    0
	 B2	   64	    1	    1	    0	    62	    0
	Transforming integrals...
	IWL integrals will be deleted.
	(OO|OO)...
	Presorting SO-basis two-electron integrals.
	Sorting File: SO Ints (nn|nn) nbuckets = 1
	Transforming the one-electron integrals and constructing Fock matrices
	Starting first half-transformation.
	Sorting half-transformed integrals.
	First half integral transformation complete.
	Starting second half-transformation.
	Two-electron integral transformation complete.
	(OO|OV)...
	Starting second half-transformation.
	Two-electron integral transformation complete.
	(OO|VV)...
	Starting second half-transformation.
	Two-electron integral transformation complete.
	(OV|OO)...
	Starting first half-transformation.
	Sorting half-transformed integrals.
	First half integral transformation complete.
	Starting second half-transformation.
	Two-electron integral transformation complete.
	(OV|OV)...
	Starting second half-transformation.
	Two-electron integral transformation complete.
	(OV|VV)...
	Starting second half-transformation.
	Two-electron integral transformation complete.
	(VV|OO)...
	Starting first half-transformation.
	Sorting half-transformed integrals.
	First half integral transformation complete.
	Starting second half-transformation.
	Two-electron integral transformation complete.
	(VV|OV)...
	Starting second half-transformation.
	Two-electron integral transformation complete.
	(VV|VV)...
	Starting second half-transformation.
	Two-electron integral transformation complete.
	Frozen core energy     =   -444.66401223846793

	Size of irrep 0 of <ab|cd> integrals:    293.437 (MW) /   2347.495 (MB)
	Size of irrep 1 of <ab|cd> integrals:    214.037 (MW) /   1712.295 (MB)
	Size of irrep 2 of <ab|cd> integrals:    251.920 (MW) /   2015.363 (MB)
	Size of irrep 3 of <ab|cd> integrals:    251.920 (MW) /   2015.363 (MB)
	Total:                                  1011.315 (MW) /   8090.517 (MB)

	Size of irrep 0 of <ia|bc> integrals:      6.698 (MW) /     53.583 (MB)
	Size of irrep 1 of <ia|bc> integrals:      3.526 (MW) /     28.207 (MB)
	Size of irrep 2 of <ia|bc> integrals:      4.984 (MW) /     39.870 (MB)
	Size of irrep 3 of <ia|bc> integrals:      4.984 (MW) /     39.870 (MB)
	Total:                                    20.191 (MW) /    161.530 (MB)

	Size of irrep 0 of tijab amplitudes:       0.188 (MW) /      1.507 (MB)
	Size of irrep 1 of tijab amplitudes:       0.029 (MW) /      0.234 (MB)
	Size of irrep 2 of tijab amplitudes:       0.095 (MW) /      0.762 (MB)
	Size of irrep 3 of tijab amplitudes:       0.095 (MW) /      0.762 (MB)
	Total:                                     0.408 (MW) /      3.265 (MB)

	Nuclear Rep. energy          =     33.00074593285746
	SCF energy                   =   -435.36181663367557
	One-electron energy          =    -41.02362990562318
	Two-electron energy          =     17.32507957755540
	Reference energy             =   -435.36181663367825

*** tstop() called on cqc01 at Wed May  1 08:42:30 2019
Module time:
	user time   =      94.98 seconds =       1.58 minutes
	system time =      79.44 seconds =       1.32 minutes
	total time  =        554 seconds =       9.23 minutes
Total time:
	user time   =     169.57 seconds =       2.83 minutes
	system time =      89.31 seconds =       1.49 minutes
	total time  =        701 seconds =      11.68 minutes

*** tstart() called on cqc01
*** at Wed May  1 08:42:30 2019

            **************************
            *                        *
            *        CCENERGY        *
            *                        *
            **************************

    Nuclear Rep. energy (wfn)     =   33.000745932857456
    SCF energy          (wfn)     = -435.361816633675573
    Reference energy    (file100) = -435.361816633678245

    Input parameters:
    -----------------
    Wave function   =     CCSD
    Reference wfn   =     RHF
    Brueckner       =     No
    Memory (Mbytes) =     32000.0
    Maxiter         =     50
    R_Convergence   =     1.0e-07
    E_Convergence   =     1.0e-06
    Restart         =     Yes
    DIIS            =     Yes
    AO Basis        =     NONE
    ABCD            =     NEW
    Cache Level     =     2
    Cache Type      =     LOW
    Print Level     =     1
    Num. of threads =     1
    # Amps to Print =     10
    Print MP2 Amps? =     No
    Analyze T2 Amps =     No
    Print Pair Ener =     No
    Local CC        =     No
    SCS-MP2         =     False
    SCSN-MP2        =     False
    SCS-CCSD        =     False

MP2 correlation energy -0.3367357509509448
                Solving CC Amplitude Equations
                ------------------------------
  Iter             Energy              RMS        T1Diag      D1Diag    New D1Diag    D2Diag
  ----     ---------------------    ---------   ----------  ----------  ----------   --------
     0        -0.336735750950754    0.000e+00    0.000000    0.000000    0.000000    0.175191
     1        -0.351026591141938    3.279e-01    0.040002    0.083805    0.083805    0.192961
     2        -0.355417707081531    9.048e-02    0.022258    0.041853    0.041853    0.194934
     3        -0.346146233729939    2.935e-02    0.024825    0.049485    0.049485    0.187400
     4        -0.345147734834418    4.379e-03    0.024534    0.048355    0.048355    0.186456
     5        -0.345082517923254    1.282e-03    0.024498    0.048254    0.048254    0.186251
     6        -0.344974949627894    4.869e-04    0.024550    0.048293    0.048293    0.186100
     7        -0.345001978886228    1.694e-04    0.024587    0.048346    0.048346    0.186106
     8        -0.345008050718349    6.592e-05    0.024606    0.048371    0.048371    0.186112
     9        -0.345006913154005    2.244e-05    0.024613    0.048381    0.048381    0.186114
    10        -0.345007496876871    6.553e-06    0.024615    0.048383    0.048383    0.186115
    11        -0.345007728546302    2.170e-06    0.024615    0.048384    0.048384    0.186116
    12        -0.345007757923387    7.290e-07    0.024615    0.048384    0.048384    0.186116
    13        -0.345007781997031    2.018e-07    0.024615    0.048384    0.048384    0.186116
    14        -0.345007778738774    5.832e-08    0.024615    0.048384    0.048384    0.186116
    14        -0.345007778738774    5.832e-08    0.024615    0.048384    0.048384    0.186116

    Iterations converged.


    CCSD corr. energy   =   -0.345007778738774
    PPL corr. energy    =    0.110386909250936
    OS PPL corr. energy =    0.092716858438978
    SS PPL corr. energy =    0.017670050811958
    Largest TIA Amplitudes:
              3 128         0.0326336669
              4 190         0.0326333986
              2  11         0.0154071918
              2   8         0.0153033931
              3 130         0.0151225831
              4 192         0.0151224710
              3 133         0.0150256842
              4 195         0.0150256164
              2   5         0.0137693756
              3 136         0.0135100220

    Largest TIjAb Amplitudes:
      3   3 128 128        -0.0977171477
      4   4 190 190        -0.0977171055
      3   4 128 190        -0.0601733089
      4   3 190 128        -0.0601733089
      2   2 190 190        -0.0552777253
      2   2 128 128        -0.0552777097
      3   3 128 130        -0.0543586761
      3   3 130 128        -0.0543586761
      4   4 190 192        -0.0543586647
      4   4 192 190        -0.0543586647

    SCF energy       (wfn)                    = -435.361816633675573
    Reference energy (file100)                = -435.361816633678245

    Opposite-spin MP2 correlation energy      =   -0.258390755678944
    Same-spin MP2 correlation energy          =   -0.078344995271810
    MP2 correlation energy                    =   -0.336735750950945
      * MP2 total energy                      = -435.698552384629181

    Opposite-spin CCSD correlation energy     =   -0.276094563660166
    Same-spin CCSD correlation energy         =   -0.068913240589202
    CCSD correlation energy                   =   -0.345007778738774
      * CCSD total energy                     = -435.706824412417006


*** tstop() called on cqc01 at Wed May  1 08:47:06 2019
Module time:
	user time   =      21.12 seconds =       0.35 minutes
	system time =      40.27 seconds =       0.67 minutes
	total time  =        276 seconds =       4.60 minutes
Total time:
	user time   =     190.69 seconds =       3.18 minutes
	system time =     129.58 seconds =       2.16 minutes
	total time  =        977 seconds =      16.28 minutes

*** Psi4 exiting successfully. Buy a developer a beer!
