
    -----------------------------------------------------------------------
          Psi4: An Open-Source Ab Initio Electronic Structure Package
                               Psi4 1.2a1.dev939 

                         Git: Rev {HEAD} fa1ec19 


    R. M. Parrish, L. A. Burns, D. G. A. Smith, A. C. Simmonett,
    A. E. DePrince III, E. G. Hohenstein, U. Bozkaya, A. Yu. Sokolov,
    R. Di Remigio, R. M. Richard, J. F. Gonthier, A. M. James,
    H. R. McAlexander, A. Kumar, M. Saitow, X. Wang, B. P. Pritchard,
    P. Verma, H. F. Schaefer III, K. Patkowski, R. A. King, E. F. Valeev,
    F. A. Evangelista, J. M. Turney, T. D. Crawford, and C. D. Sherrill,
    J. Chem. Theory Comput. 13(7) pp 3185--3197 (2017).
    (doi: 10.1021/acs.jctc.7b00174)

    -----------------------------------------------------------------------


    Psi4 started on: Sunday, 28 April 2019 04:50AM

    Process ID:  15204
    PSIDATADIR: /home/grueneis/src/psi4/objdir/stage/usr/local/psi4/share/psi4
    Memory:     500.0 MiB
    Threads:    1
    
  ==> Input File <==

--------------------------------------------------------------------------
# Any line starting with the # character is a comment line

memory 32000 mb

molecule molecule {
0 1
C          0.0000000000        0.0000000000       -1.1198483656
S          0.0000000000        0.0000000000        0.4195414448
}

set {
  reference rhf
  basis aug-cc-pv(Q+d)z
  scf_type OUT_OF_CORE
  freeze_core true
}

energy('ccsd')
--------------------------------------------------------------------------

  Memory set to  29.802 GiB by Python driver.

*** tstart() called on cqc01
*** at Sun Apr 28 04:50:12 2019

   => Loading Basis Set <=

    Name: AUG-CC-PV(Q+D)Z
    Role: ORBITAL
    Keyword: BASIS
    atoms 1 entry C          line   319 file /home/grueneis/src/psi4/objdir/stage/usr/local/psi4/share/psi4/basis/aug-cc-pv_qpd_z.gbs 
    atoms 2 entry S          line  1148 file /home/grueneis/src/psi4/objdir/stage/usr/local/psi4/share/psi4/basis/aug-cc-pv_qpd_z.gbs 


         ---------------------------------------------------------
                                   SCF
            by Justin Turney, Rob Parrish, Andy Simmonett
                             and Daniel Smith
                              RHF Reference
                        1 Threads,  30517 MiB Core
         ---------------------------------------------------------

  ==> Geometry <==

    Molecular point group: c2v
    Full point group: C_inf_v

    Geometry (in Angstrom), charge = 0, multiplicity = 1:

       Center              X                  Y                   Z               Mass       
    ------------   -----------------  -----------------  -----------------  -----------------
           C          0.000000000000     0.000000000000    -1.119289567106    12.000000000000
           S          0.000000000000     0.000000000000     0.420100243294    31.972070999000

  Running in c2v symmetry.

  Rotational constants: A = ************  B =      0.81531  C =      0.81531 [cm^-1]
  Rotational constants: A = ************  B =  24442.45851  C =  24442.45851 [MHz]
  Nuclear repulsion =   33.000745932857456

  Charge       = 0
  Multiplicity = 1
  Electrons    = 22
  Nalpha       = 11
  Nbeta        = 11

  ==> Algorithm <==

  SCF Algorithm Type is OUT_OF_CORE.
  DIIS enabled.
  MOM disabled.
  Fractional occupation disabled.
  Guess Type is SAD.
  Energy threshold   = 1.00e-08
  Density threshold  = 1.00e-08
  Integral threshold = 0.00e+00

  ==> Primary Basis <==

  Basis Set: AUG-CC-PV(Q+D)Z
    Blend: AUG-CC-PV(Q+D)Z
    Number of shells: 43
    Number of basis function: 169
    Number of Cartesian functions: 220
    Spherical Harmonics?: true
    Max angular momentum: 4

  ==> Pre-Iterations <==

   -------------------------------------------------------
    Irrep   Nso     Nmo     Nalpha   Nbeta   Ndocc  Nsocc
   -------------------------------------------------------
     A1        66      66       0       0       0       0
     A2        23      23       0       0       0       0
     B1        40      40       0       0       0       0
     B2        40      40       0       0       0       0
   -------------------------------------------------------
    Total     169     169      11      11      11       0
   -------------------------------------------------------

  ==> Integral Setup <==

  ==> DiskJK: Disk-Based J/K Matrices <==

    J tasked:                  Yes
    K tasked:                  Yes
    wK tasked:                  No
    Memory (MB):             22888
    Schwarz Cutoff:          1E-12

  Minimum eigenvalue in the overlap matrix is 3.7576021203E-05.
  Using Symmetric Orthogonalization.

  SCF Guess: Superposition of Atomic Densities via on-the-fly atomic UHF.

  ==> Iterations <==

                        Total Energy        Delta E     RMS |[F,P]|

   @RHF iter   0:  -435.63030891745677   -4.35630e+02   2.33930e-02 
   @RHF iter   1:  -435.33535663556427    2.94952e-01   2.20934e-03 
   @RHF iter   2:  -435.34702350820510   -1.16669e-02   1.80305e-03 DIIS
   @RHF iter   3:  -435.36005524663926   -1.30317e-02   2.22752e-04 DIIS
   @RHF iter   4:  -435.36064631053415   -5.91064e-04   8.92077e-05 DIIS
   @RHF iter   5:  -435.36080099298715   -1.54682e-04   4.87038e-05 DIIS
   @RHF iter   6:  -435.36087392365579   -7.29307e-05   2.69661e-05 DIIS
   @RHF iter   7:  -435.36090637282376   -3.24492e-05   5.28033e-06 DIIS
   @RHF iter   8:  -435.36090730225595   -9.29432e-07   5.12946e-07 DIIS
   @RHF iter   9:  -435.36090730556731   -3.31136e-09   1.25602e-07 DIIS
   @RHF iter  10:  -435.36090730573886   -1.71553e-10   3.90717e-08 DIIS
   @RHF iter  11:  -435.36090730576331   -2.44427e-11   9.24460e-09 DIIS

  ==> Post-Iterations <==

    Orbital Energies (a.u.)
    -----------------------

    Doubly Occupied:                                                      

       1A1   -92.000400     2A1   -11.356134     3A1    -9.007075  
       4A1    -6.687223     1B2    -6.686582     1B1    -6.686582  
       5A1    -1.098768     6A1    -0.693038     7A1    -0.470929  
       2B2    -0.462179     2B1    -0.462179  

    Virtual:                                                              

       3B2     0.045280     3B1     0.045280     8A1     0.046182  
       9A1     0.076780     4B2     0.078324     4B1     0.078324  
      10A1     0.098293     5B2     0.107779     5B1     0.107779  
      11A1     0.165745    12A1     0.191382     1A2     0.191382  
      13A1     0.220362     6B2     0.271039     6B1     0.271039  
      14A1     0.282636     2A2     0.286448    15A1     0.286448  
       7B2     0.296776     7B1     0.296776    16A1     0.348092  
       8B2     0.393689     8B1     0.393689    17A1     0.459032  
      18A1     0.499304    19A1     0.504009     3A2     0.504009  
      20A1     0.534839     9B2     0.545035     9B1     0.545035  
      10B2     0.549000    10B1     0.549000    11B2     0.585270  
      11B1     0.585270    21A1     0.615671     4A2     0.615671  
      22A1     0.693170    12B2     0.745953    12B1     0.745953  
      23A1     0.819123    13B2     0.833670    13B1     0.833670  
       5A2     0.834532    24A1     0.834532    14B2     0.926868  
      14B1     0.926868    25A1     0.981109     6A2     1.047675  
      26A1     1.047675    27A1     1.067471    28A1     1.128481  
      15B2     1.186586    15B1     1.186586     7A2     1.298935  
      29A1     1.298935    16B2     1.388803    16B1     1.388803  
      30A1     1.419987    31A1     1.450798     8A2     1.450798  
      17B2     1.492674    17B1     1.492674    18B1     1.497983  
      18B2     1.497983     9A2     1.562878    32A1     1.562878  
      19B1     1.577407    19B2     1.577407    20B2     1.597818  
      20B1     1.597818    33A1     1.650496    34A1     1.753327  
      21B2     1.821397    21B1     1.821397    10A2     1.857799  
      35A1     1.857799    36A1     2.079788    37A1     2.175973  
      11A2     2.175973    38A1     2.219380    12A2     2.271396  
      39A1     2.271396    22B2     2.281373    22B1     2.281373  
      40A1     2.315884    23B1     2.319714    23B2     2.319714  
      24B2     2.440945    24B1     2.440945    13A2     2.493704  
      41A1     2.493704    25B1     2.503426    25B2     2.503426  
      42A1     2.528939    43A1     2.772534    26B2     2.848289  
      26B1     2.848289    14A2     2.950969    44A1     2.950969  
      27B1     3.022548    27B2     3.022548    45A1     3.045415  
      15A2     3.204951    46A1     3.204951    28B1     3.454344  
      28B2     3.454344    47A1     3.537105    29B1     3.665820  
      29B2     3.665820    16A2     3.729020    48A1     3.729020  
      49A1     3.818135    17A2     3.818135    30B1     3.878464  
      30B2     3.878464    50A1     3.994227    31B1     4.007122  
      31B2     4.007122    18A2     4.208883    51A1     4.208883  
      52A1     4.209554    53A1     4.558855    32B1     4.637760  
      32B2     4.637760    33B1     5.902737    33B2     5.902737  
      54A1     5.939419    19A2     5.939419    34B1     6.105839  
      34B2     6.105839    35B2     6.185659    35B1     6.185659  
      20A2     6.275196    55A1     6.275196    36B2     6.358070  
      36B1     6.358070    56A1     6.365045    37B2     6.489456  
      37B1     6.489456    21A2     6.555121    57A1     6.555121  
      58A1     6.649967    22A2     6.788687    59A1     6.788687  
      60A1     6.891155    38B1     7.135771    38B2     7.135771  
      61A1     7.553766    39B1     7.632276    39B2     7.632276  
      62A1     8.938105    23A2     9.285483    63A1     9.285483  
      40B1     9.535891    40B2     9.535891    64A1    10.086236  
      65A1    20.589254    66A1    22.033738  

    Final Occupation by Irrep:
             A1    A2    B1    B2 
    DOCC [     7,    0,    2,    2 ]

  Energy converged.

  @RHF Final Energy:  -435.36090730576331

   => Energetics <=

    Nuclear Repulsion Energy =             33.0007459328574555
    One-Electron Energy =                -665.5011281241677352
    Two-Electron Energy =                 197.1394748855470311
    Total Energy =                       -435.3609073057633054



Properties will be evaluated at   0.000000,   0.000000,   0.000000 Bohr

Properties computed using the SCF density matrix

  Nuclear Dipole Moment: (a.u.)
     X:     0.0000      Y:     0.0000      Z:     0.0111

  Electronic Dipole Moment: (a.u.)
     X:     0.0000      Y:     0.0000      Z:     0.6206

  Dipole Moment: (a.u.)
     X:     0.0000      Y:     0.0000      Z:     0.6317     Total:     0.6317

  Dipole Moment: (Debye)
     X:     0.0000      Y:     0.0000      Z:     1.6056     Total:     1.6056


*** tstop() called on cqc01 at Sun Apr 28 04:51:03 2019
Module time:
	user time   =      13.07 seconds =       0.22 minutes
	system time =       4.90 seconds =       0.08 minutes
	total time  =         51 seconds =       0.85 minutes
Total time:
	user time   =      13.07 seconds =       0.22 minutes
	system time =       4.90 seconds =       0.08 minutes
	total time  =         51 seconds =       0.85 minutes

*** tstart() called on cqc01
*** at Sun Apr 28 04:51:03 2019


	Wfn Parameters:
	--------------------
	Wavefunction         = CCSD
	Number of irreps     = 4
	Number of MOs        = 169
	Number of active MOs = 163
	AO-Basis             = NONE
	Semicanonical        = false
	Reference            = RHF
	Print Level          = 1

	IRREP	# MOs	# FZDC	# DOCC	# SOCC	# VIRT	# FZVR
	-----	-----	------	------	------	------	------
	 A1	   66	    4	    3	    0	    59	    0
	 A2	   23	    0	    0	    0	    23	    0
	 B1	   40	    1	    1	    0	    38	    0
	 B2	   40	    1	    1	    0	    38	    0
	Transforming integrals...
	IWL integrals will be deleted.
	(OO|OO)...
	Presorting SO-basis two-electron integrals.
	Sorting File: SO Ints (nn|nn) nbuckets = 1
	Transforming the one-electron integrals and constructing Fock matrices
	Starting first half-transformation.
	Sorting half-transformed integrals.
	First half integral transformation complete.
	Starting second half-transformation.
	Two-electron integral transformation complete.
	(OO|OV)...
	Starting second half-transformation.
	Two-electron integral transformation complete.
	(OO|VV)...
	Starting second half-transformation.
	Two-electron integral transformation complete.
	(OV|OO)...
	Starting first half-transformation.
	Sorting half-transformed integrals.
	First half integral transformation complete.
	Starting second half-transformation.
	Two-electron integral transformation complete.
	(OV|OV)...
	Starting second half-transformation.
	Two-electron integral transformation complete.
	(OV|VV)...
	Starting second half-transformation.
	Two-electron integral transformation complete.
	(VV|OO)...
	Starting first half-transformation.
	Sorting half-transformed integrals.
	First half integral transformation complete.
	Starting second half-transformation.
	Two-electron integral transformation complete.
	(VV|OV)...
	Starting second half-transformation.
	Two-electron integral transformation complete.
	(VV|VV)...
	Starting second half-transformation.
	Two-electron integral transformation complete.
	Frozen core energy     =   -444.66362200647188

	Size of irrep 0 of <ab|cd> integrals:     47.582 (MW) /    380.659 (MB)
	Size of irrep 1 of <ab|cd> integrals:     31.382 (MW) /    251.059 (MB)
	Size of irrep 2 of <ab|cd> integrals:     38.838 (MW) /    310.703 (MB)
	Size of irrep 3 of <ab|cd> integrals:     38.838 (MW) /    310.703 (MB)
	Total:                                   156.640 (MW) /   1253.124 (MB)

	Size of irrep 0 of <ia|bc> integrals:      1.745 (MW) /     13.962 (MB)
	Size of irrep 1 of <ia|bc> integrals:      0.812 (MW) /      6.498 (MB)
	Size of irrep 2 of <ia|bc> integrals:      1.221 (MW) /      9.772 (MB)
	Size of irrep 3 of <ia|bc> integrals:      1.221 (MW) /      9.772 (MB)
	Total:                                     5.000 (MW) /     40.003 (MB)

	Size of irrep 0 of tijab amplitudes:       0.076 (MW) /      0.607 (MB)
	Size of irrep 1 of tijab amplitudes:       0.011 (MW) /      0.090 (MB)
	Size of irrep 2 of tijab amplitudes:       0.037 (MW) /      0.299 (MB)
	Size of irrep 3 of tijab amplitudes:       0.037 (MW) /      0.299 (MB)
	Total:                                     0.162 (MW) /      1.295 (MB)

	Nuclear Rep. energy          =     33.00074593285746
	SCF energy                   =   -435.36090730576331
	One-electron energy          =    -41.02187773916350
	Two-electron energy          =     17.32384650701571
	Reference energy             =   -435.36090730576223

*** tstop() called on cqc01 at Sun Apr 28 04:53:25 2019
Module time:
	user time   =      10.05 seconds =       0.17 minutes
	system time =       5.49 seconds =       0.09 minutes
	total time  =        142 seconds =       2.37 minutes
Total time:
	user time   =      23.12 seconds =       0.39 minutes
	system time =      10.39 seconds =       0.17 minutes
	total time  =        193 seconds =       3.22 minutes

*** tstart() called on cqc01
*** at Sun Apr 28 04:53:25 2019

            **************************
            *                        *
            *        CCENERGY        *
            *                        *
            **************************

    Nuclear Rep. energy (wfn)     =   33.000745932857456
    SCF energy          (wfn)     = -435.360907305763305
    Reference energy    (file100) = -435.360907305762225

    Input parameters:
    -----------------
    Wave function   =     CCSD
    Reference wfn   =     RHF
    Brueckner       =     No
    Memory (Mbytes) =     32000.0
    Maxiter         =     50
    R_Convergence   =     1.0e-07
    E_Convergence   =     1.0e-06
    Restart         =     Yes
    DIIS            =     Yes
    AO Basis        =     NONE
    ABCD            =     NEW
    Cache Level     =     2
    Cache Type      =     LOW
    Print Level     =     1
    Num. of threads =     1
    # Amps to Print =     10
    Print MP2 Amps? =     No
    Analyze T2 Amps =     No
    Print Pair Ener =     No
    Local CC        =     No
    SCS-MP2         =     False
    SCSN-MP2        =     False
    SCS-CCSD        =     False

MP2 correlation energy -0.3279784921217080
                Solving CC Amplitude Equations
                ------------------------------
  Iter             Energy              RMS        T1Diag      D1Diag    New D1Diag    D2Diag
  ----     ---------------------    ---------   ----------  ----------  ----------   --------
     0        -0.327978492121307    0.000e+00    0.000000    0.000000    0.000000    0.174692
     1        -0.348913480547911    3.227e-01    0.039939    0.083728    0.083728    0.194832
     2        -0.349846141872383    8.984e-02    0.022343    0.041953    0.041953    0.195382
     3        -0.340299605932507    2.876e-02    0.024848    0.049482    0.049482    0.187867
     4        -0.339563532345202    4.181e-03    0.024587    0.048426    0.048426    0.187113
     5        -0.339444303488815    1.258e-03    0.024563    0.048348    0.048348    0.186877
     6        -0.339339907675005    4.728e-04    0.024620    0.048397    0.048397    0.186738
     7        -0.339373507564106    1.657e-04    0.024658    0.048452    0.048452    0.186751
     8        -0.339378316361936    6.542e-05    0.024678    0.048479    0.048479    0.186758
     9        -0.339377359838729    2.120e-05    0.024684    0.048488    0.048488    0.186760
    10        -0.339378046793708    6.135e-06    0.024686    0.048491    0.048491    0.186761
    11        -0.339378228444198    2.011e-06    0.024686    0.048491    0.048491    0.186762
    12        -0.339378255610435    6.360e-07    0.024686    0.048491    0.048491    0.186762
    13        -0.339378281303478    1.893e-07    0.024686    0.048491    0.048491    0.186762
    14        -0.339378275721916    5.154e-08    0.024686    0.048491    0.048491    0.186762
    14        -0.339378275721916    5.154e-08    0.024686    0.048491    0.048491    0.186762

    Iterations converged.


    CCSD corr. energy   =   -0.339378275721916
    PPL corr. energy    =    0.106524083675636
    OS PPL corr. energy =    0.089094591798618
    SS PPL corr. energy =    0.017429491877017
    Largest TIA Amplitudes:
              4 120         0.0336642724
              3  82         0.0336641129
              4 128         0.0186324590
              3  90         0.0186324310
              2   8         0.0185042895
              4 122         0.0160682735
              3  84         0.0160682030
              2   5        -0.0149980283
              2  12         0.0124434120
              4 123         0.0121915875

    Largest TIjAb Amplitudes:
      4   4 120 120        -0.1019389035
      3   3  82  82        -0.1019388684
      3   4  82 120        -0.0627194236
      4   3 120  82        -0.0627194236
      2   2 120 120        -0.0576284217
      2   2  82  82        -0.0576284213
      4   4 120 122        -0.0536367180
      4   4 122 120        -0.0536367180
      3   3  82  84        -0.0536367100
      3   3  84  82        -0.0536367100

    SCF energy       (wfn)                    = -435.360907305763305
    Reference energy (file100)                = -435.360907305762225

    Opposite-spin MP2 correlation energy      =   -0.250395236523003
    Same-spin MP2 correlation energy          =   -0.077583255598305
    MP2 correlation energy                    =   -0.327978492121708
      * MP2 total energy                      = -435.688885797883927

    Opposite-spin CCSD correlation energy     =   -0.271046207176319
    Same-spin CCSD correlation energy         =   -0.068332107737071
    CCSD correlation energy                   =   -0.339378275721916
      * CCSD total energy                     = -435.700285581484138


*** tstop() called on cqc01 at Sun Apr 28 05:00:20 2019
Module time:
	user time   =       7.28 seconds =       0.12 minutes
	system time =      13.77 seconds =       0.23 minutes
	total time  =        415 seconds =       6.92 minutes
Total time:
	user time   =      30.40 seconds =       0.51 minutes
	system time =      24.16 seconds =       0.40 minutes
	total time  =        608 seconds =      10.13 minutes

*** Psi4 exiting successfully. Buy a developer a beer!
