
    -----------------------------------------------------------------------
          Psi4: An Open-Source Ab Initio Electronic Structure Package
                               Psi4 1.4a3.dev88 

                         Git: Rev {master} 262e345 


    D. G. A. Smith, L. A. Burns, A. C. Simmonett, R. M. Parrish,
    M. C. Schieber, R. Galvelis, P. Kraus, H. Kruse, R. Di Remigio,
    A. Alenaizan, A. M. James, S. Lehtola, J. P. Misiewicz, M. Scheurer,
    R. A. Shaw, J. B. Schriber, Y. Xie, Z. L. Glick, D. A. Sirianni,
    J. S. O'Brien, J. M. Waldrop, A. Kumar, E. G. Hohenstein,
    B. P. Pritchard, B. R. Brooks, H. F. Schaefer III, A. Yu. Sokolov,
    K. Patkowski, A. E. DePrince III, U. Bozkaya, R. A. King,
    F. A. Evangelista, J. M. Turney, T. D. Crawford, C. D. Sherrill,
    J. Chem. Phys. 152(18) 184108 (2020). https://doi.org/10.1063/5.0006002

                            Additional Code Authors
    E. T. Seidl, C. L. Janssen, E. F. Valeev, M. L. Leininger,
    J. F. Gonthier, R. M. Richard, H. R. McAlexander, M. Saitow, X. Wang,
    P. Verma, and M. H. Lechner

             Previous Authors, Complete List of Code Contributors,
                       and Citations for Specific Modules
    https://github.com/psi4/psi4/blob/master/codemeta.json
    https://github.com/psi4/psi4/graphs/contributors
    http://psicode.org/psi4manual/master/introduction.html#citing-psifour

    -----------------------------------------------------------------------


    Psi4 started on: Friday, 22 January 2021 04:57AM

    Process ID: 51709
    Host:       n412-045.vsc4.prov
    PSIDATADIR: /home/fs71337/gallo4/psi4/psi4/build/stage/share/psi4
    Memory:     500.0 MiB
    Threads:    48
    
  ==> Input File <==

--------------------------------------------------------------------------
# Any line starting with the # character is a comment line
memory 250000 mb
molecule molecule{
0 2
P          0.0000000000        0.0000000000        0.0599907894
H          0.0000000000       -1.0156462266       -0.9217514498
H          0.0000000000        1.0156462266       -0.9217514498
}

set {
  reference uhf
  basis aug-cc-pV(5+d)Z
  scf_type OUT_OF_CORE
  freeze_core true
}

energy('ccsd(t)')
--------------------------------------------------------------------------

  Memory set to 232.831 GiB by Python driver.

Scratch directory: /binfl/lv71337/airmler/temp/

*** tstart() called on n412-045.vsc4.prov
*** at Fri Jan 22 04:57:34 2021

   => Loading Basis Set <=

    Name: AUG-CC-PV(5+D)Z
    Role: ORBITAL
    Keyword: BASIS
    atoms 1   entry P          line  1330 file /home/fs71337/gallo4/psi4/psi4/build/stage/share/psi4/basis/aug-cc-pv_5pd_z.gbs 
    atoms 2-3 entry H          line    69 file /home/fs71337/gallo4/psi4/psi4/build/stage/share/psi4/basis/aug-cc-pv_5pd_z.gbs 


         ---------------------------------------------------------
                                   SCF
               by Justin Turney, Rob Parrish, Andy Simmonett
                          and Daniel G. A. Smith
                              UHF Reference
                       48 Threads, 238418 MiB Core
         ---------------------------------------------------------

  ==> Geometry <==

    Molecular point group: c2v
    Full point group: C2v

    Geometry (in Angstrom), charge = 0, multiplicity = 2:

       Center              X                  Y                   Z               Mass       
    ------------   -----------------  -----------------  -----------------  -----------------
         P            0.000000000000     0.000000000000     0.059984361163    30.973761998420
         H            0.000000000000    -1.015646226600    -0.921757878037     1.007825032230
         H           -0.000000000000     1.015646226600    -0.921757878037     1.007825032230

  Running in c2v symmetry.

  Rotational constants: A =      9.24202  B =      8.10768  C =      4.31888 [cm^-1]
  Rotational constants: A = 277068.86629  B = 243062.04297  C = 129476.87493 [MHz]
  Nuclear repulsion =   11.499114572938225

  Charge       = 0
  Multiplicity = 2
  Electrons    = 17
  Nalpha       = 9
  Nbeta        = 8

  ==> Algorithm <==

  SCF Algorithm Type is OUT_OF_CORE.
  DIIS enabled.
  MOM disabled.
  Fractional occupation disabled.
  Guess Type is SAD.
  Energy threshold   = 1.00e-08
  Density threshold  = 1.00e-08
  Integral threshold = 1.00e-12

  ==> Primary Basis <==

  Basis Set: AUG-CC-PV(5+D)Z
    Blend: AUG-CC-PV(5+D)Z
    Number of shells: 70
    Number of basis function: 296
    Number of Cartesian functions: 402
    Spherical Harmonics?: true
    Max angular momentum: 5

  ==> Integral Setup <==

  ==> DiskJK: Disk-Based J/K Matrices <==

    J tasked:                  Yes
    K tasked:                  Yes
    wK tasked:                  No
    Memory [MiB]:           178813
    Schwarz Cutoff:          1E-12

  Minimum eigenvalue in the overlap matrix is 1.6953055583E-05.
  Reciprocal condition number of the overlap matrix is 2.2633267933E-06.
    Using symmetric orthogonalization.

  ==> Pre-Iterations <==

  SCF Guess: Superposition of Atomic Densities via on-the-fly atomic UHF (no occupation information).


 WARNING: Atomic UHF is not converging! Try casting from a smaller basis or call Rob at CCMST.

 WARNING: Atomic UHF is not converging! Try casting from a smaller basis or call Rob at CCMST.
   -------------------------
    Irrep   Nso     Nmo    
   -------------------------
     A1       100     100 
     A2        50      50 
     B1        63      63 
     B2        83      83 
   -------------------------
    Total     296     296
   -------------------------

  ==> Iterations <==

                        Total Energy        Delta E     RMS |[F,P]|

   @UHF iter SAD:   -57.18783480366118   -5.71878e+01   0.00000e+00 
    Occupation by irrep:
             A1    A2    B1    B2 
    DOCC [     5,    0,    1,    2 ]
    SOCC [     0,    0,    0,    1 ]

   @UHF iter   1:  -331.92034352201125   -2.74733e+02   5.17562e-02 DIIS
    Occupation by irrep:
             A1    A2    B1    B2 
    DOCC [     5,    0,    1,    2 ]
    SOCC [     0,    0,    1,    0 ]

   @UHF iter   2:  -337.20195843097230   -5.28161e+00   2.40662e-02 DIIS
   @UHF iter   3:  -341.58393943601442   -4.38198e+00   5.38431e-03 DIIS
   @UHF iter   4:  -341.88922301582755   -3.05284e-01   6.08249e-04 DIIS
   @UHF iter   5:  -341.89263413443348   -3.41112e-03   1.15425e-04 DIIS
   @UHF iter   6:  -341.89298151319321   -3.47379e-04   4.68947e-05 DIIS
   @UHF iter   7:  -341.89306625371853   -8.47405e-05   1.60954e-05 DIIS
   @UHF iter   8:  -341.89308001495345   -1.37612e-05   4.86439e-06 DIIS
   @UHF iter   9:  -341.89308128839991   -1.27345e-06   1.20056e-06 DIIS
   @UHF iter  10:  -341.89308135868475   -7.02848e-08   2.89430e-07 DIIS
   @UHF iter  11:  -341.89308136308978   -4.40502e-09   1.21604e-07 DIIS
   @UHF iter  12:  -341.89308136402451   -9.34733e-10   4.88732e-08 DIIS
   @UHF iter  13:  -341.89308136417168   -1.47168e-10   1.98269e-08 DIIS
   @UHF iter  14:  -341.89308136420084   -2.91607e-11   6.39393e-09 DIIS
  Energy and wave function converged.


  ==> Post-Iterations <==

   @Spin Contamination Metric:   2.068765060E-02
   @S^2 Expected:                7.500000000E-01
   @S^2 Observed:                7.706876506E-01
   @S   Expected:                5.000000000E-01
   @S   Observed:                5.000000000E-01

    Orbital Energies [Eh]
    ---------------------

    Alpha Occupied:                                                       

       1A1   -79.956731     2A1    -7.499502     1B1    -5.404750  
       1B2    -5.390365     3A1    -5.388968     4A1    -0.856966  
       2B2    -0.526266     5A1    -0.430670     2B1    -0.376836  

    Alpha Virtual:                                                        

       6A1     0.022672     3B2     0.040847     7A1     0.058877  
       3B1     0.062894     4B2     0.075073     8A1     0.102493  
       9A1     0.134440    10A1     0.137643     5B2     0.137789  
       1A2     0.142347     4B1     0.144512     6B2     0.194313  
      11A1     0.209091     7B2     0.211285    12A1     0.215358  
       5B1     0.226393     2A2     0.227409     8B2     0.246069  
      13A1     0.251459    14A1     0.311795     6B1     0.315421  
       9B2     0.327182    15A1     0.348827     7B1     0.357462  
      16A1     0.361953     3A2     0.365729     8B1     0.371596  
      10B2     0.421063    17A1     0.425354    11B2     0.453494  
       9B1     0.468679     4A2     0.478506    18A1     0.484599  
      12B2     0.486574    19A1     0.538021    13B2     0.553815  
      20A1     0.575766    14B2     0.580980     5A2     0.596342  
      10B1     0.600782    21A1     0.604290    11B1     0.631535  
       6A2     0.634502    22A1     0.647306    15B2     0.709774  
      23A1     0.734180    16B2     0.741305    24A1     0.894772  
       7A2     0.911597    25A1     0.918025    12B1     0.923604  
      17B2     0.956100    26A1     0.958299    13B1     0.967056  
      14B1     0.974783    18B2     0.993488    27A1     0.999703  
       8A2     1.000274    28A1     1.020869    19B2     1.021893  
      15B1     1.026751    29A1     1.029007     9A2     1.036662  
      20B2     1.042462    10A2     1.051380    16B1     1.054182  
      21B2     1.090368    30A1     1.107122    17B1     1.117806  
      31A1     1.177462    22B2     1.234821    18B1     1.287855  
      23B2     1.308755    11A2     1.312051    19B1     1.335524  
      32A1     1.335661    33A1     1.349962    34A1     1.389949  
      12A2     1.435277    35A1     1.442465    24B2     1.443789  
      25B2     1.458613    26B2     1.494359    20B1     1.501287  
      36A1     1.518945    13A2     1.557840    14A2     1.632608  
      37A1     1.649073    27B2     1.663231    38A1     1.704994  
      21B1     1.720449    28B2     1.749694    29B2     1.775175  
      39A1     2.028814    22B1     2.069049    15A2     2.071524  
      40A1     2.093071    16A2     2.095497    30B2     2.103942  
      23B1     2.113321    41A1     2.142997    24B1     2.179194  
      42A1     2.189409    31B2     2.193032    17A2     2.211685  
      25B1     2.248165    43A1     2.248540    32B2     2.352060  
      26B1     2.361802    44A1     2.366317    18A2     2.383720  
      45A1     2.391940    27B1     2.398122    33B2     2.409944  
      34B2     2.423565    19A2     2.427824    46A1     2.452147  
      35B2     2.465437    28B1     2.481923    47A1     2.483222  
      29B1     2.514306    48A1     2.578757    36B2     2.580195  
      20A2     2.586803    37B2     2.717776    30B1     2.776153  
      49A1     2.794898    50A1     2.813241    38B2     2.855284  
      51A1     2.917982    21A2     2.925079    39B2     2.942852  
      31B1     2.990482    52A1     3.029748    22A2     3.037120  
      32B1     3.089082    53A1     3.104199    40B2     3.127864  
      54A1     3.149711    23A2     3.266916    41B2     3.267701  
      33B1     3.318160    42B2     3.353897    55A1     3.411702  
      24A2     3.454047    34B1     3.583549    43B2     3.583928  
      56A1     3.590022    25A2     3.593280    44B2     3.617876  
      35B1     3.649494    57A1     3.741171    45B2     3.759547  
      36B1     3.774267    46B2     3.900612    26A2     3.905937  
      58A1     3.909208    59A1     3.982703    27A2     3.997168  
      47B2     4.059103    60A1     4.060495    37B1     4.094830  
      48B2     4.168508    28A2     4.364471    49B2     4.416705  
      38B1     4.468055    61A1     4.480343    39B1     4.635392  
      50B2     4.664110    62A1     4.664516    29A2     4.686925  
      63A1     4.705542    40B1     4.733617    30A2     4.806564  
      51B2     4.813974    64A1     4.840716    41B1     4.895491  
      42B1     4.951634    65A1     4.979455    31A2     4.985679  
      52B2     4.988493    66A1     5.103012    53B2     5.179903  
      54B2     5.226221    43B1     5.245014    67A1     5.263772  
      32A2     5.278442    68A1     5.365234    69A1     5.388910  
      44B1     5.408205    55B2     5.411358    33A2     5.454439  
      45B1     5.516253    56B2     5.527230    70A1     5.535427  
      46B1     5.573057    71A1     5.621413    34A2     5.634298  
      57B2     5.635226    72A1     5.660361    58B2     5.765236  
      73A1     5.880323    74A1     5.945916    47B1     5.957092  
      35A2     6.008269    59B2     6.035479    60B2     6.142832  
      48B1     6.209148    75A1     6.243555    61B2     6.268356  
      49B1     6.323246    76A1     6.346962    36A2     6.378856  
      37A2     6.421335    77A1     6.492230    38A2     6.657573  
      50B1     6.692042    78A1     6.748631    62B2     6.858947  
      63B2     6.907142    64B2     7.380701    79A1     7.535015  
      51B1     7.552348    39A2     7.702052    80A1     7.831296  
      65B2     8.012319    66B2     9.143393    81A1     9.268472  
      52B1    13.023557    82A1    13.030145    40A2    13.033039  
      67B2    13.083527    83A1    13.167285    53B1    13.183614  
      41A2    13.198437    68B2    13.235040    84A1    13.235640  
      54B1    13.277641    42A2    13.293690    69B2    13.305758  
      85A1    13.307412    55B1    13.320870    43A2    13.351865  
      86A1    13.356297    70B2    13.361410    87A1    13.396330  
      56B1    13.402248    44A2    13.403629    45A2    13.471826  
      57B1    13.485801    71B2    13.487942    72B2    13.534923  
      88A1    13.626456    89A1    13.680719    73B2    13.696148  
      46A2    13.716948    90A1    13.739431    74B2    13.742460  
      58B1    13.789731    75B2    14.123096    59B1    14.263607  
      91A1    14.278217    47A2    14.326561    76B2    14.406951  
      92A1    14.438704    60B1    14.479049    93A1    14.503993  
      48A2    14.541734    94A1    14.571904    77B2    14.616065  
      78B2    14.741624    49A2    14.935839    61B1    14.957986  
      95A1    15.020367    79B2    15.311979    80B2    16.130738  
      96A1    16.141594    62B1    17.164933    50A2    17.868219  
      81B2    18.035821    97A1    18.039800    63B1    18.437242  
      98A1    18.838654    82B2    19.141341    99A1    20.215940  
      83B2    20.836041   100A1    60.848967  

    Beta Occupied:                                                        

       1A1   -79.949009     2A1    -7.491128     3A1    -5.385533  
       1B2    -5.385390     1B1    -5.370885     4A1    -0.788887  
       2B2    -0.520536     5A1    -0.408457  

    Beta Virtual:                                                         

       2B1     0.019757     6A1     0.023687     3B2     0.040963  
       7A1     0.059555     4B2     0.075284     3B1     0.087055  
       8A1     0.106031     9A1     0.137353     5B2     0.140190  
      10A1     0.149627     1A2     0.150627     4B1     0.152291  
       6B2     0.194583    11A1     0.209879     7B2     0.212149  
      12A1     0.218869     2A2     0.229301     5B1     0.236358  
       8B2     0.247999    13A1     0.263882    14A1     0.316173  
       9B2     0.330410     6B1     0.354310    15A1     0.358822  
       7B1     0.360292    16A1     0.389874     3A2     0.400563  
       8B1     0.403293    10B2     0.423622    17A1     0.428864  
      11B2     0.454110     9B1     0.482748     4A2     0.485596  
      12B2     0.487437    18A1     0.488545    19A1     0.543058  
      13B2     0.555141    14B2     0.583195    20A1     0.589749  
       5A2     0.601966    10B1     0.604327    21A1     0.609474  
      11B1     0.641173     6A2     0.641575    22A1     0.650321  
      15B2     0.710453    23A1     0.739803    16B2     0.745214  
      24A1     0.898202    25A1     0.924195     7A2     0.933753  
      12B1     0.944944    17B2     0.956824    26A1     0.981105  
      13B1     0.982097    14B1     0.998398    18B2     1.001204  
       8A2     1.007150    27A1     1.009440    19B2     1.028494  
      28A1     1.032328    29A1     1.038405     9A2     1.043739  
      20B2     1.047957    15B1     1.050857    10A2     1.064955  
      16B1     1.080408    21B2     1.096047    30A1     1.111939  
      17B1     1.126458    31A1     1.181945    22B2     1.237349  
      18B1     1.291968    23B2     1.310105    11A2     1.319253  
      32A1     1.337145    19B1     1.341247    33A1     1.355541  
      34A1     1.394049    12A2     1.436073    24B2     1.444464  
      35A1     1.446610    25B2     1.461834    26B2     1.494709  
      20B1     1.502628    36A1     1.519892    13A2     1.561734  
      14A2     1.636177    37A1     1.650675    27B2     1.664598  
      38A1     1.708821    21B1     1.737535    28B2     1.750811  
      29B2     1.779836    39A1     2.049481    22B1     2.077598  
      15A2     2.078997    40A1     2.098174    30B2     2.105280  
      16A2     2.109485    23B1     2.135997    41A1     2.147093  
      24B1     2.194403    42A1     2.213210    31B2     2.217139  
      17A2     2.226510    43A1     2.256087    25B1     2.265110  
      32B2     2.356958    26B1     2.373645    44A1     2.375514  
      18A2     2.394971    45A1     2.408619    27B1     2.410204  
      33B2     2.417399    34B2     2.427531    19A2     2.433229  
      46A1     2.457930    35B2     2.469524    47A1     2.488290  
      28B1     2.496313    29B1     2.524107    48A1     2.581926  
      36B2     2.583605    20A2     2.598634    37B2     2.719047  
      30B1     2.787810    49A1     2.797165    50A1     2.818779  
      38B2     2.858347    51A1     2.921209    21A2     2.932563  
      39B2     2.951212    31B1     2.995502    52A1     3.035244  
      22A2     3.042100    32B1     3.093184    53A1     3.104794  
      40B2     3.129655    54A1     3.150664    41B2     3.268281  
      23A2     3.268634    33B1     3.327642    42B2     3.355442  
      55A1     3.412281    24A2     3.458922    34B1     3.585492  
      43B2     3.586988    56A1     3.592443    25A2     3.595412  
      44B2     3.618447    35B1     3.650715    57A1     3.743392  
      45B2     3.760483    36B1     3.783145    46B2     3.903284  
      58A1     3.910490    26A2     3.914323    59A1     3.984443  
      27A2     3.998305    47B2     4.060952    60A1     4.065748  
      37B1     4.117295    48B2     4.171239    28A2     4.367974  
      49B2     4.418480    38B1     4.471505    61A1     4.482599  
      39B1     4.646661    50B2     4.674085    62A1     4.675580  
      29A2     4.694283    63A1     4.719508    40B1     4.747177  
      30A2     4.810675    51B2     4.821685    64A1     4.850541  
      41B1     4.904075    42B1     4.960524    65A1     4.981303  
      52B2     4.989969    31A2     4.993345    66A1     5.108020  
      53B2     5.180815    54B2     5.231126    43B1     5.263835  
      67A1     5.273829    32A2     5.296885    68A1     5.378911  
      69A1     5.399943    44B1     5.422191    55B2     5.424549  
      33A2     5.463416    45B1     5.527057    56B2     5.533261  
      70A1     5.540702    46B1     5.580673    71A1     5.625980  
      57B2     5.639295    34A2     5.642552    72A1     5.665903  
      58B2     5.767144    73A1     5.885045    74A1     5.947727  
      47B1     5.959983    35A2     6.008846    59B2     6.038888  
      60B2     6.147792    48B1     6.214998    75A1     6.245965  
      61B2     6.269344    49B1     6.326596    76A1     6.348994  
      36A2     6.383823    37A2     6.427157    77A1     6.493706  
      38A2     6.662342    50B1     6.696444    78A1     6.750540  
      62B2     6.859689    63B2     6.907578    64B2     7.381860  
      79A1     7.535946    51B1     7.558521    39A2     7.705827  
      80A1     7.831244    65B2     8.013210    66B2     9.144462  
      81A1     9.270951    52B1    13.023211    82A1    13.029812  
      40A2    13.032590    67B2    13.082967    83A1    13.167076  
      53B1    13.183465    41A2    13.198290    68B2    13.234889  
      84A1    13.235429    54B1    13.277901    42A2    13.293740  
      69B2    13.305597    85A1    13.310450    55B1    13.321522  
      43A2    13.352730    86A1    13.356729    70B2    13.361141  
      56B1    13.402272    87A1    13.403665    44A2    13.403914  
      45A2    13.479221    71B2    13.487739    57B1    13.493646  
      72B2    13.534183    88A1    13.626268    89A1    13.681499  
      73B2    13.695634    46A2    13.717783    90A1    13.739807  
      74B2    13.742630    58B1    13.789981    75B2    14.123434  
      59B1    14.263889    91A1    14.277881    47A2    14.326400  
      76B2    14.406453    92A1    14.438210    60B1    14.478285  
      93A1    14.503414    48A2    14.541106    94A1    14.570530  
      77B2    14.615718    78B2    14.740805    49A2    14.936375  
      61B1    14.958729    95A1    15.019837    79B2    15.311311  
      80B2    16.130054    96A1    16.141198    62B1    17.172904  
      50A2    17.867350    81B2    18.034552    97A1    18.038587  
      63B1    18.450178    98A1    18.837945    82B2    19.140416  
      99A1    20.218117    83B2    20.839668   100A1    60.854037  

    Final Occupation by Irrep:
             A1    A2    B1    B2 
    DOCC [     5,    0,    1,    2 ]
    SOCC [     0,    0,    1,    0 ]

  @UHF Final Energy:  -341.89308136420084

   => Energetics <=

    Nuclear Repulsion Energy =             11.4991145729382254
    One-Electron Energy =                -495.6535151751809849
    Two-Electron Energy =                 142.2613192380418923
    Total Energy =                       -341.8930813642008388

  UHF NO Occupations:
  HONO-2 :    2 B2 1.9993615
  HONO-1 :    5 A1 1.9906768
  HONO-0 :    2 B1 1.0000000
  LUNO+0 :    6 A1 0.0093232
  LUNO+1 :    3 B2 0.0006385
  LUNO+2 :    7 A1 0.0004209
  LUNO+3 :    3 B1 0.0000043


Computation Completed


Properties will be evaluated at   0.000000,   0.000000,   0.000000 [a0]

Properties computed using the SCF density matrix

  Nuclear Dipole Moment: [e a0]
     X:     0.0000      Y:     0.0000      Z:    -1.7834

  Electronic Dipole Moment: [e a0]
     X:     0.0000      Y:     0.0000      Z:     1.5295

  Dipole Moment: [e a0]
     X:     0.0000      Y:     0.0000      Z:    -0.2540     Total:     0.2540

  Dipole Moment: [D]
     X:     0.0000      Y:     0.0000      Z:    -0.6455     Total:     0.6455


*** tstop() called on n412-045.vsc4.prov at Fri Jan 22 05:03:05 2021
Module time:
	user time   =     292.04 seconds =       4.87 minutes
	system time =      32.18 seconds =       0.54 minutes
	total time  =        331 seconds =       5.52 minutes
Total time:
	user time   =     292.04 seconds =       4.87 minutes
	system time =      32.18 seconds =       0.54 minutes
	total time  =        331 seconds =       5.52 minutes

*** tstart() called on n412-045.vsc4.prov
*** at Fri Jan 22 05:03:05 2021


	Wfn Parameters:
	--------------------
	Wavefunction         = CCSD_T
	Number of irreps     = 4
	Number of MOs        = 296
	Number of active MOs = 291
	AO-Basis             = NONE
	Semicanonical        = false
	Reference            = UHF
	Print Level          = 1

	IRREP	# MOs	# FZDC	# DOCC	# SOCC	# VIRT	# FZVR
	-----	-----	------	------	------	------	------
	 A1	   100	    3	    2	    0	    95	    0
	 A2	   50	    0	    0	    0	    50	    0
	 B1	   63	    1	    0	    1	    61	    0
	 B2	   83	    1	    1	    0	    81	    0
	Transforming integrals...
	IWL integrals will be deleted.
	(OO|OO)...
	Presorting SO-basis two-electron integrals.
	Sorting File: SO Ints (nn|nn) nbuckets = 1
	Constructing frozen core operators
	Starting AA/AB first half-transformation.
	Sorting AA/AB half-transformed integrals.
	Starting BB first half-transformation.
	Sorting BB half-transformed integrals.
	First half integral transformation complete.
	Starting AA second half-transformation.
	Starting AB second half-transformation.
	Starting BB second half-transformation.
	Two-electron integral transformation complete.
	(OO|OV)...
	Starting AA second half-transformation.
	Starting AB second half-transformation.
	Starting BB second half-transformation.
	Two-electron integral transformation complete.
	(OO|VV)...
	Starting AA second half-transformation.
	Starting AB second half-transformation.
	Starting BB second half-transformation.
	Two-electron integral transformation complete.
	(OV|OO)...
	Starting AA/AB first half-transformation.
	Sorting AA/AB half-transformed integrals.
	Starting BB first half-transformation.
	Sorting BB half-transformed integrals.
	First half integral transformation complete.
	Starting AA second half-transformation.
	Starting AB second half-transformation.
	Starting BB second half-transformation.
	Two-electron integral transformation complete.
	(OV|OV)...
	Starting AA second half-transformation.
	Starting AB second half-transformation.
	Starting BB second half-transformation.
	Two-electron integral transformation complete.
	(OV|VV)...
	Starting AA second half-transformation.
	Starting AB second half-transformation.
	Starting BB second half-transformation.
	Two-electron integral transformation complete.
	(VV|OO)...
	Starting AA/AB first half-transformation.
	Sorting AA/AB half-transformed integrals.
	Starting BB first half-transformation.
	Sorting BB half-transformed integrals.
	First half integral transformation complete.
	Starting AA second half-transformation.
	Starting AB second half-transformation.
	Starting BB second half-transformation.
	Two-electron integral transformation complete.
	(VV|OV)...
	Starting AA second half-transformation.
	Starting AB second half-transformation.
	Starting BB second half-transformation.
	Two-electron integral transformation complete.
	(VV|VV)...
	Starting AA second half-transformation.
	Starting AB second half-transformation.
	Starting BB second half-transformation.
	Two-electron integral transformation complete.
	Frozen core energy     =   -341.85541755917149

	Size of irrep 0 of <AB|CD> integrals:    115.778 (MW) /    926.221 (MB)
	Size of irrep 1 of <AB|CD> integrals:     93.915 (MW) /    751.324 (MB)
	Size of irrep 2 of <AB|CD> integrals:     96.924 (MW) /    775.392 (MB)
	Size of irrep 3 of <AB|CD> integrals:    115.455 (MW) /    923.640 (MB)
	Total:                                   422.072 (MW) /   3376.577 (MB)

	Size of irrep 0 of <ab|cd> integrals:    117.094 (MW) /    936.752 (MB)
	Size of irrep 1 of <ab|cd> integrals:     95.492 (MW) /    763.936 (MB)
	Size of irrep 2 of <ab|cd> integrals:     98.804 (MW) /    790.429 (MB)
	Size of irrep 3 of <ab|cd> integrals:    116.532 (MW) /    932.256 (MB)
	Total:                                   427.922 (MW) /   3423.373 (MB)

	Size of irrep 0 of <Ab|Cd> integrals:    478.209 (MW) /   3825.675 (MB)
	Size of irrep 1 of <Ab|Cd> integrals:    378.808 (MW) /   3030.467 (MB)
	Size of irrep 2 of <Ab|Cd> integrals:    391.446 (MW) /   3131.570 (MB)
	Size of irrep 3 of <Ab|Cd> integrals:    463.972 (MW) /   3711.773 (MB)
	Total:                                  1712.436 (MW) /  13699.485 (MB)

	Size of irrep 0 of <IA|BC> integrals:      7.240 (MW) /     57.919 (MB)
	Size of irrep 1 of <IA|BC> integrals:      4.690 (MW) /     37.524 (MB)
	Size of irrep 2 of <IA|BC> integrals:      5.257 (MW) /     42.058 (MB)
	Size of irrep 3 of <IA|BC> integrals:      6.597 (MW) /     52.779 (MB)
	Total:                                    23.785 (MW) /    190.280 (MB)

	Size of irrep 0 of <ia|bc> integrals:      5.943 (MW) /     47.544 (MB)
	Size of irrep 1 of <ia|bc> integrals:      3.166 (MW) /     25.329 (MB)
	Size of irrep 2 of <ia|bc> integrals:      3.459 (MW) /     27.673 (MB)
	Size of irrep 3 of <ia|bc> integrals:      5.549 (MW) /     44.389 (MB)
	Total:                                    18.117 (MW) /    144.935 (MB)

	Size of irrep 0 of <Ia|Bc> integrals:      7.282 (MW) /     58.256 (MB)
	Size of irrep 1 of <Ia|Bc> integrals:      4.730 (MW) /     37.836 (MB)
	Size of irrep 2 of <Ia|Bc> integrals:      5.322 (MW) /     42.577 (MB)
	Size of irrep 3 of <Ia|Bc> integrals:      6.613 (MW) /     52.902 (MB)
	Total:                                    23.946 (MW) /    191.572 (MB)

	Size of irrep 0 of <iA|bC> integrals:      5.926 (MW) /     47.410 (MB)
	Size of irrep 1 of <iA|bC> integrals:      3.134 (MW) /     25.068 (MB)
	Size of irrep 2 of <iA|bC> integrals:      3.403 (MW) /     27.224 (MB)
	Size of irrep 3 of <iA|bC> integrals:      5.536 (MW) /     44.286 (MB)
	Total:                                    17.999 (MW) /    143.989 (MB)

	Size of irrep 0 of tIjAb amplitudes:       0.109 (MW) /      0.875 (MB)
	Size of irrep 1 of tIjAb amplitudes:       0.019 (MW) /      0.156 (MB)
	Size of irrep 2 of tIjAb amplitudes:       0.040 (MW) /      0.317 (MB)
	Size of irrep 3 of tIjAb amplitudes:       0.086 (MW) /      0.689 (MB)
	Total:                                     0.255 (MW) /      2.036 (MB)

	Nuclear Rep. energy          =     11.49911457293823
	SCF energy                   =   -341.89308136420084
	One-electron energy          =    -19.16493873003652
	Two-electron (AA) energy     =      1.93573706583364
	Two-electron (BB) energy     =      0.92249046612198
	Two-electron (AB) energy     =      4.76993282011126
	Two-electron energy          =      7.62816035206688
	Reference energy             =   -341.89308136420289

*** tstop() called on n412-045.vsc4.prov at Fri Jan 22 05:11:54 2021
Module time:
	user time   =     207.35 seconds =       3.46 minutes
	system time =     119.54 seconds =       1.99 minutes
	total time  =        529 seconds =       8.82 minutes
Total time:
	user time   =     499.39 seconds =       8.32 minutes
	system time =     151.72 seconds =       2.53 minutes
	total time  =        860 seconds =      14.33 minutes
            **************************
            *                        *
            *        CCENERGY        *
            *                        *
            **************************

    Nuclear Rep. energy (wfn)     =   11.499114572938225
    SCF energy          (wfn)     = -341.893081364200839
    Reference energy    (file100) = -341.893081364202885

    Input parameters:
    -----------------
    Wave function   =     CCSD_T
    Reference wfn   =     UHF
    Brueckner       =     No
    Memory (Mbytes) =     250000.0
    Maxiter         =     50
    R_Convergence   =     1.0e-07
    E_Convergence   =     1.0e-06
    Restart         =     Yes
    DIIS            =     Yes
    AO Basis        =     NONE
    ABCD            =     NEW
    Cache Level     =     2
    Cache Type      =     LRU
    Print Level     =     1
    Num. of threads =     48
    # Amps to Print =     10
    Print MP2 Amps? =     No
    Analyze T2 Amps =     No
    Print Pair Ener =     No
    Local CC        =     No
    SCS-MP2         =     False
    SCSN-MP2        =     False
    SCS-CCSD        =     False

MP2 correlation energy -0.1523717281384358
                Solving CC Amplitude Equations
                ------------------------------
  Iter             Energy              RMS        T1Diag      D1Diag    New D1Diag    D2Diag
  ----     ---------------------    ---------   ----------  ----------  ----------   --------
     0        -0.152371728138436    0.000e+00    0.000000    0.000000    0.000000    0.000000
     1        -0.167427344144468    5.558e-02    0.012529    0.000000    0.000000    0.000000
     2        -0.174895563876576    2.186e-02    0.019575    0.000000    0.000000    0.000000
     3        -0.175266939963746    6.690e-03    0.022344    0.000000    0.000000    0.000000
     4        -0.175252654101628    2.364e-03    0.023362    0.000000    0.000000    0.000000
     5        -0.175248130016918    7.048e-04    0.023564    0.000000    0.000000    0.000000
     6        -0.175242315497915    2.489e-04    0.023611    0.000000    0.000000    0.000000
     7        -0.175243680227475    9.004e-05    0.023610    0.000000    0.000000    0.000000
     8        -0.175245155612328    2.749e-05    0.023610    0.000000    0.000000    0.000000
     9        -0.175244848237243    9.909e-06    0.023610    0.000000    0.000000    0.000000
    10        -0.175244872644297    3.828e-06    0.023610    0.000000    0.000000    0.000000
    11        -0.175244886787108    1.359e-06    0.023610    0.000000    0.000000    0.000000
    12        -0.175244922333567    5.506e-07    0.023610    0.000000    0.000000    0.000000
    13        -0.175244935192857    2.084e-07    0.023610    0.000000    0.000000    0.000000
    14        -0.175244934477044    6.996e-08    0.023610    0.000000    0.000000    0.000000

    Iterations converged.


    Largest TIA Amplitudes:
              1   3        -0.0188590053
              1   9         0.0176408418
              2 146        -0.0118217794
              3 208        -0.0115613921
              2 150        -0.0111617931
              1  20        -0.0074838278
              1  10         0.0069677847
              3 212         0.0068804495
              2 147         0.0067627285
              2 151         0.0062143259

    Largest Tia Amplitudes:
              0  10         0.0148038963
              2 209        -0.0143349093
              1   7         0.0135143834
              0   7        -0.0122426253
              1  10        -0.0114251119
              1   9         0.0112555038
              1   3        -0.0098395431
              0   4        -0.0097986746
              1   4         0.0085305637
              2 210         0.0084711050

    Largest TIJAB Amplitudes:
      3   2  97   9        -0.0186824170
      2   1 150  10        -0.0173892656
      3   2  97   3         0.0141017800
      2   1 150   7         0.0130667513
      2   1 208  97         0.0119096135
      2   1 150   4        -0.0110129414
      3   2  95   9        -0.0109500398
      2   1 150   3         0.0106972983
      2   1 146  10        -0.0104841104
      3   1 208  10         0.0101695631

    Largest Tijab Amplitudes:
      2   1 209   9        -0.0114740940
      2   1 210   9         0.0110416807
      2   1 209   6         0.0087064026
      1   0 151 145         0.0080195326
      2   1 216   9         0.0079546509
      2   1 209   3         0.0072713103
      2   1 212   9         0.0068874155
      2   1 209  12         0.0068551012
      2   1 208   9        -0.0066910134
      2   1 210   3        -0.0066347781

    Largest TIjAb Amplitudes:
      1   1 208 209        -0.0265671344
      2   0   9 145        -0.0207061995
      1   1 208 210         0.0199629274
      1   1 209 209         0.0197102841
      2   1  97 209        -0.0187564004
      2   0   3 145         0.0184162701
      1   1  10  10        -0.0177985458
      3   2 208 209        -0.0177631866
      1   1 150 151        -0.0177486939
      1   1 150 145        -0.0176315446

    SCF energy       (wfn)                    = -341.893081364200839
    Reference energy (file100)                = -341.893081364202885

    Opposite-spin MP2 correlation energy      =   -0.127203521738558
    Same-spin MP2 correlation energy          =   -0.025168206399877
    Singles MP2 correlation energy            =   -0.000000000000000
    MP2 correlation energy                    =   -0.152371728138436
      * MP2 total energy                      = -342.045453092341347

    Opposite-spin CCSD correlation energy     =   -0.148695707941694
    Same-spin CCSD correlation energy         =   -0.026549226535370
    Singles CCSD correlation energy           =    0.000000000000020
    CCSD correlation energy                   =   -0.175244934477044
      * CCSD total energy                     = -342.068326298679949

            **************************
            *                        *
            *        CCTRIPLES       *
            *                        *
            **************************


    Wave function   =    CCSD_T
    Reference wfn   =      UHF

    Nuclear Rep. energy (wfn)                =   11.499114572938225
    SCF energy          (wfn)                = -341.893081364200839
    Reference energy    (file100)            = -341.893081364202885
    CCSD energy         (file100)            =   -0.175244934477044
    Total CCSD energy   (file100)            = -342.068326298679949

    Number of ijk index combinations:
    Spin Case AAA:                                   4
    Spin Case BBB:                                   1
    Spin Case AAB:                                  18
    Spin Case ABB:                                  12
    AAA (T) energy                             =   -0.000210823843456
    BBB (T) energy                             =   -0.000025154374036
    AAB (T) energy                             =   -0.004222231396041
    ABB (T) energy                             =   -0.002236554528812
    (T) energy                                   =   -0.006694764142345
      * CCSD(T) total energy                     = -342.075021062822259


    Psi4 stopped on: Friday, 22 January 2021 05:21AM
    Psi4 wall time for execution: 0:23:37.20

*** Psi4 exiting successfully. Buy a developer a beer!
