
    -----------------------------------------------------------------------
          Psi4: An Open-Source Ab Initio Electronic Structure Package
                               Psi4 1.2a1.dev938 

                         Git: Rev {HEAD} fc51d9a dirty


    R. M. Parrish, L. A. Burns, D. G. A. Smith, A. C. Simmonett,
    A. E. DePrince III, E. G. Hohenstein, U. Bozkaya, A. Yu. Sokolov,
    R. Di Remigio, R. M. Richard, J. F. Gonthier, A. M. James,
    H. R. McAlexander, A. Kumar, M. Saitow, X. Wang, B. P. Pritchard,
    P. Verma, H. F. Schaefer III, K. Patkowski, R. A. King, E. F. Valeev,
    F. A. Evangelista, J. M. Turney, T. D. Crawford, and C. D. Sherrill,
    J. Chem. Theory Comput. 13(7) pp 3185--3197 (2017).
    (doi: 10.1021/acs.jctc.7b00174)

    -----------------------------------------------------------------------


    Psi4 started on: Wednesday, 26 August 2020 01:04PM

    Process ID: 504326
    PSIDATADIR: /home/irmler/Programs/psi4/beforeGrueneis4/stage/usr/local/psi4/share/psi4
    Memory:     500.0 MiB
    Threads:    4
    
  ==> Input File <==

--------------------------------------------------------------------------
# Any line starting with the # character is a comment line
memory 250000 mb
molecule molecule{
0 3
Si         0.0000000000        0.0000000000       -1.0836042810
Si         0.0000000000        0.0000000000        1.0836042810
}

set {
  reference uhf
  basis aug-cc-pv(6+d)z
  scf_type OUT_OF_CORE
  freeze_core true
}

energy('ccsd')
--------------------------------------------------------------------------

  Memory set to 232.831 GiB by Python driver.

*** tstart() called on cqc05
*** at Wed Aug 26 13:04:17 2020

   => Loading Basis Set <=

    Name: AUG-CC-PV(6+D)Z
    Role: ORBITAL
    Keyword: BASIS
    atoms 1-2 entry SI         line   886 file /home/irmler/Programs/psi4/beforeGrueneis4/stage/usr/local/psi4/share/psi4/basis/aug-cc-pv_6pd_z.gbs 


         ---------------------------------------------------------
                                   SCF
            by Justin Turney, Rob Parrish, Andy Simmonett
                             and Daniel Smith
                              UHF Reference
                        4 Threads, 238418 MiB Core
         ---------------------------------------------------------

  ==> Geometry <==

    Molecular point group: d2h
    Full point group: D_inf_h

    Geometry (in Angstrom), charge = 0, multiplicity = 3:

       Center              X                  Y                   Z               Mass       
    ------------   -----------------  -----------------  -----------------  -----------------
          SI          0.000000000000     0.000000000000    -1.083604281000    27.976926532460
          SI          0.000000000000     0.000000000000     1.083604281000    27.976926532460

  Running in d2h symmetry.

  Rotational constants: A = ************  B =      0.25658  C =      0.25658 [cm^-1]
  Rotational constants: A = ************  B =   7692.11509  C =   7692.11509 [MHz]
  Nuclear repulsion =   47.858214803250668

  Charge       = 0
  Multiplicity = 3
  Electrons    = 28
  Nalpha       = 15
  Nbeta        = 13

  ==> Algorithm <==

  SCF Algorithm Type is OUT_OF_CORE.
  DIIS enabled.
  MOM disabled.
  Fractional occupation disabled.
  Guess Type is GWH.
  Energy threshold   = 1.00e-08
  Density threshold  = 1.00e-08
  Integral threshold = 0.00e+00

  ==> Primary Basis <==

  Basis Set: AUG-CC-PV(6+D)Z
    Blend: AUG-CC-PV(6+D)Z
    Number of shells: 76
    Number of basis function: 396
    Number of Cartesian functions: 608
    Spherical Harmonics?: true
    Max angular momentum: 6

  ==> Pre-Iterations <==

   -------------------------------------------------------
    Irrep   Nso     Nmo     Nalpha   Nbeta   Ndocc  Nsocc
   -------------------------------------------------------
     Ag        70      70       0       0       0       0
     B1g       32      32       0       0       0       0
     B2g       48      48       0       0       0       0
     B3g       48      48       0       0       0       0
     Au        32      32       0       0       0       0
     B1u       70      70       0       0       0       0
     B2u       48      48       0       0       0       0
     B3u       48      48       0       0       0       0
   -------------------------------------------------------
    Total     396     396      15      13      13       2
   -------------------------------------------------------

  ==> Integral Setup <==

  ==> DiskJK: Disk-Based J/K Matrices <==

    J tasked:                  Yes
    K tasked:                  Yes
    wK tasked:                  No
    Memory (MB):            178813
    Schwarz Cutoff:          1E-12

  Minimum eigenvalue in the overlap matrix is 2.4808290783E-06.
  Using Symmetric Orthogonalization.

  SCF Guess: Generalized Wolfsberg-Helmholtz.

  ==> Iterations <==

                        Total Energy        Delta E     RMS |[F,P]|

    Occupation by irrep:
             Ag   B1g   B2g   B3g    Au   B1u   B2u   B3u 
    DOCC [     4,    0,    1,    1,    0,    4,    2,    1 ]
    SOCC [     1,    0,    0,    0,    0,    0,    0,    1 ]

   @UHF iter   1:  -567.48948727349239   -5.67489e+02   9.28947e-02 
   @UHF iter   2:  -576.73080771755178   -9.24132e+00   1.83235e-02 DIIS
   @UHF iter   3:  -577.65788894174568   -9.27081e-01   7.45997e-03 DIIS
   @UHF iter   4:  -577.76194629971337   -1.04057e-01   7.18440e-04 DIIS
   @UHF iter   5:  -577.76441313151940   -2.46683e-03   2.63025e-04 DIIS
   @UHF iter   6:  -577.76494774254502   -5.34611e-04   9.01715e-05 DIIS
   @UHF iter   7:  -577.76503323876159   -8.54962e-05   2.54672e-05 DIIS
   @UHF iter   8:  -577.76504037112272   -7.13236e-06   5.96784e-06 DIIS
   @UHF iter   9:  -577.76504085589124   -4.84769e-07   1.30940e-06 DIIS
   @UHF iter  10:  -577.76504087193439   -1.60431e-08   3.81683e-07 DIIS
   @UHF iter  11:  -577.76504087451269   -2.57830e-09   1.29706e-07 DIIS
   @UHF iter  12:  -577.76504087489411   -3.81419e-10   3.62525e-08 DIIS
   @UHF iter  13:  -577.76504087492162   -2.75122e-11   9.68510e-09 DIIS

  ==> Post-Iterations <==

   @Spin Contamination Metric:   2.942583693E-02
   @S^2 Expected:                2.000000000E+00
   @S^2 Observed:                2.029425837E+00
   @S   Expected:                1.000000000E+00
   @S   Observed:                1.000000000E+00

    Orbital Energies (a.u.)
    -----------------------

    Alpha Occupied:                                                       

       1Ag   -68.816102     1B1u  -68.816098     2Ag    -6.161302  
       2B1u   -6.160901     3Ag    -4.270090     3B1u   -4.268455  
       1B3u   -4.265882     1B2g   -4.265693     1B2u   -4.259808  
       1B3g   -4.259630     4Ag    -0.745402     4B1u   -0.511683  
       5Ag    -0.355882     2B3u   -0.322808     2B2u   -0.285339  

    Alpha Virtual:                                                        

       2B2g    0.008111     5B1u    0.023758     2B3g    0.024514  
       6Ag     0.034340     3B3u    0.038413     3B2u    0.041823  
       3B2g    0.052532     7Ag     0.054334     3B3g    0.057404  
       6B1u    0.080424     1B1g    0.098855     8Ag     0.099271  
       9Ag     0.121101     7B1u    0.122519     4B3u    0.125836  
       4B2u    0.130130     1Au     0.130559     8B1u    0.131470  
       4B2g    0.137231     4B3g    0.141082     5B3u    0.167036  
       9B1u    0.172636     5B2u    0.177717    10Ag     0.187759  
       5B2g    0.249244    10B1u    0.250093    11Ag     0.253023  
       6B3u    0.255291     6B2u    0.255734     5B3g    0.257896  
       2B1g    0.258016    12Ag     0.260959     7B3u    0.261099  
       7B2u    0.272005     2Au     0.285776    11B1u    0.286449  
       6B2g    0.312647     6B3g    0.314880    13Ag     0.316338  
       7B2g    0.316452     3B1g    0.317696     7B3g    0.319177  
      12B1u    0.325238    14Ag     0.326948     8B3u    0.366408  
       8B2u    0.377034    15Ag     0.405068    13B1u    0.406817  
       3Au     0.432782    14B1u    0.433967     9B3u    0.521663  
       8B2g    0.522759     8B3g    0.534149     9B2u    0.537207  
       4B1g    0.537449    16Ag     0.537450    15B1u    0.580649  
      10B3u    0.602462    10B2u    0.602547    16B1u    0.627911  
       4Au     0.628222    17B1u    0.631813     5Au     0.634489  
      18B1u    0.638983    17Ag     0.638985     5B1g    0.639888  
      11B3u    0.644846    11B2u    0.658051     9B2g    0.660613  
       9B3g    0.671815    18Ag     0.675297    19Ag     0.685192  
      10B2g    0.688151    10B3g    0.688381    12B3u    0.693766  
      12B2u    0.694053     6B1g    0.700195    20Ag     0.701887  
      13B3u    0.712154    13B2u    0.724130    11B2g    0.727256  
      11B3g    0.738207    21Ag     0.743747    19B1u    0.772729  
       6Au     0.773006    20B1u    0.778831     7B1g    0.797934  
      22Ag     0.797972    23Ag     0.809514    12B2g    0.828480  
      12B3g    0.832443    13B2g    0.832454    13B3g    0.843341  
      21B1u    0.958033    14B3u    1.025592    14B2u    1.041027  
      22B1u    1.075605     7Au     1.075864    23B1u    1.137451  
      14B2g    1.256809    14B3g    1.269020    15B3u    1.274888  
      15B2u    1.274888     8B1g    1.298149    24Ag     1.298150  
      25Ag     1.300220    16B3u    1.349211    16B2u    1.349466  
      26Ag     1.377418     9B1g    1.377426    24B1u    1.379418  
      15B2g    1.398434    15B3g    1.398434    17B3u    1.399855  
      27Ag     1.414129    10B1g    1.419191    17B2u    1.419991  
       8Au     1.442249    25B1u    1.442266    28Ag     1.449091  
      26B1u    1.453932     9Au     1.454057    16B2g    1.479306  
      16B3g    1.490860    29Ag     1.503614    18B3u    1.504399  
      18B2u    1.505307    17B2g    1.506226    17B3g    1.506847  
      11B1g    1.507177    27B1u    1.513893    19B3u    1.515592  
      30Ag     1.523654    19B2u    1.525587    28B1u    1.540335  
      10Au     1.540721    20B3u    1.560089    29B1u    1.567548  
      20B2u    1.576368    12B1g    1.595913    31Ag     1.596637  
      21B3u    1.600359    11Au     1.600547    30B1u    1.600559  
      21B2u    1.600789    18B2g    1.627644    18B3g    1.627878  
      19B2g    1.658901    19B3g    1.676126    22B3u    1.763980  
      22B2u    1.784023    20B2g    1.784601    20B3g    1.801155  
      32Ag     1.809163    31B1u    1.816048    12Au     1.816432  
      33Ag     1.855765    32B1u    1.929093    21B2g    1.932038  
      21B3g    1.932110    13B1g    1.935975    34Ag     1.937957  
      22B2g    2.051152    22B3g    2.065980    33B1u    2.246626  
      23B3u    2.287565    23B2u    2.303046    13Au     2.383713  
      34B1u    2.385160    35Ag     2.551379    35B1u    2.651018  
      24B3u    2.670872    24B2u    2.670872    23B2g    2.713081  
      23B3g    2.733398    36Ag     2.748845    14B1g    2.748845  
      37Ag     2.757300    15B1g    2.757300    25B3u    2.760263  
      25B2u    2.760334    38Ag     2.816139    16B1g    2.816487  
      14Au     2.840482    36B1u    2.840482    26B3u    2.871447  
      26B2u    2.892424    39Ag     2.901056    17B1g    2.901056  
      40Ag     2.944578    37B1u    2.947359    15Au     2.947580  
      38B1u    2.957705    16Au     2.958699    27B3u    2.976575  
      27B2u    2.976575    28B3u    3.007167    41Ag     3.008614  
      18B1g    3.008614    39B1u    3.020937    28B2u    3.027020  
      24B2g    3.041664    24B3g    3.041664    25B2g    3.047794  
      25B3g    3.047820    26B2g    3.054988    26B3g    3.054993  
      29B3u    3.059029    29B2u    3.059449    27B2g    3.109129  
      27B3g    3.122975    42Ag     3.143460    43Ag     3.152107  
      19B1g    3.157696    44Ag     3.171939    40B1u    3.182070  
      17Au     3.182071    41B1u    3.259770    30B3u    3.260823  
      18Au     3.268469    30B2u    3.275484    42B1u    3.277597  
      28B2g    3.297385    28B3g    3.297392    31B3u    3.300331  
      31B2u    3.300445    20B1g    3.321795    45Ag     3.322719  
      32B3u    3.351522    32B2u    3.351654    21B1g    3.382305  
      46Ag     3.382482    29B2g    3.387467    29B3g    3.387482  
      43B1u    3.429367    19Au     3.435791    44B1u    3.446385  
      20Au     3.447194    45B1u    3.452976    30B2g    3.592342  
      30B3g    3.610016    31B2g    3.624542    31B3g    3.639154  
      33B3u    3.694411    47Ag     3.696473    33B2u    3.707963  
      32B2g    3.835864    48Ag     3.840257    32B3g    3.853874  
      46B1u    3.892754    21Au     3.957960    47B1u    3.960456  
      49Ag     3.984238    22B1g    3.985969    50Ag     4.038570  
      33B2g    4.077341    33B3g    4.077367    34B3u    4.301277  
      34B2u    4.315941    48B1u    4.349671    22Au     4.703427  
      49B1u    4.704036    34B2g    4.796298    34B3g    4.813672  
      50B1u    5.128538    35B3u    5.215806    35B2u    5.235034  
      35B2g    5.541716    35B3g    5.558307    51Ag     5.646829  
      23B1g    5.742091    52Ag     5.743287    24B1g    5.750414  
      53Ag     5.750491    36B3u    5.758260    36B2u    5.759305  
      37B3u    5.767117    37B2u    5.784269    51B1u    5.799201  
      23Au     5.799201    36B2g    5.923838    36B3g    5.923842  
      38B3u    5.948925    38B2u    5.948950    39B3u    5.980575  
      39B2u    5.980575    54Ag     5.985547    25B1g    5.985549  
      55Ag     6.008623    26B1g    6.008623    52B1u    6.047676  
      24Au     6.053131    53B1u    6.053131    56Ag     6.081754  
      27B1g    6.099334    57Ag     6.107200    40B3u    6.140146  
      37B2g    6.150426    37B3g    6.150426    40B2u    6.155184  
      25Au     6.166397    54B1u    6.166455    55B1u    6.282685  
      41B3u    6.320646    41B2u    6.320646    28B1g    6.328007  
      58Ag     6.328007    38B2g    6.370533    38B3g    6.370533  
      26Au     6.376774    56B1u    6.376775    39B2g    6.404752  
      39B3g    6.418441    42B3u    6.462459    42B2u    6.462467  
      57B1u    6.471185    27Au     6.471185    59Ag     6.541498  
      40B2g    6.574939    40B3g    6.591652    58B1u    6.612653  
      28Au     6.613447    41B2g    6.614309    41B3g    6.614663  
      29B1g    6.670040    60Ag     6.670488    43B3u    6.698417  
      43B2u    6.712938    42B2g    6.756144    42B3g    6.756154  
      59B1u    6.762575    61Ag     6.868312    44B3u    6.928403  
      44B2u    6.928406    60B1u    6.958213    29Au     6.977787  
      61B1u    6.982752    30B1g    7.000610    62Ag     7.000710  
      43B2g    7.069686    43B3g    7.069694    31B1g    7.123051  
      63Ag     7.123191    44B2g    7.151602    44B3g    7.166361  
      62B1u    7.359249    30Au     7.392136    63B1u    7.392735  
      64Ag     7.401306    45B3u    7.559793    45B2u    7.570518  
      31Au     7.777720    64B1u    7.777757    45B2g    7.804629  
      45B3g    7.815546    46B3u    7.930327    46B2u    7.945330  
      65Ag     8.262679    46B2g    8.715217    46B3g    8.730021  
      65B1u    8.743593    66Ag     9.585060    66B1u   11.079105  
      67Ag    18.898986    32B1g   18.898992    67B1u   19.144672  
      32Au    19.144693    47B3u   19.210834    47B2u   19.216643  
      68Ag    19.310694    68B1u   19.387735    47B2g   19.548223  
      47B3g   19.554227    48B3u   20.014309    48B2u   20.022466  
      48B2g   20.870524    48B3g   20.878625    69B1u   22.127805  
      69Ag    23.571708    70Ag   179.892810    70B1u  183.407711  

    Beta Occupied:                                                        

       1Ag   -68.810618     1B1u  -68.810617     2Ag    -6.155571  
       2B1u   -6.155362     1B2u   -4.257069     1B3g   -4.256920  
       1B3u   -4.252435     1B2g   -4.252298     3Ag    -4.249746  
       3B1u   -4.248324     4Ag    -0.622348     4B1u   -0.406903  
       2B2u   -0.270709  

    Beta Virtual:                                                         

       5Ag    -0.022518     2B3u   -0.014158     5B1u    0.024383  
       2B3g    0.032462     6Ag     0.041128     2B2g    0.041623  
       3B2u    0.042370     3B3u    0.046686     7Ag     0.061205  
       3B3g    0.061404     3B2g    0.082815     6B1u    0.084060  
       1B1g    0.104130     8Ag     0.104144     7B1u    0.127508  
       9Ag     0.130583     4B3u    0.131016     1Au     0.131340  
       8B1u    0.132284     4B2u    0.132799     4B3g    0.142003  
       4B2g    0.148334     5B2u    0.181668     9B1u    0.190221  
       5B3u    0.191844    10Ag     0.208307     6B2u    0.258213  
       6B3u    0.258238     5B3g    0.259858     5B2g    0.264495  
      11Ag     0.270192     2B1g    0.281185    10B1u    0.281396  
      12Ag     0.281803     7B2u    0.288340     7B3u    0.288764  
       2Au     0.291036    11B1u    0.291162     6B2g    0.316210  
       6B3g    0.316322     7B2g    0.319152    13Ag     0.320766  
       3B1g    0.320993     7B3g    0.321111    14Ag     0.334093  
      12B1u    0.341509     8B2u    0.392900     8B3u    0.398016  
      13B1u    0.415032    15Ag     0.436486     3Au     0.441933  
      14B1u    0.442125     4B1g    0.539702    16Ag     0.539703  
       8B3g    0.539736     9B2u    0.542177     8B2g    0.542182  
       9B3u    0.543900    15B1u    0.601702    10B2u    0.606831  
      10B3u    0.606843    16B1u    0.629952     4Au     0.629976  
      17B1u    0.638082     5Au     0.639237    18B1u    0.645938  
       5B1g    0.658853    17Ag     0.659006    11B3u    0.668502  
      11B2u    0.671520     9B2g    0.675658     9B3g    0.679412  
      10B2g    0.691267    10B3g    0.691377    18Ag     0.691547  
      12B3u    0.702770    12B2u    0.702778    19Ag     0.703544  
       6B1g    0.709901    20Ag     0.711392    11B2g    0.736283  
      13B2u    0.737297    13B3u    0.738654    11B3g    0.742472  
      21Ag     0.768798    19B1u    0.783583     6Au     0.783690  
      20B1u    0.793794    22Ag     0.807227     7B1g    0.807647  
      23Ag     0.824761    12B2g    0.837351    12B3g    0.837353  
      13B2g    0.855179    13B3g    0.855344    21B1u    0.978647  
      14B3u    1.041787    14B2u    1.048141    22B1u    1.083529  
       7Au     1.083751    23B1u    1.151024    14B2g    1.274681  
      14B3g    1.278109    15B2u    1.278457    15B3u    1.278457  
      24Ag     1.305019     8B1g    1.305019    25Ag     1.314047  
      16B3u    1.362793    16B2u    1.362823    26Ag     1.382609  
       9B1g    1.382610    24B1u    1.397034    15B2g    1.401011  
      15B3g    1.401011    17B3u    1.424834    17B2u    1.432503  
      27Ag     1.437702    10B1g    1.438834    25B1u    1.448581  
       8Au     1.448589    26B1u    1.461249     9Au     1.461402  
      28Ag     1.463692    16B2g    1.491397    16B3g    1.499071  
      17B2g    1.512635    17B3g    1.512944    18B3u    1.513012  
      18B2u    1.513395    29Ag     1.518781    11B1g    1.519845  
      19B3u    1.524387    27B1u    1.526329    19B2u    1.531764  
      30Ag     1.539518    10Au     1.546500    28B1u    1.546773  
      29B1u    1.580313    20B3u    1.585859    20B2u    1.592686  
      11Au     1.603917    30B1u    1.603921    12B1g    1.604026  
      31Ag     1.604116    21B3u    1.607416    21B2u    1.607538  
      18B2g    1.636715    18B3g    1.636745    19B2g    1.675426  
      19B3g    1.681712    22B3u    1.782763    22B2u    1.788580  
      20B2g    1.792863    20B3g    1.805239    31B1u    1.827799  
      12Au     1.827959    32Ag     1.828578    33Ag     1.868105  
      21B2g    1.936758    21B3g    1.936785    13B1g    1.943325  
      34Ag     1.944282    32B1u    1.945357    22B2g    2.067584  
      22B3g    2.075124    33B1u    2.255959    23B3u    2.303045  
      23B2u    2.311971    13Au     2.391731    34B1u    2.392269  
      35Ag     2.571199    35B1u    2.664085    24B3u    2.677453  
      24B2u    2.677453    23B2g    2.729065    23B3g    2.741085  
      36Ag     2.752769    14B1g    2.752769    37Ag     2.768197  
      15B1g    2.768197    25B3u    2.776475    25B2u    2.776489  
      38Ag     2.836162    16B1g    2.836307    14Au     2.843961  
      36B1u    2.843961    26B3u    2.893786    26B2u    2.905730  
      39Ag     2.907354    17B1g    2.907354    37B1u    2.955426  
      15Au     2.955458    40Ag     2.965420    38B1u    2.967620  
      16Au     2.968168    27B3u    2.981797    27B2u    2.981797  
      41Ag     3.015370    18B1g    3.015370    28B3u    3.026047  
      39B1u    3.034097    28B2u    3.039172    24B2g    3.046220  
      24B3g    3.046220    25B2g    3.057293    25B3g    3.057298  
      26B2g    3.060714    26B3g    3.060719    29B3u    3.069032  
      29B2u    3.069231    27B2g    3.122954    27B3g    3.132427  
      42Ag     3.150739    43Ag     3.166510    19B1g    3.169688  
      44Ag     3.183292    40B1u    3.189034    17Au     3.189034  
      41B1u    3.269642    30B3u    3.271156    18Au     3.275793  
      30B2u    3.282576    42B1u    3.283922    28B2g    3.303489  
      28B3g    3.303490    31B3u    3.306655    31B2u    3.306713  
      20B1g    3.326858    45Ag     3.327275    32B3u    3.357386  
      32B2u    3.357452    21B1g    3.392066    46Ag     3.392102  
      29B2g    3.395487    29B3g    3.395491    43B1u    3.441650  
      19Au     3.444590    44B1u    3.452128    20Au     3.452643  
      45B1u    3.459706    30B2g    3.604530    30B3g    3.616332  
      31B2g    3.633600    31B3g    3.644827    47Ag     3.707973  
      33B3u    3.710274    33B2u    3.718645    32B2g    3.848186  
      48Ag     3.854880    32B3g    3.860259    46B1u    3.905183  
      21Au     3.965907    47B1u    3.967099    49Ag     3.992518  
      22B1g    3.993297    50Ag     4.051318    33B2g    4.083436  
      33B3g    4.083447    34B3u    4.312534    34B2u    4.321324  
      48B1u    4.358817    22Au     4.711512    49B1u    4.711834  
      34B2g    4.811070    34B3g    4.822363    50B1u    5.141317  
      35B3u    5.227199    35B2u    5.238548    35B2g    5.552812  
      35B3g    5.563332    51Ag     5.661978    23B1g    5.752959  
      52Ag     5.753113    24B1g    5.756343    53Ag     5.756851  
      36B3u    5.767138    36B2u    5.767306    37B3u    5.783454  
      37B2u    5.796138    51B1u    5.803225    23Au     5.803225  
      36B2g    5.931178    36B3g    5.931180    38B3u    5.959076  
      38B2u    5.959087    39B3u    5.986449    39B2u    5.986449  
      54Ag     5.993908    25B1g    5.993908    55Ag     6.012338  
      26B1g    6.012338    52B1u    6.056820    24Au     6.056820  
      53B1u    6.059371    56Ag     6.095411    27B1g    6.108882  
      57Ag     6.114484    40B3u    6.153095    37B2g    6.156137  
      37B3g    6.156137    40B2u    6.164189    25Au     6.175944  
      54B1u    6.175999    55B1u    6.294197    41B3u    6.324574  
      41B2u    6.324574    28B1g    6.334590    58Ag     6.334590  
      38B2g    6.374441    38B3g    6.374441    26Au     6.384004  
      56B1u    6.384004    39B2g    6.416110    39B3g    6.426854  
      42B3u    6.470785    42B2u    6.470788    57B1u    6.477541  
      27Au     6.477542    59Ag     6.552024    40B2g    6.584000  
      40B3g    6.596535    58B1u    6.620555    28Au     6.620992  
      41B2g    6.621832    41B3g    6.621969    29B1g    6.677754  
      60Ag     6.678022    43B3u    6.707137    43B2u    6.718284  
      42B2g    6.762955    42B3g    6.762960    59B1u    6.770725  
      61Ag     6.874681    44B3u    6.930589    44B2u    6.930591  
      60B1u    6.967665    29Au     6.984607    61B1u    6.988228  
      30B1g    7.004919    62Ag     7.004985    43B2g    7.073197  
      43B3g    7.073201    31B1g    7.128082    63Ag     7.128175  
      44B2g    7.160842    44B3g    7.171865    62B1u    7.368260  
      30Au     7.397664    63B1u    7.398064    64Ag     7.408849  
      45B3u    7.569801    45B2u    7.577582    31Au     7.782515  
      64B1u    7.782538    45B2g    7.813108    45B3g    7.821571  
      46B3u    7.937797    46B2u    7.949555    65Ag     8.273723  
      46B2g    8.724901    46B3g    8.736237    65B1u    8.750685  
      66Ag     9.591662    66B1u   11.085066    32B1g   18.903009  
      67Ag    18.903016    32Au    19.148645    67B1u   19.148648  
      47B3u   19.219523    47B2u   19.222118    68Ag    19.319092  
      68B1u   19.396155    47B2g   19.556784    47B3g   19.559877  
      48B3u   20.022250    48B2u   20.024794    48B2g   20.878120  
      48B3g   20.880607    69B1u   22.138512    69Ag    23.581928  
      70Ag   179.894583    70B1u  183.409459  

    Final Occupation by Irrep:
             Ag   B1g   B2g   B3g    Au   B1u   B2u   B3u 
    DOCC [     4,    0,    1,    1,    0,    4,    2,    1 ]
    SOCC [     1,    0,    0,    0,    0,    0,    0,    1 ]

  Energy converged.

  @UHF Final Energy:  -577.76504087492162

   => Energetics <=

    Nuclear Repulsion Energy =             47.8582148032506680
    One-Electron Energy =                -896.7325154312270570
    Two-Electron Energy =                 271.1092597530546868
    Total Energy =                       -577.7650408749216240


  UHF NO Occupations:
  HONO-2 :    4B1u 1.9901324
  HONO-1 :    5 Ag 1.0000000
  HONO-0 :    2B3u 1.0000000
  LUNO+0 :    5B1u 0.0098676
  LUNO+1 :    6 Ag 0.0041952
  LUNO+2 :    3B2u 0.0006985
  LUNO+3 :    6B1u 0.0000031



Properties will be evaluated at   0.000000,   0.000000,   0.000000 Bohr

Properties computed using the SCF density matrix

  Nuclear Dipole Moment: (a.u.)
     X:     0.0000      Y:     0.0000      Z:     0.0000

  Electronic Dipole Moment: (a.u.)
     X:     0.0000      Y:     0.0000      Z:     0.0000

  Dipole Moment: (a.u.)
     X:     0.0000      Y:     0.0000      Z:     0.0000     Total:     0.0000

  Dipole Moment: (Debye)
     X:     0.0000      Y:     0.0000      Z:     0.0000     Total:     0.0000


*** tstop() called on cqc05 at Wed Aug 26 13:16:44 2020
Module time:
	user time   =     622.10 seconds =      10.37 minutes
	system time =      20.16 seconds =       0.34 minutes
	total time  =        747 seconds =      12.45 minutes
Total time:
	user time   =     622.10 seconds =      10.37 minutes
	system time =      20.16 seconds =       0.34 minutes
	total time  =        747 seconds =      12.45 minutes

*** tstart() called on cqc05
*** at Wed Aug 26 13:16:44 2020


	Wfn Parameters:
	--------------------
	Wavefunction         = CCSD
	Number of irreps     = 8
	Number of MOs        = 396
	Number of active MOs = 386
	AO-Basis             = NONE
	Semicanonical        = false
	Reference            = UHF
	Print Level          = 1

	IRREP	# MOs	# FZDC	# DOCC	# SOCC	# VIRT	# FZVR
	-----	-----	------	------	------	------	------
	 Ag	   70	    3	    1	    1	    65	    0
	 B1g	   32	    0	    0	    0	    32	    0
	 B2g	   48	    1	    0	    0	    47	    0
	 B3g	   48	    1	    0	    0	    47	    0
	 Au	   32	    0	    0	    0	    32	    0
	 B1u	   70	    3	    1	    0	    66	    0
	 B2u	   48	    1	    1	    0	    46	    0
	 B3u	   48	    1	    0	    1	    46	    0
	Transforming integrals...
	IWL integrals will be deleted.
	(OO|OO)...
	Presorting SO-basis two-electron integrals.
	Sorting File: SO Ints (nn|nn) nbuckets = 1
	Transforming the one-electron integrals and constructing Fock matrices
	Starting AA/AB first half-transformation.
	Sorting AA/AB half-transformed integrals.
	Starting BB first half-transformation.
	Sorting BB half-transformed integrals.
	First half integral transformation complete.
	Starting AA second half-transformation.
	Starting AB second half-transformation.
	Starting BB second half-transformation.
	Two-electron integral transformation complete.
	(OO|OV)...
	Starting AA second half-transformation.
	Starting AB second half-transformation.
	Starting BB second half-transformation.
	Two-electron integral transformation complete.
	(OO|VV)...
	Starting AA second half-transformation.
	Starting AB second half-transformation.
	Starting BB second half-transformation.
	Two-electron integral transformation complete.
	(OV|OO)...
	Starting AA/AB first half-transformation.
	Sorting AA/AB half-transformed integrals.
	Starting BB first half-transformation.
	Sorting BB half-transformed integrals.
	First half integral transformation complete.
	Starting AA second half-transformation.
	Starting AB second half-transformation.
	Starting BB second half-transformation.
	Two-electron integral transformation complete.
	(OV|OV)...
	Starting AA second half-transformation.
	Starting AB second half-transformation.
	Starting BB second half-transformation.
	Two-electron integral transformation complete.
	(OV|VV)...
	Starting AA second half-transformation.
	Starting AB second half-transformation.
	Starting BB second half-transformation.
	Two-electron integral transformation complete.
	(VV|OO)...
	Starting AA/AB first half-transformation.
	Sorting AA/AB half-transformed integrals.
	Starting BB first half-transformation.
	Sorting BB half-transformed integrals.
	First half integral transformation complete.
	Starting AA second half-transformation.
	Starting AB second half-transformation.
	Starting BB second half-transformation.
	Two-electron integral transformation complete.
	(VV|OV)...
	Starting AA second half-transformation.
	Starting AB second half-transformation.
	Starting BB second half-transformation.
	Two-electron integral transformation complete.
	(VV|VV)...
	Starting AA second half-transformation.
	Starting AB second half-transformation.
	Starting BB second half-transformation.
	Two-electron integral transformation complete.
	Frozen core energy     =   -614.30505038090894

	Size of irrep 0 of <AB|CD> integrals:     89.284 (MW) /    714.269 (MB)
	Size of irrep 1 of <AB|CD> integrals:     72.539 (MW) /    580.314 (MB)
	Size of irrep 2 of <AB|CD> integrals:     82.210 (MW) /    657.684 (MB)
	Size of irrep 3 of <AB|CD> integrals:     82.210 (MW) /    657.684 (MB)
	Size of irrep 4 of <AB|CD> integrals:     72.522 (MW) /    580.178 (MB)
	Size of irrep 5 of <AB|CD> integrals:     92.891 (MW) /    743.128 (MB)
	Size of irrep 6 of <AB|CD> integrals:     82.229 (MW) /    657.829 (MB)
	Size of irrep 7 of <AB|CD> integrals:     82.229 (MW) /    657.829 (MB)
	Total:                                   656.114 (MW) /   5248.915 (MB)

	Size of irrep 0 of <ab|cd> integrals:     91.394 (MW) /    731.149 (MB)
	Size of irrep 1 of <ab|cd> integrals:     73.874 (MW) /    590.992 (MB)
	Size of irrep 2 of <ab|cd> integrals:     84.272 (MW) /    674.179 (MB)
	Size of irrep 3 of <ab|cd> integrals:     83.649 (MW) /    669.195 (MB)
	Size of irrep 4 of <ab|cd> integrals:     73.874 (MW) /    590.992 (MB)
	Size of irrep 5 of <ab|cd> integrals:     95.082 (MW) /    760.656 (MB)
	Size of irrep 6 of <ab|cd> integrals:     83.649 (MW) /    669.195 (MB)
	Size of irrep 7 of <ab|cd> integrals:     84.272 (MW) /    674.179 (MB)
	Total:                                   670.067 (MW) /   5360.537 (MB)

	Size of irrep 0 of <Ab|Cd> integrals:    375.972 (MW) /   3007.777 (MB)
	Size of irrep 1 of <Ab|Cd> integrals:    292.821 (MW) /   2342.564 (MB)
	Size of irrep 2 of <Ab|Cd> integrals:    332.953 (MW) /   2663.624 (MB)
	Size of irrep 3 of <Ab|Cd> integrals:    331.713 (MW) /   2653.707 (MB)
	Size of irrep 4 of <Ab|Cd> integrals:    292.786 (MW) /   2342.291 (MB)
	Size of irrep 5 of <Ab|Cd> integrals:    375.933 (MW) /   3007.467 (MB)
	Size of irrep 6 of <Ab|Cd> integrals:    331.750 (MW) /   2653.998 (MB)
	Size of irrep 7 of <Ab|Cd> integrals:    332.953 (MW) /   2663.624 (MB)
	Total:                                  2666.881 (MW) /  21335.052 (MB)

	Size of irrep 0 of <IA|BC> integrals:      5.552 (MW) /     44.419 (MB)
	Size of irrep 1 of <IA|BC> integrals:      3.202 (MW) /     25.619 (MB)
	Size of irrep 2 of <IA|BC> integrals:      4.316 (MW) /     34.527 (MB)
	Size of irrep 3 of <IA|BC> integrals:      4.316 (MW) /     34.527 (MB)
	Size of irrep 4 of <IA|BC> integrals:      3.236 (MW) /     25.889 (MB)
	Size of irrep 5 of <IA|BC> integrals:      5.609 (MW) /     44.875 (MB)
	Size of irrep 6 of <IA|BC> integrals:      4.280 (MW) /     34.241 (MB)
	Size of irrep 7 of <IA|BC> integrals:      4.280 (MW) /     34.241 (MB)
	Total:                                    34.792 (MW) /    278.337 (MB)

	Size of irrep 0 of <ia|bc> integrals:      3.472 (MW) /     27.772 (MB)
	Size of irrep 1 of <ia|bc> integrals:      1.908 (MW) /     15.265 (MB)
	Size of irrep 2 of <ia|bc> integrals:      2.313 (MW) /     18.507 (MB)
	Size of irrep 3 of <ia|bc> integrals:      2.908 (MW) /     23.267 (MB)
	Size of irrep 4 of <ia|bc> integrals:      1.908 (MW) /     15.265 (MB)
	Size of irrep 5 of <ia|bc> integrals:      3.491 (MW) /     27.927 (MB)
	Size of irrep 6 of <ia|bc> integrals:      2.908 (MW) /     23.267 (MB)
	Size of irrep 7 of <ia|bc> integrals:      2.313 (MW) /     18.507 (MB)
	Total:                                    21.222 (MW) /    169.777 (MB)

	Size of irrep 0 of <Ia|Bc> integrals:      5.642 (MW) /     45.140 (MB)
	Size of irrep 1 of <Ia|Bc> integrals:      3.234 (MW) /     25.873 (MB)
	Size of irrep 2 of <Ia|Bc> integrals:      4.361 (MW) /     34.888 (MB)
	Size of irrep 3 of <Ia|Bc> integrals:      4.335 (MW) /     34.678 (MB)
	Size of irrep 4 of <Ia|Bc> integrals:      3.251 (MW) /     26.009 (MB)
	Size of irrep 5 of <Ia|Bc> integrals:      5.662 (MW) /     45.293 (MB)
	Size of irrep 6 of <Ia|Bc> integrals:      4.317 (MW) /     34.534 (MB)
	Size of irrep 7 of <Ia|Bc> integrals:      4.361 (MW) /     34.888 (MB)
	Total:                                    35.163 (MW) /    281.303 (MB)

	Size of irrep 0 of <iA|bC> integrals:      3.432 (MW) /     27.456 (MB)
	Size of irrep 1 of <iA|bC> integrals:      1.882 (MW) /     15.059 (MB)
	Size of irrep 2 of <iA|bC> integrals:      2.281 (MW) /     18.247 (MB)
	Size of irrep 3 of <iA|bC> integrals:      2.896 (MW) /     23.167 (MB)
	Size of irrep 4 of <iA|bC> integrals:      1.899 (MW) /     15.195 (MB)
	Size of irrep 5 of <iA|bC> integrals:      3.451 (MW) /     27.610 (MB)
	Size of irrep 6 of <iA|bC> integrals:      2.878 (MW) /     23.022 (MB)
	Size of irrep 7 of <iA|bC> integrals:      2.281 (MW) /     18.247 (MB)
	Total:                                    21.000 (MW) /    168.003 (MB)

	Size of irrep 0 of tIjAb amplitudes:       0.078 (MW) /      0.620 (MB)
	Size of irrep 1 of tIjAb amplitudes:       0.017 (MW) /      0.137 (MB)
	Size of irrep 2 of tIjAb amplitudes:       0.018 (MW) /      0.146 (MB)
	Size of irrep 3 of tIjAb amplitudes:       0.036 (MW) /      0.291 (MB)
	Size of irrep 4 of tIjAb amplitudes:       0.000 (MW) /      0.000 (MB)
	Size of irrep 5 of tIjAb amplitudes:       0.058 (MW) /      0.465 (MB)
	Size of irrep 6 of tIjAb amplitudes:       0.055 (MW) /      0.437 (MB)
	Size of irrep 7 of tIjAb amplitudes:       0.018 (MW) /      0.146 (MB)
	Total:                                     0.280 (MW) /      2.243 (MB)

	Nuclear Rep. energy          =     47.85821480325067
	SCF energy                   =   -577.76504087492162
	One-electron energy          =    -19.11533766364547
	Two-electron (AA) energy     =      2.52119526852122
	Two-electron (BB) energy     =      0.73646275990375
	Two-electron (AB) energy     =      4.53947433796222
	Two-electron energy          =      7.79713236638718
	Reference energy             =   -577.76504087491651

*** tstop() called on cqc05 at Wed Aug 26 13:44:06 2020
Module time:
	user time   =     276.58 seconds =       4.61 minutes
	system time =     146.45 seconds =       2.44 minutes
	total time  =       1642 seconds =      27.37 minutes
Total time:
	user time   =     898.68 seconds =      14.98 minutes
	system time =     166.61 seconds =       2.78 minutes
	total time  =       2389 seconds =      39.82 minutes

*** tstart() called on cqc05
*** at Wed Aug 26 13:44:06 2020

            **************************
            *                        *
            *        CCENERGY        *
            *                        *
            **************************

    Nuclear Rep. energy (wfn)     =   47.858214803250668
    SCF energy          (wfn)     = -577.765040874921624
    Reference energy    (file100) = -577.765040874916508

    Input parameters:
    -----------------
    Wave function   =     CCSD
    Reference wfn   =     UHF
    Brueckner       =     No
    Memory (Mbytes) =     250000.0
    Maxiter         =     50
    R_Convergence   =     1.0e-07
    E_Convergence   =     1.0e-06
    Restart         =     Yes
    DIIS            =     Yes
    AO Basis        =     NONE
    ABCD            =     NEW
    Cache Level     =     2
    Cache Type      =     LRU
    Print Level     =     1
    Num. of threads =     4
    # Amps to Print =     10
    Print MP2 Amps? =     No
    Analyze T2 Amps =     No
    Print Pair Ener =     No
    Local CC        =     No
    SCS-MP2         =     False
    SCSN-MP2        =     False
    SCS-CCSD        =     False

MP2 correlation energy -0.1966833663190727
                Solving CC Amplitude Equations
                ------------------------------
  Iter             Energy              RMS        T1Diag      D1Diag    New D1Diag    D2Diag
  ----     ---------------------    ---------   ----------  ----------  ----------   --------
     0        -0.196683366319122    0.000e+00    0.000000    0.000000    0.000000    0.000000
     1        -0.202519322426620    8.858e-02    0.022940    0.000000    0.000000    0.000000
     2        -0.212049414935764    3.475e-02    0.027898    0.000000    0.000000    0.000000
     3        -0.214283067404602    1.739e-02    0.034384    0.000000    0.000000    0.000000
     4        -0.214256880767832    5.245e-03    0.036180    0.000000    0.000000    0.000000
     5        -0.214331178026032    2.006e-03    0.036697    0.000000    0.000000    0.000000
     6        -0.214319055938052    7.943e-04    0.036842    0.000000    0.000000    0.000000
     7        -0.214316713378611    2.437e-04    0.036862    0.000000    0.000000    0.000000
     8        -0.214321140235334    8.369e-05    0.036871    0.000000    0.000000    0.000000
     9        -0.214320429936509    3.030e-05    0.036872    0.000000    0.000000    0.000000
    10        -0.214320193149341    1.163e-05    0.036873    0.000000    0.000000    0.000000
    11        -0.214320232970441    3.364e-06    0.036873    0.000000    0.000000    0.000000
    12        -0.214320284222493    1.238e-06    0.036873    0.000000    0.000000    0.000000
    13        -0.214320307564290    4.722e-07    0.036874    0.000000    0.000000    0.000000
    14        -0.214320318493212    1.967e-07    0.036874    0.000000    0.000000    0.000000
    15        -0.214320316961985    9.476e-08    0.036874    0.000000    0.000000    0.000000
    15        -0.214320316961985    9.476e-08    0.036874    0.000000    0.000000    0.000000

    Iterations converged.


    CCSD corr. energy   =   -0.214320316961985
    PPL corr. energy    =    0.084076413159939
    OS PPL corr. energy =    0.072294045048759
    SS PPL corr. energy =    0.011782368111174
    Largest TIA Amplitudes:
              2 227         0.0285060202
              3 293         0.0251354051
              4 339         0.0232422130
              2 228        -0.0170680181
              2 224        -0.0168031226
              3 291         0.0156849452
              3 297        -0.0146630535
              3 294         0.0140285130
              4 340         0.0140199856
              2 230        -0.0139772693

    Largest Tia Amplitudes:
              0   0         0.0453615165
              2 292        -0.0201646855
              2 294        -0.0200997754
              1 229         0.0171670060
              0   7        -0.0164833238
              2 290         0.0140412176
              0   5        -0.0137052520
              1 231         0.0132289950
              2 298         0.0126860388
              2 296         0.0122024074

    Largest TIJAB Amplitudes:
      4   3 144  97         0.0543410177
      4   3 145  97        -0.0316177732
      4   1 227  97         0.0280939440
      4   1 228  97        -0.0265049532
      4   3  66   6        -0.0250671157
      3   1 227 144         0.0246434737
      3   1 228 144        -0.0217918606
      3   2 144   6        -0.0205307026
      4   3 144  98        -0.0195464644
      4   3 146  97         0.0190240444

    Largest Tijab Amplitudes:
      2   1 145   0        -0.0414695147
      2   1 146   0         0.0347201050
      2   1 147   0        -0.0164374031
      2   1 145   6         0.0159675224
      2   1 148   0         0.0157588456
      2   1 145   1         0.0147720244
      2   1 145   2         0.0144354558
      2   1 146   6        -0.0140582949
      2   0 336  67         0.0139899339
      2   0 295   0        -0.0137670060

    Largest TIjAb Amplitudes:
      3   2 144 145         0.1127186598
      4   1  97   0         0.1009942963
      3   2 144 146        -0.0955073950
      3   1 144   0         0.0838977642
      4   2  97 145         0.0739788118
      3   2 145 145        -0.0649514417
      4   2  97 146        -0.0628609073
      2   1  97  99         0.0580431374
      1   1  97 336         0.0554917314
      3   2 145 146         0.0554082985

    SCF energy       (wfn)                    = -577.765040874921624
    Reference energy (file100)                = -577.765040874916508

    Opposite-spin MP2 correlation energy      =   -0.153881991460248
    Same-spin MP2 correlation energy          =   -0.042801374857790
    MP2 correlation energy                    =   -0.196683366319073
      * MP2 total energy                      = -577.961724241235629

    Opposite-spin CCSD correlation energy     =   -0.174527033362840
    Same-spin CCSD correlation energy         =   -0.039793281870460
    CCSD correlation energy                   =   -0.214320316961985
      * CCSD total energy                     = -577.979361191878525


*** tstop() called on cqc05 at Wed Aug 26 13:57:58 2020
Module time:
	user time   =     152.07 seconds =       2.53 minutes
	system time =     198.96 seconds =       3.32 minutes
	total time  =        832 seconds =      13.87 minutes
Total time:
	user time   =    1050.75 seconds =      17.51 minutes
	system time =     365.57 seconds =       6.09 minutes
	total time  =       3221 seconds =      53.68 minutes

*** Psi4 exiting successfully. Buy a developer a beer!
