
    -----------------------------------------------------------------------
          Psi4: An Open-Source Ab Initio Electronic Structure Package
                               Psi4 1.4a3.dev88 

                         Git: Rev {master} 262e345 


    D. G. A. Smith, L. A. Burns, A. C. Simmonett, R. M. Parrish,
    M. C. Schieber, R. Galvelis, P. Kraus, H. Kruse, R. Di Remigio,
    A. Alenaizan, A. M. James, S. Lehtola, J. P. Misiewicz, M. Scheurer,
    R. A. Shaw, J. B. Schriber, Y. Xie, Z. L. Glick, D. A. Sirianni,
    J. S. O'Brien, J. M. Waldrop, A. Kumar, E. G. Hohenstein,
    B. P. Pritchard, B. R. Brooks, H. F. Schaefer III, A. Yu. Sokolov,
    K. Patkowski, A. E. DePrince III, U. Bozkaya, R. A. King,
    F. A. Evangelista, J. M. Turney, T. D. Crawford, C. D. Sherrill,
    J. Chem. Phys. 152(18) 184108 (2020). https://doi.org/10.1063/5.0006002

                            Additional Code Authors
    E. T. Seidl, C. L. Janssen, E. F. Valeev, M. L. Leininger,
    J. F. Gonthier, R. M. Richard, H. R. McAlexander, M. Saitow, X. Wang,
    P. Verma, and M. H. Lechner

             Previous Authors, Complete List of Code Contributors,
                       and Citations for Specific Modules
    https://github.com/psi4/psi4/blob/master/codemeta.json
    https://github.com/psi4/psi4/graphs/contributors
    http://psicode.org/psi4manual/master/introduction.html#citing-psifour

    -----------------------------------------------------------------------


    Psi4 started on: Wednesday, 20 January 2021 09:51PM

    Process ID: 143817
    Host:       n412-041.vsc4.prov
    PSIDATADIR: /home/fs71337/gallo4/psi4/psi4/build/stage/share/psi4
    Memory:     500.0 MiB
    Threads:    48
    
  ==> Input File <==

--------------------------------------------------------------------------
# Any line starting with the # character is a comment line
memory 250000 mb
molecule molecule{
1 3
P          0.0000000000        0.0000000000        0.0000000000
}

set {
  reference uhf
  basis aug-cc-pv(5+d)z
  scf_type OUT_OF_CORE
  freeze_core true
}

energy('ccsd(t)')
--------------------------------------------------------------------------

  Memory set to 232.831 GiB by Python driver.

Scratch directory: /binfl/lv71337/airmler/temp/

*** tstart() called on n412-041.vsc4.prov
*** at Wed Jan 20 21:51:27 2021

   => Loading Basis Set <=

    Name: AUG-CC-PV(5+D)Z
    Role: ORBITAL
    Keyword: BASIS
    atoms 1 entry P          line  1330 file /home/fs71337/gallo4/psi4/psi4/build/stage/share/psi4/basis/aug-cc-pv_5pd_z.gbs 


         ---------------------------------------------------------
                                   SCF
               by Justin Turney, Rob Parrish, Andy Simmonett
                          and Daniel G. A. Smith
                              UHF Reference
                       48 Threads, 238418 MiB Core
         ---------------------------------------------------------

  ==> Geometry <==

    Molecular point group: d2h
    Geometry (in Angstrom), charge = 1, multiplicity = 3:

       Center              X                  Y                   Z               Mass       
    ------------   -----------------  -----------------  -----------------  -----------------
         P            0.000000000000     0.000000000000     0.000000000000    30.973761998420

  Running in d2h symmetry.

  Rotational constants: A = ************  B = ************  C = ************ [cm^-1]
  Rotational constants: A = ************  B = ************  C = ************ [MHz]
  Nuclear repulsion =    0.000000000000000

  Charge       = 1
  Multiplicity = 3
  Electrons    = 14
  Nalpha       = 8
  Nbeta        = 6

  ==> Algorithm <==

  SCF Algorithm Type is OUT_OF_CORE.
  DIIS enabled.
  MOM disabled.
  Fractional occupation disabled.
  Guess Type is CORE.
  Energy threshold   = 1.00e-08
  Density threshold  = 1.00e-08
  Integral threshold = 1.00e-12

  ==> Primary Basis <==

  Basis Set: AUG-CC-PV(5+D)Z
    Blend: AUG-CC-PV(5+D)Z
    Number of shells: 30
    Number of basis function: 136
    Number of Cartesian functions: 192
    Spherical Harmonics?: true
    Max angular momentum: 5

  ==> Integral Setup <==

  ==> DiskJK: Disk-Based J/K Matrices <==

    J tasked:                  Yes
    K tasked:                  Yes
    wK tasked:                  No
    Memory [MiB]:           178813
    Schwarz Cutoff:          1E-12

  Minimum eigenvalue in the overlap matrix is 1.5018042402E-04.
  Reciprocal condition number of the overlap matrix is 3.4634166518E-05.
    Using symmetric orthogonalization.

  ==> Pre-Iterations <==

  SCF Guess: Core (One-Electron) Hamiltonian.

   -------------------------------------------------------
    Irrep   Nso     Nmo     Nalpha   Nbeta   Ndocc  Nsocc
   -------------------------------------------------------
     Ag        29      29       2       2       2       0
     B1g       12      12       0       0       0       0
     B2g       12      12       0       0       0       0
     B3g       12      12       0       0       0       0
     Au         8       8       0       0       0       0
     B1u       21      21       2       1       1       1
     B2u       21      21       2       2       2       0
     B3u       21      21       2       1       1       1
   -------------------------------------------------------
    Total     136     136       8       6       6       2
   -------------------------------------------------------

  ==> Iterations <==

                        Total Energy        Delta E     RMS |[F,P]|

    Occupation by irrep:
             Ag   B1g   B2g   B3g    Au   B1u   B2u   B3u 
    DOCC [     3,    0,    0,    0,    0,    1,    1,    1 ]
    SOCC [     0,    0,    0,    0,    0,    1,    0,    1 ]

   @UHF iter   1:  -309.09332939776363   -3.09093e+02   3.54884e-01 DIIS
   @UHF iter   2:  -333.23179913977941   -2.41385e+01   1.40021e-01 DIIS
   @UHF iter   3:  -340.20509034673455   -6.97329e+00   2.16935e-02 DIIS
   @UHF iter   4:  -340.34988509555001   -1.44795e-01   2.33995e-03 DIIS
   @UHF iter   5:  -340.35500015203797   -5.11506e-03   3.12474e-04 DIIS
   @UHF iter   6:  -340.35513638109035   -1.36229e-04   6.23023e-05 DIIS
   @UHF iter   7:  -340.35514822842009   -1.18473e-05   9.62353e-06 DIIS
   @UHF iter   8:  -340.35514849082028   -2.62400e-07   1.12680e-06 DIIS
   @UHF iter   9:  -340.35514849334811   -2.52783e-09   1.34667e-07 DIIS
   @UHF iter  10:  -340.35514849338841   -4.03020e-11   2.58256e-08 DIIS
   @UHF iter  11:  -340.35514849339052   -2.10321e-12   3.53538e-09 DIIS
  Energy and wave function converged.


  ==> Post-Iterations <==

   @Spin Contamination Metric:   1.345950707E-02
   @S^2 Expected:                2.000000000E+00
   @S^2 Observed:                2.013459507E+00
   @S   Expected:                1.000000000E+00
   @S   Observed:                1.000000000E+00

    Orbital Energies [Eh]
    ---------------------

    Alpha Occupied:                                                       

       1Ag   -80.389099     2Ag    -7.922636     1B3u   -5.823796  
       1B1u   -5.823796     1B2u   -5.806806     3Ag    -1.137982  
       2B1u   -0.725281     2B3u   -0.725281  

    Alpha Virtual:                                                        

       2B2u   -0.339312     4Ag    -0.114880     3B3u   -0.076639  
       3B1u   -0.076639     3B2u   -0.074618     5Ag    -0.045588  
       1B2g   -0.045588     1B1g   -0.041069     1B3g   -0.041069  
       6Ag    -0.039128     4B3u    0.101647     4B1u    0.101647  
       4B2u    0.110936     7Ag     0.125776     8Ag     0.131253  
       2B2g    0.131253     2B3g    0.144160     2B1g    0.144160  
       9Ag     0.150511     5B2u    0.168240     5B1u    0.168989  
       5B3u    0.168989     6B2u    0.171652     1Au     0.171652  
       6B1u    0.176562     6B3u    0.176562    10Ag     0.651121  
       3B1g    0.652238     3B3g    0.652238     3B2g    0.655838  
      11Ag     0.655838     4B3g    0.662264     4B1g    0.662264  
       4B2g    0.669635    12Ag     0.669635     5B2g    0.671269  
      13Ag     0.671269     5B1g    0.672471     5B3g    0.672471  
      14Ag     0.673318     7B2u    0.704514     7B1u    0.706088  
       7B3u    0.706088     2Au     0.710660     8B2u    0.710660  
       8B3u    0.717341     8B1u    0.717341     9B1u    0.809498  
       9B3u    0.809498     9B2u    0.819638    15Ag     1.017084  
      10B2u    1.847746    10B1u    1.849898    10B3u    1.849898  
      11B2u    1.852802    11B3u    1.853980    11B1u    1.853980  
       3Au     1.856235    12B2u    1.856235    13B2u    1.857594  
       4Au     1.857594    12B1u    1.863322    12B3u    1.863322  
      13B1u    1.866965    13B3u    1.866965     5Au     1.871707  
      14B2u    1.871707    14B1u    1.882602    14B3u    1.882602  
      16Ag     1.958458     6B1g    1.964146     6B3g    1.964146  
       6B2g    1.981521    17Ag     1.981521    18Ag     1.996090  
       7B1g    1.997684     7B3g    1.997684     7B2g    2.002522  
      19Ag     2.002522     8B3g    2.008771     8B1g    2.008771  
      20Ag     2.021421     8B2g    2.021421    15B2u    3.261855  
      15B1u    3.267617    15B3u    3.267617    16B2u    4.215096  
      16B1u    4.218536    16B3u    4.218536     6Au     4.228946  
      17B2u    4.228946    17B1u    4.246567    17B3u    4.246567  
      21Ag     4.383500    22Ag     4.520454     9B1g    4.524886  
       9B3g    4.524886     9B2g    4.546373    23Ag     4.546373  
      18B2u    4.835001    18B3u    4.836738    18B1u    4.836738  
       7Au     4.841966    19B2u    4.841966    19B1u    4.850732  
      19B3u    4.850732     8Au     4.863119    20B2u    4.863119  
      20B1u    4.879237    20B3u    4.879237    24Ag     4.911399  
      10B1g    4.913717    10B3g    4.913717    25Ag     4.920716  
      10B2g    4.920716    11B3g    4.932538    11B1g    4.932538  
      26Ag     4.949457    11B2g    4.949457    27Ag    12.721448  
      12B1g   12.725152    12B3g   12.725152    12B2g   12.736518  
      28Ag    12.736518    21B2u   16.228901    21B3u   16.229833  
      21B1u   16.229833    29Ag    44.382842  

    Beta Occupied:                                                        

       1Ag   -80.371388     2Ag    -7.905013     1B2u   -5.798478  
       1B3u   -5.778216     1B1u   -5.778216     3Ag    -0.934204  

    Beta Virtual:                                                         

       2B2u   -0.311296     2B1u   -0.252125     2B3u   -0.252125  
       4Ag    -0.107277     3B2u   -0.072805     3B3u   -0.064591  
       3B1u   -0.064591     5Ag    -0.028952     1B1g   -0.026103  
       1B3g   -0.026103     6Ag    -0.016233     1B2g   -0.016233  
       4B2u    0.116498     4B3u    0.137452     4B1u    0.137452  
       7Ag     0.144286     5B2u    0.171083     5B1u    0.172390  
       5B3u    0.172390     6B2u    0.176077     1Au     0.176077  
       8Ag     0.179530     6B1u    0.182982     6B3u    0.182982  
       2B3g    0.186354     2B1g    0.186354     2B2g    0.211950  
       9Ag     0.211950    10Ag     0.657147     3B1g    0.658589  
       3B3g    0.658589     3B2g    0.662759    11Ag     0.662759  
       4B3g    0.669564     4B1g    0.669564    12Ag     0.679299  
       4B2g    0.679299    13Ag     0.698640     5B1g    0.707498  
       5B3g    0.707498     7B2u    0.720656     7B1u    0.724710  
       7B3u    0.724710     2Au     0.736072     8B2u    0.736072  
       5B2g    0.739254    14Ag     0.739254     8B3u    0.755143  
       8B1u    0.755143     9B2u    0.830930     9B1u    0.871516  
       9B3u    0.871516    15Ag     1.050842    10B2u    1.858794  
      10B3u    1.860924    10B1u    1.860924    11B2u    1.866443  
       3Au     1.866443    11B1u    1.874746    11B3u    1.874746  
      12B2u    1.874986    12B1u    1.880178    12B3u    1.880178  
       4Au     1.886030    13B2u    1.886030     5Au     1.896815  
      14B2u    1.896815    13B1u    1.900583    13B3u    1.900583  
      14B1u    1.926411    14B3u    1.926411    16Ag     1.971711  
       6B1g    1.981511     6B3g    1.981511     6B2g    2.011861  
      17Ag     2.011861    18Ag     2.015502     7B1g    2.018642  
       7B3g    2.018642     7B2g    2.031272    19Ag     2.031272  
       8B3g    2.037310     8B1g    2.037310    20Ag     2.059550  
       8B2g    2.059550    15B2u    3.272046    15B1u    3.318024  
      15B3u    3.318024    16B2u    4.231438    16B1u    4.237292  
      16B3u    4.237292     6Au     4.255048    17B2u    4.255048  
      17B1u    4.285494    17B3u    4.285494    21Ag     4.405915  
      22Ag     4.534905     9B1g    4.538054     9B3g    4.538054  
       9B2g    4.570727    23Ag     4.570727    18B2u    4.850841  
      18B3u    4.853340    18B1u    4.853340     7Au     4.860870  
      19B2u    4.860870    19B1u    4.873527    19B3u    4.873527  
       8Au     4.891484    20B2u    4.891484    20B1u    4.914996  
      20B3u    4.914996    24Ag     4.930228    10B1g    4.933913  
      10B3g    4.933913    25Ag     4.945087    10B2g    4.945087  
      11B3g    4.964097    11B1g    4.964097    26Ag     4.991766  
      11B2g    4.991766    27Ag    12.731292    12B1g   12.738266  
      12B3g   12.738266    12B2g   12.759625    28Ag    12.759625  
      21B2u   16.235756    21B3u   16.262910    21B1u   16.262910  
      29Ag    44.396147  

    Final Occupation by Irrep:
             Ag   B1g   B2g   B3g    Au   B1u   B2u   B3u 
    DOCC [     3,    0,    0,    0,    0,    1,    1,    1 ]
    SOCC [     0,    0,    0,    0,    0,    1,    0,    1 ]

  @UHF Final Energy:  -340.35514849339052

   => Energetics <=

    Nuclear Repulsion Energy =              0.0000000000000000
    One-Electron Energy =                -465.7901044417851040
    Two-Electron Energy =                 125.4349559483945740
    Total Energy =                       -340.3551484933905158

  UHF NO Occupations:
  HONO-2 :    3 Ag 1.9932628
  HONO-1 :    2B1u 1.0000000
  HONO-0 :    2B3u 1.0000000
  LUNO+0 :    4 Ag 0.0067372
  LUNO+1 :    3B3u 0.0000070
  LUNO+2 :    3B1u 0.0000070
  LUNO+3 :    2B2u 0.0000006


Computation Completed


Properties will be evaluated at   0.000000,   0.000000,   0.000000 [a0]

Properties computed using the SCF density matrix

  Nuclear Dipole Moment: [e a0]
     X:     0.0000      Y:     0.0000      Z:     0.0000

  Electronic Dipole Moment: [e a0]
     X:     0.0000      Y:     0.0000      Z:     0.0000

  Dipole Moment: [e a0]
     X:     0.0000      Y:     0.0000      Z:     0.0000     Total:     0.0000

  Dipole Moment: [D]
     X:     0.0000      Y:     0.0000      Z:     0.0000     Total:     0.0000


*** tstop() called on n412-041.vsc4.prov at Wed Jan 20 21:51:53 2021
Module time:
	user time   =      36.72 seconds =       0.61 minutes
	system time =       2.99 seconds =       0.05 minutes
	total time  =         26 seconds =       0.43 minutes
Total time:
	user time   =      36.72 seconds =       0.61 minutes
	system time =       2.99 seconds =       0.05 minutes
	total time  =         26 seconds =       0.43 minutes

*** tstart() called on n412-041.vsc4.prov
*** at Wed Jan 20 21:51:53 2021


	Wfn Parameters:
	--------------------
	Wavefunction         = CCSD_T
	Number of irreps     = 8
	Number of MOs        = 136
	Number of active MOs = 131
	AO-Basis             = NONE
	Semicanonical        = false
	Reference            = UHF
	Print Level          = 1

	IRREP	# MOs	# FZDC	# DOCC	# SOCC	# VIRT	# FZVR
	-----	-----	------	------	------	------	------
	 Ag	   29	    2	    1	    0	    26	    0
	 B1g	   12	    0	    0	    0	    12	    0
	 B2g	   12	    0	    0	    0	    12	    0
	 B3g	   12	    0	    0	    0	    12	    0
	 Au	   8	    0	    0	    0	    8	    0
	 B1u	   21	    1	    0	    1	    19	    0
	 B2u	   21	    1	    0	    0	    20	    0
	 B3u	   21	    1	    0	    1	    19	    0
	Transforming integrals...
	IWL integrals will be deleted.
	(OO|OO)...
	Presorting SO-basis two-electron integrals.
	Sorting File: SO Ints (nn|nn) nbuckets = 1
	Constructing frozen core operators
	Starting AA/AB first half-transformation.
	Sorting AA/AB half-transformed integrals.
	Starting BB first half-transformation.
	Sorting BB half-transformed integrals.
	First half integral transformation complete.
	Starting AA second half-transformation.
	Starting AB second half-transformation.
	Starting BB second half-transformation.
	Two-electron integral transformation complete.
	(OO|OV)...
	Starting AA second half-transformation.
	Starting AB second half-transformation.
	Starting BB second half-transformation.
	Two-electron integral transformation complete.
	(OO|VV)...
	Starting AA second half-transformation.
	Starting AB second half-transformation.
	Starting BB second half-transformation.
	Two-electron integral transformation complete.
	(OV|OO)...
	Starting AA/AB first half-transformation.
	Sorting AA/AB half-transformed integrals.
	Starting BB first half-transformation.
	Sorting BB half-transformed integrals.
	First half integral transformation complete.
	Starting AA second half-transformation.
	Starting AB second half-transformation.
	Starting BB second half-transformation.
	Two-electron integral transformation complete.
	(OV|OV)...
	Starting AA second half-transformation.
	Starting AB second half-transformation.
	Starting BB second half-transformation.
	Two-electron integral transformation complete.
	(OV|VV)...
	Starting AA second half-transformation.
	Starting AB second half-transformation.
	Starting BB second half-transformation.
	Two-electron integral transformation complete.
	(VV|OO)...
	Starting AA/AB first half-transformation.
	Sorting AA/AB half-transformed integrals.
	Starting BB first half-transformation.
	Sorting BB half-transformed integrals.
	First half integral transformation complete.
	Starting AA second half-transformation.
	Starting AB second half-transformation.
	Starting BB second half-transformation.
	Two-electron integral transformation complete.
	(VV|OV)...
	Starting AA second half-transformation.
	Starting AB second half-transformation.
	Starting BB second half-transformation.
	Two-electron integral transformation complete.
	(VV|VV)...
	Starting AA second half-transformation.
	Starting AB second half-transformation.
	Starting BB second half-transformation.
	Two-electron integral transformation complete.
	Frozen core energy     =   -334.36291332562143

	Size of irrep 0 of <AB|CD> integrals:      1.173 (MW) /      9.383 (MB)
	Size of irrep 1 of <AB|CD> integrals:      0.976 (MW) /      7.809 (MB)
	Size of irrep 2 of <AB|CD> integrals:      0.955 (MW) /      7.636 (MB)
	Size of irrep 3 of <AB|CD> integrals:      0.976 (MW) /      7.809 (MB)
	Size of irrep 4 of <AB|CD> integrals:      0.817 (MW) /      6.538 (MB)
	Size of irrep 5 of <AB|CD> integrals:      1.119 (MW) /      8.955 (MB)
	Size of irrep 6 of <AB|CD> integrals:      1.149 (MW) /      9.193 (MB)
	Size of irrep 7 of <AB|CD> integrals:      1.119 (MW) /      8.955 (MB)
	Total:                                     8.285 (MW) /     66.279 (MB)

	Size of irrep 0 of <ab|cd> integrals:      1.257 (MW) /     10.053 (MB)
	Size of irrep 1 of <ab|cd> integrals:      1.032 (MW) /      8.258 (MB)
	Size of irrep 2 of <ab|cd> integrals:      1.032 (MW) /      8.258 (MB)
	Size of irrep 3 of <ab|cd> integrals:      1.032 (MW) /      8.258 (MB)
	Size of irrep 4 of <ab|cd> integrals:      0.861 (MW) /      6.889 (MB)
	Size of irrep 5 of <ab|cd> integrals:      1.201 (MW) /      9.610 (MB)
	Size of irrep 6 of <ab|cd> integrals:      1.201 (MW) /      9.610 (MB)
	Size of irrep 7 of <ab|cd> integrals:      1.201 (MW) /      9.610 (MB)
	Total:                                     8.818 (MW) /     70.546 (MB)

	Size of irrep 0 of <Ab|Cd> integrals:      5.438 (MW) /     43.506 (MB)
	Size of irrep 1 of <Ab|Cd> integrals:      4.016 (MW) /     32.128 (MB)
	Size of irrep 2 of <Ab|Cd> integrals:      3.968 (MW) /     31.745 (MB)
	Size of irrep 3 of <Ab|Cd> integrals:      4.016 (MW) /     32.128 (MB)
	Size of irrep 4 of <Ab|Cd> integrals:      3.356 (MW) /     26.850 (MB)
	Size of irrep 5 of <Ab|Cd> integrals:      4.640 (MW) /     37.118 (MB)
	Size of irrep 6 of <Ab|Cd> integrals:      4.700 (MW) /     37.602 (MB)
	Size of irrep 7 of <Ab|Cd> integrals:      4.640 (MW) /     37.118 (MB)
	Total:                                    34.774 (MW) /    278.194 (MB)

	Size of irrep 0 of <IA|BC> integrals:      0.147 (MW) /      1.175 (MB)
	Size of irrep 1 of <IA|BC> integrals:      0.079 (MW) /      0.632 (MB)
	Size of irrep 2 of <IA|BC> integrals:      0.098 (MW) /      0.782 (MB)
	Size of irrep 3 of <IA|BC> integrals:      0.079 (MW) /      0.632 (MB)
	Size of irrep 4 of <IA|BC> integrals:      0.058 (MW) /      0.463 (MB)
	Size of irrep 5 of <IA|BC> integrals:      0.121 (MW) /      0.965 (MB)
	Size of irrep 6 of <IA|BC> integrals:      0.094 (MW) /      0.755 (MB)
	Size of irrep 7 of <IA|BC> integrals:      0.121 (MW) /      0.965 (MB)
	Total:                                     0.796 (MW) /      6.368 (MB)

	Size of irrep 0 of <ia|bc> integrals:      0.062 (MW) /      0.493 (MB)
	Size of irrep 1 of <ia|bc> integrals:      0.024 (MW) /      0.195 (MB)
	Size of irrep 2 of <ia|bc> integrals:      0.024 (MW) /      0.195 (MB)
	Size of irrep 3 of <ia|bc> integrals:      0.024 (MW) /      0.195 (MB)
	Size of irrep 4 of <ia|bc> integrals:      0.015 (MW) /      0.119 (MB)
	Size of irrep 5 of <ia|bc> integrals:      0.044 (MW) /      0.351 (MB)
	Size of irrep 6 of <ia|bc> integrals:      0.044 (MW) /      0.351 (MB)
	Size of irrep 7 of <ia|bc> integrals:      0.044 (MW) /      0.351 (MB)
	Total:                                     0.281 (MW) /      2.250 (MB)

	Size of irrep 0 of <Ia|Bc> integrals:      0.154 (MW) /      1.231 (MB)
	Size of irrep 1 of <Ia|Bc> integrals:      0.080 (MW) /      0.641 (MB)
	Size of irrep 2 of <Ia|Bc> integrals:      0.104 (MW) /      0.829 (MB)
	Size of irrep 3 of <Ia|Bc> integrals:      0.080 (MW) /      0.641 (MB)
	Size of irrep 4 of <Ia|Bc> integrals:      0.059 (MW) /      0.469 (MB)
	Size of irrep 5 of <Ia|Bc> integrals:      0.125 (MW) /      0.999 (MB)
	Size of irrep 6 of <Ia|Bc> integrals:      0.095 (MW) /      0.763 (MB)
	Size of irrep 7 of <Ia|Bc> integrals:      0.125 (MW) /      0.999 (MB)
	Total:                                     0.822 (MW) /      6.574 (MB)

	Size of irrep 0 of <iA|bC> integrals:      0.061 (MW) /      0.485 (MB)
	Size of irrep 1 of <iA|bC> integrals:      0.024 (MW) /      0.192 (MB)
	Size of irrep 2 of <iA|bC> integrals:      0.024 (MW) /      0.191 (MB)
	Size of irrep 3 of <iA|bC> integrals:      0.024 (MW) /      0.192 (MB)
	Size of irrep 4 of <iA|bC> integrals:      0.015 (MW) /      0.117 (MB)
	Size of irrep 5 of <iA|bC> integrals:      0.041 (MW) /      0.327 (MB)
	Size of irrep 6 of <iA|bC> integrals:      0.043 (MW) /      0.347 (MB)
	Size of irrep 7 of <iA|bC> integrals:      0.041 (MW) /      0.327 (MB)
	Total:                                     0.273 (MW) /      2.180 (MB)

	Size of irrep 0 of tIjAb amplitudes:       0.002 (MW) /      0.019 (MB)
	Size of irrep 1 of tIjAb amplitudes:       0.000 (MW) /      0.000 (MB)
	Size of irrep 2 of tIjAb amplitudes:       0.000 (MW) /      0.000 (MB)
	Size of irrep 3 of tIjAb amplitudes:       0.000 (MW) /      0.000 (MB)
	Size of irrep 4 of tIjAb amplitudes:       0.000 (MW) /      0.000 (MB)
	Size of irrep 5 of tIjAb amplitudes:       0.002 (MW) /      0.017 (MB)
	Size of irrep 6 of tIjAb amplitudes:       0.000 (MW) /      0.000 (MB)
	Size of irrep 7 of tIjAb amplitudes:       0.002 (MW) /      0.017 (MB)
	Total:                                     0.007 (MW) /      0.053 (MB)

	Nuclear Rep. energy          =      0.00000000000000
	SCF energy                   =   -340.35514849339052
	One-electron energy          =     -8.46172236537765
	Two-electron (AA) energy     =      1.08241895870725
	Two-electron (BB) energy     =      0.00000000000000
	Two-electron (AB) energy     =      1.38706823890147
	Two-electron energy          =      2.46948719760872
	Reference energy             =   -340.35514849339035

*** tstop() called on n412-041.vsc4.prov at Wed Jan 20 21:52:12 2021
Module time:
	user time   =       4.44 seconds =       0.07 minutes
	system time =       2.85 seconds =       0.05 minutes
	total time  =         19 seconds =       0.32 minutes
Total time:
	user time   =      41.16 seconds =       0.69 minutes
	system time =       5.84 seconds =       0.10 minutes
	total time  =         45 seconds =       0.75 minutes
            **************************
            *                        *
            *        CCENERGY        *
            *                        *
            **************************

    Nuclear Rep. energy (wfn)     =    0.000000000000000
    SCF energy          (wfn)     = -340.355148493390516
    Reference energy    (file100) = -340.355148493390345

    Input parameters:
    -----------------
    Wave function   =     CCSD_T
    Reference wfn   =     UHF
    Brueckner       =     No
    Memory (Mbytes) =     250000.0
    Maxiter         =     50
    R_Convergence   =     1.0e-07
    E_Convergence   =     1.0e-06
    Restart         =     Yes
    DIIS            =     Yes
    AO Basis        =     NONE
    ABCD            =     NEW
    Cache Level     =     2
    Cache Type      =     LRU
    Print Level     =     1
    Num. of threads =     48
    # Amps to Print =     10
    Print MP2 Amps? =     No
    Analyze T2 Amps =     No
    Print Pair Ener =     No
    Local CC        =     No
    SCS-MP2         =     False
    SCSN-MP2        =     False
    SCS-CCSD        =     False

MP2 correlation energy -0.0687839054537990
                Solving CC Amplitude Equations
                ------------------------------
  Iter             Energy              RMS        T1Diag      D1Diag    New D1Diag    D2Diag
  ----     ---------------------    ---------   ----------  ----------  ----------   --------
     0        -0.068783905453799    0.000e+00    0.000000    0.000000    0.000000    0.000000
     1        -0.080112472496582    4.857e-02    0.007971    0.000000    0.000000    0.000000
     2        -0.086013934881492    1.983e-02    0.013441    0.000000    0.000000    0.000000
     3        -0.086239011427056    4.488e-03    0.014785    0.000000    0.000000    0.000000
     4        -0.086334083562057    8.674e-04    0.014895    0.000000    0.000000    0.000000
     5        -0.086323025819030    2.324e-04    0.014890    0.000000    0.000000    0.000000
     6        -0.086323017970085    6.059e-05    0.014889    0.000000    0.000000    0.000000
     7        -0.086323989960382    1.037e-05    0.014891    0.000000    0.000000    0.000000
     8        -0.086323757748210    2.170e-06    0.014892    0.000000    0.000000    0.000000
     9        -0.086323745609457    4.966e-07    0.014892    0.000000    0.000000    0.000000
    10        -0.086323743595185    1.482e-07    0.014892    0.000000    0.000000    0.000000
    11        -0.086323745126838    3.793e-08    0.014892    0.000000    0.000000    0.000000

    Iterations converged.


    Largest TIA Amplitudes:
              0   5        -0.0185439108
              0   2         0.0139056674
              0  10        -0.0089787970
              1  71        -0.0038185435
              2 110        -0.0038185435
              0   0         0.0030523317
              1  76         0.0030433662
              2 115         0.0030433662
              0   6        -0.0029035794
              0  11         0.0028245355

    Largest Tia Amplitudes:
              0   3         0.0076761936
              0   0        -0.0076184414
              0   4        -0.0037694015
              0   1         0.0027282102
              0   9         0.0023267512
              0  11        -0.0013882464
              0  17        -0.0012811593
              0  14        -0.0005850405
              0  18        -0.0003308702
              0  20         0.0002292125

    Largest TIJAB Amplitudes:
      2   1  39   4        -0.0267391319
      2   1  38   4        -0.0230921134
      2   1  39   1        -0.0230921134
      2   1  38   1        -0.0208676225
      1   0  89  51         0.0171614843
      2   0  89  27         0.0171614843
      2   1  51  27         0.0140450800
      2   1  39   9        -0.0138800911
      2   1  42   4        -0.0138800911
      1   0  89  50         0.0134615375

    Largest TIjAb Amplitudes:
      0   0  89  90         0.1011767628
      1   0  51  90         0.0456499316
      2   0  27  90         0.0456499316
      1   0   4  70         0.0406860904
      1   0  39 110         0.0406860904
      2   0   4 110        -0.0406860904
      2   0  39  70         0.0406860904
      1   0   1  70         0.0346754037
      1   0  38 110         0.0346754037
      2   0   1 110        -0.0346754037

    SCF energy       (wfn)                    = -340.355148493390516
    Reference energy (file100)                = -340.355148493390345

    Opposite-spin MP2 correlation energy      =   -0.057575034784341
    Same-spin MP2 correlation energy          =   -0.011208870669458
    Singles MP2 correlation energy            =   -0.000000000000000
    MP2 correlation energy                    =   -0.068783905453799
      * MP2 total energy                      = -340.423932398844158

    Opposite-spin CCSD correlation energy     =   -0.073630427294071
    Same-spin CCSD correlation energy         =   -0.012693317832767
    Singles CCSD correlation energy           =   -0.000000000000000
    CCSD correlation energy                   =   -0.086323745126838
      * CCSD total energy                     = -340.441472238517179

            **************************
            *                        *
            *        CCTRIPLES       *
            *                        *
            **************************


    Wave function   =    CCSD_T
    Reference wfn   =      UHF

    Nuclear Rep. energy (wfn)                =    0.000000000000000
    SCF energy          (wfn)                = -340.355148493390516
    Reference energy    (file100)            = -340.355148493390345
    CCSD energy         (file100)            =   -0.086323745126838
    Total CCSD energy   (file100)            = -340.441472238517179

    Number of ijk index combinations:
    Spin Case AAA:                                   1
    Spin Case BBB:                                   0
    Spin Case AAB:                                   3
    Spin Case ABB:                                   0
    AAA (T) energy                             =   -0.000061231929972
    BBB (T) energy                             =    0.000000000000000
    AAB (T) energy                             =   -0.002702441956504
    ABB (T) energy                             =    0.000000000000000
    (T) energy                                   =   -0.002763673886476
      * CCSD(T) total energy                     = -340.444235912403656


    Psi4 stopped on: Wednesday, 20 January 2021 09:52PM
    Psi4 wall time for execution: 0:00:58.70

*** Psi4 exiting successfully. Buy a developer a beer!
