
    -----------------------------------------------------------------------
          Psi4: An Open-Source Ab Initio Electronic Structure Package
                               Psi4 1.4a3.dev88 

                         Git: Rev {master} 262e345 


    D. G. A. Smith, L. A. Burns, A. C. Simmonett, R. M. Parrish,
    M. C. Schieber, R. Galvelis, P. Kraus, H. Kruse, R. Di Remigio,
    A. Alenaizan, A. M. James, S. Lehtola, J. P. Misiewicz, M. Scheurer,
    R. A. Shaw, J. B. Schriber, Y. Xie, Z. L. Glick, D. A. Sirianni,
    J. S. O'Brien, J. M. Waldrop, A. Kumar, E. G. Hohenstein,
    B. P. Pritchard, B. R. Brooks, H. F. Schaefer III, A. Yu. Sokolov,
    K. Patkowski, A. E. DePrince III, U. Bozkaya, R. A. King,
    F. A. Evangelista, J. M. Turney, T. D. Crawford, C. D. Sherrill,
    J. Chem. Phys. 152(18) 184108 (2020). https://doi.org/10.1063/5.0006002

                            Additional Code Authors
    E. T. Seidl, C. L. Janssen, E. F. Valeev, M. L. Leininger,
    J. F. Gonthier, R. M. Richard, H. R. McAlexander, M. Saitow, X. Wang,
    P. Verma, and M. H. Lechner

             Previous Authors, Complete List of Code Contributors,
                       and Citations for Specific Modules
    https://github.com/psi4/psi4/blob/master/codemeta.json
    https://github.com/psi4/psi4/graphs/contributors
    http://psicode.org/psi4manual/master/introduction.html#citing-psifour

    -----------------------------------------------------------------------


    Psi4 started on: Tuesday, 26 January 2021 06:13PM

    Process ID: 398566
    Host:       n412-039.vsc4.prov
    PSIDATADIR: /home/fs71337/gallo4/psi4/eri-6/psi4/build/stage/share/psi4
    Memory:     500.0 MiB
    Threads:    48
    
  ==> Input File <==

--------------------------------------------------------------------------
# Any line starting with the # character is a comment line
memory 250000 mb
molecule molecule{
1 3
P          0.0000000000        0.0000000000        0.0000000000
}

set {
  reference uhf
  basis aug-cc-pV(d+d)Z
  scf_type OUT_OF_CORE
  freeze_core true
}

energy('ccsd(t)')
--------------------------------------------------------------------------

  Memory set to 232.831 GiB by Python driver.

Scratch directory: /binfl/lv71337/airmler/temp/

*** tstart() called on n412-039.vsc4.prov
*** at Tue Jan 26 18:13:38 2021

   => Loading Basis Set <=

    Name: AUG-CC-PV(D+D)Z
    Role: ORBITAL
    Keyword: BASIS
    atoms 1 entry P          line   672 file /home/fs71337/gallo4/psi4/eri-6/psi4/build/stage/share/psi4/basis/aug-cc-pv_dpd_z.gbs 


         ---------------------------------------------------------
                                   SCF
               by Justin Turney, Rob Parrish, Andy Simmonett
                          and Daniel G. A. Smith
                              UHF Reference
                       48 Threads, 238418 MiB Core
         ---------------------------------------------------------

  ==> Geometry <==

    Molecular point group: d2h
    Geometry (in Angstrom), charge = 1, multiplicity = 3:

       Center              X                  Y                   Z               Mass       
    ------------   -----------------  -----------------  -----------------  -----------------
         P            0.000000000000     0.000000000000     0.000000000000    30.973761998420

  Running in d2h symmetry.

  Rotational constants: A = ************  B = ************  C = ************ [cm^-1]
  Rotational constants: A = ************  B = ************  C = ************ [MHz]
  Nuclear repulsion =    0.000000000000000

  Charge       = 1
  Multiplicity = 3
  Electrons    = 14
  Nalpha       = 8
  Nbeta        = 6

  ==> Algorithm <==

  SCF Algorithm Type is OUT_OF_CORE.
  DIIS enabled.
  MOM disabled.
  Fractional occupation disabled.
  Guess Type is CORE.
  Energy threshold   = 1.00e-08
  Density threshold  = 1.00e-08
  Integral threshold = 1.00e-12

  ==> Primary Basis <==

  Basis Set: AUG-CC-PV(D+D)Z
    Blend: AUG-CC-PV(D+D)Z
    Number of shells: 12
    Number of basis function: 32
    Number of Cartesian functions: 35
    Spherical Harmonics?: true
    Max angular momentum: 2

  ==> Integral Setup <==

  ==> DiskJK: Disk-Based J/K Matrices <==

    J tasked:                  Yes
    K tasked:                  Yes
    wK tasked:                  No
    Memory [MiB]:           178813
    Schwarz Cutoff:          1E-12

  Minimum eigenvalue in the overlap matrix is 4.4370143584E-02.
  Reciprocal condition number of the overlap matrix is 1.9244024350E-02.
    Using symmetric orthogonalization.

  ==> Pre-Iterations <==

  SCF Guess: Core (One-Electron) Hamiltonian.

   -------------------------------------------------------
    Irrep   Nso     Nmo     Nalpha   Nbeta   Ndocc  Nsocc
   -------------------------------------------------------
     Ag        11      11       2       2       2       0
     B1g        3       3       1       1       1       0
     B2g        3       3       1       0       0       1
     B3g        3       3       1       0       0       1
     Au         0       0       0       0       0       0
     B1u        4       4       1       1       1       0
     B2u        4       4       1       1       1       0
     B3u        4       4       1       1       1       0
   -------------------------------------------------------
    Total      32      32       8       6       6       2
   -------------------------------------------------------

  ==> Iterations <==

                        Total Energy        Delta E     RMS |[F,P]|

    Occupation by irrep:
             Ag   B1g   B2g   B3g    Au   B1u   B2u   B3u 
    DOCC [     3,    0,    0,    0,    0,    1,    1,    1 ]
    SOCC [     0,    0,    0,    0,    0,    1,    1,    0 ]

   @UHF iter   1:  -322.76703168483965   -3.22767e+02   3.00460e-01 DIIS
   @UHF iter   2:  -338.11082308636651   -1.53438e+01   1.22109e-01 DIIS
   @UHF iter   3:  -340.31654578606793   -2.20572e+00   1.15332e-02 DIIS
   @UHF iter   4:  -340.34340982399232   -2.68640e-02   2.27005e-03 DIIS
   @UHF iter   5:  -340.34476779351741   -1.35797e-03   4.84640e-04 DIIS
   @UHF iter   6:  -340.34482141724811   -5.36237e-05   9.47635e-05 DIIS
   @UHF iter   7:  -340.34482345850552   -2.04126e-06   1.13904e-05 DIIS
   @UHF iter   8:  -340.34482348626648   -2.77610e-08   1.29058e-06 DIIS
   @UHF iter   9:  -340.34482348661930   -3.52827e-10   1.84908e-07 DIIS
   @UHF iter  10:  -340.34482348662738   -8.07177e-12   2.84194e-08 DIIS
   @UHF iter  11:  -340.34482348662766   -2.84217e-13   2.52569e-09 DIIS
  Energy and wave function converged.


  ==> Post-Iterations <==

   @Spin Contamination Metric:   1.225797376E-02
   @S^2 Expected:                2.000000000E+00
   @S^2 Observed:                2.012257974E+00
   @S   Expected:                1.000000000E+00
   @S   Observed:                1.000000000E+00

    Orbital Energies [Eh]
    ---------------------

    Alpha Occupied:                                                       

       1Ag   -80.395731     2Ag    -7.926593     1B1u   -5.826304  
       1B2u   -5.826304     1B3u   -5.811843     3Ag    -1.139177  
       2B1u   -0.724613     2B2u   -0.724613  

    Alpha Virtual:                                                        

       2B3u   -0.341057     4Ag    -0.105682     3B1u   -0.065511  
       3B2u   -0.065511     3B3u   -0.061725     5Ag     0.002102  
       1B3g    0.002102     1B1g    0.015686     1B2g    0.015686  
       6Ag     0.021790     4B1u    0.388063     4B2u    0.388063  
       4B3u    0.413260     7Ag     0.424490     8Ag     0.506447  
       2B3g    0.506447     2B2g    0.515109     2B1g    0.515109  
       9Ag     0.519438    10Ag     3.924103     3B1g    3.929913  
       3B2g    3.929913    11Ag     3.947293     3B3g    3.947293  

    Beta Occupied:                                                        

       1Ag   -80.379955     2Ag    -7.908820     1B3u   -5.804033  
       1B2u   -5.783653     1B1u   -5.783653     3Ag    -0.935692  

    Beta Virtual:                                                         

       2B3u   -0.311041     2B2u   -0.253348     2B1u   -0.253348  
       4Ag    -0.094677     3B3u   -0.058569     3B2u   -0.046072  
       3B1u   -0.046072     5Ag     0.049301     1B1g    0.055993  
       1B2g    0.055993     6Ag     0.078837     1B3g    0.078837  
       4B3u    0.426432     7Ag     0.459887     4B2u    0.465047  
       4B1u    0.465047     8Ag     0.558939     2B1g    0.568379  
       2B2g    0.568379     9Ag     0.605477     2B3g    0.605477  
      10Ag     3.931055     3B1g    3.939392     3B2g    3.939392  
       3B3g    3.964429    11Ag     3.964429  

    Final Occupation by Irrep:
             Ag   B1g   B2g   B3g    Au   B1u   B2u   B3u 
    DOCC [     3,    0,    0,    0,    0,    1,    1,    1 ]
    SOCC [     0,    0,    0,    0,    0,    1,    1,    0 ]

  @UHF Final Energy:  -340.34482348662766

   => Energetics <=

    Nuclear Repulsion Energy =              0.0000000000000000
    One-Electron Energy =                -465.7186643065789440
    Two-Electron Energy =                 125.3738408199513117
    Total Energy =                       -340.3448234866276607

  UHF NO Occupations:
  HONO-2 :    3 Ag 1.9938541
  HONO-1 :    2B2u 1.0000000
  HONO-0 :    2B1u 1.0000000
  LUNO+0 :    4 Ag 0.0061459
  LUNO+1 :    3B2u 0.0000009
  LUNO+2 :    3B1u 0.0000009
  LUNO+3 :    2B3u 0.0000001


Computation Completed


Properties will be evaluated at   0.000000,   0.000000,   0.000000 [a0]

Properties computed using the SCF density matrix

  Nuclear Dipole Moment: [e a0]
     X:     0.0000      Y:     0.0000      Z:     0.0000

  Electronic Dipole Moment: [e a0]
     X:     0.0000      Y:     0.0000      Z:     0.0000

  Dipole Moment: [e a0]
     X:     0.0000      Y:     0.0000      Z:     0.0000     Total:     0.0000

  Dipole Moment: [D]
     X:     0.0000      Y:     0.0000      Z:     0.0000     Total:     0.0000


*** tstop() called on n412-039.vsc4.prov at Tue Jan 26 18:13:40 2021
Module time:
	user time   =       7.07 seconds =       0.12 minutes
	system time =       0.58 seconds =       0.01 minutes
	total time  =          2 seconds =       0.03 minutes
Total time:
	user time   =       7.07 seconds =       0.12 minutes
	system time =       0.58 seconds =       0.01 minutes
	total time  =          2 seconds =       0.03 minutes

*** tstart() called on n412-039.vsc4.prov
*** at Tue Jan 26 18:13:40 2021


	Wfn Parameters:
	--------------------
	Wavefunction         = CCSD_T
	Number of irreps     = 8
	Number of MOs        = 32
	Number of active MOs = 27
	AO-Basis             = NONE
	Semicanonical        = false
	Reference            = UHF
	Print Level          = 1

	IRREP	# MOs	# FZDC	# DOCC	# SOCC	# VIRT	# FZVR
	-----	-----	------	------	------	------	------
	 Ag	   11	    2	    1	    0	    8	    0
	 B1g	   3	    0	    0	    0	    3	    0
	 B2g	   3	    0	    0	    0	    3	    0
	 B3g	   3	    0	    0	    0	    3	    0
	 Au	   0	    0	    0	    0	    0	    0
	 B1u	   4	    1	    0	    1	    2	    0
	 B2u	   4	    1	    0	    1	    2	    0
	 B3u	   4	    1	    0	    0	    3	    0
	Transforming integrals...
	IWL integrals will be deleted.
	(OO|OO)...
	Presorting SO-basis two-electron integrals.
	Sorting File: SO Ints (nn|nn) nbuckets = 1
	Constructing frozen core operators
	Starting AA/AB first half-transformation.
	Sorting AA/AB half-transformed integrals.
	Starting BB first half-transformation.
	Sorting BB half-transformed integrals.
	First half integral transformation complete.
	Starting AA second half-transformation.
	Starting AB second half-transformation.
	Starting BB second half-transformation.
	Two-electron integral transformation complete.
	(OO|OV)...
	Starting AA second half-transformation.
	Starting AB second half-transformation.
	Starting BB second half-transformation.
	Two-electron integral transformation complete.
	(OO|VV)...
	Starting AA second half-transformation.
	Starting AB second half-transformation.
	Starting BB second half-transformation.
	Two-electron integral transformation complete.
	(OV|OO)...
	Starting AA/AB first half-transformation.
	Sorting AA/AB half-transformed integrals.
	Starting BB first half-transformation.
	Sorting BB half-transformed integrals.
	First half integral transformation complete.
	Starting AA second half-transformation.
	Starting AB second half-transformation.
	Starting BB second half-transformation.
	Two-electron integral transformation complete.
	(OV|OV)...
	Starting AA second half-transformation.
	Starting AB second half-transformation.
	Starting BB second half-transformation.
	Two-electron integral transformation complete.
	(OV|VV)...
	Starting AA second half-transformation.
	Starting AB second half-transformation.
	Starting BB second half-transformation.
	Two-electron integral transformation complete.
	(VV|OO)...
	Starting AA/AB first half-transformation.
	Sorting AA/AB half-transformed integrals.
	Starting BB first half-transformation.
	Sorting BB half-transformed integrals.
	First half integral transformation complete.
	Starting AA second half-transformation.
	Starting AB second half-transformation.
	Starting BB second half-transformation.
	Two-electron integral transformation complete.
	(VV|OV)...
	Starting AA second half-transformation.
	Starting AB second half-transformation.
	Starting BB second half-transformation.
	Two-electron integral transformation complete.
	(VV|VV)...
	Starting AA second half-transformation.
	Starting AB second half-transformation.
	Starting BB second half-transformation.
	Two-electron integral transformation complete.
	Frozen core energy     =   -334.35648078644482

	Size of irrep 0 of <AB|CD> integrals:      0.002 (MW) /      0.014 (MB)
	Size of irrep 1 of <AB|CD> integrals:      0.002 (MW) /      0.012 (MB)
	Size of irrep 2 of <AB|CD> integrals:      0.002 (MW) /      0.012 (MB)
	Size of irrep 3 of <AB|CD> integrals:      0.001 (MW) /      0.011 (MB)
	Size of irrep 4 of <AB|CD> integrals:      0.000 (MW) /      0.004 (MB)
	Size of irrep 5 of <AB|CD> integrals:      0.001 (MW) /      0.008 (MB)
	Size of irrep 6 of <AB|CD> integrals:      0.001 (MW) /      0.008 (MB)
	Size of irrep 7 of <AB|CD> integrals:      0.001 (MW) /      0.010 (MB)
	Total:                                     0.010 (MW) /      0.079 (MB)

	Size of irrep 0 of <ab|cd> integrals:      0.002 (MW) /      0.017 (MB)
	Size of irrep 1 of <ab|cd> integrals:      0.002 (MW) /      0.014 (MB)
	Size of irrep 2 of <ab|cd> integrals:      0.002 (MW) /      0.014 (MB)
	Size of irrep 3 of <ab|cd> integrals:      0.002 (MW) /      0.014 (MB)
	Size of irrep 4 of <ab|cd> integrals:      0.001 (MW) /      0.006 (MB)
	Size of irrep 5 of <ab|cd> integrals:      0.002 (MW) /      0.014 (MB)
	Size of irrep 6 of <ab|cd> integrals:      0.002 (MW) /      0.014 (MB)
	Size of irrep 7 of <ab|cd> integrals:      0.002 (MW) /      0.014 (MB)
	Total:                                     0.013 (MW) /      0.107 (MB)

	Size of irrep 0 of <Ab|Cd> integrals:      0.013 (MW) /      0.100 (MB)
	Size of irrep 1 of <Ab|Cd> integrals:      0.007 (MW) /      0.052 (MB)
	Size of irrep 2 of <Ab|Cd> integrals:      0.007 (MW) /      0.052 (MB)
	Size of irrep 3 of <Ab|Cd> integrals:      0.006 (MW) /      0.049 (MB)
	Size of irrep 4 of <Ab|Cd> integrals:      0.002 (MW) /      0.018 (MB)
	Size of irrep 5 of <Ab|Cd> integrals:      0.005 (MW) /      0.043 (MB)
	Size of irrep 6 of <Ab|Cd> integrals:      0.005 (MW) /      0.043 (MB)
	Size of irrep 7 of <Ab|Cd> integrals:      0.006 (MW) /      0.049 (MB)
	Total:                                     0.051 (MW) /      0.406 (MB)

	Size of irrep 0 of <IA|BC> integrals:      0.001 (MW) /      0.010 (MB)
	Size of irrep 1 of <IA|BC> integrals:      0.000 (MW) /      0.004 (MB)
	Size of irrep 2 of <IA|BC> integrals:      0.000 (MW) /      0.004 (MB)
	Size of irrep 3 of <IA|BC> integrals:      0.001 (MW) /      0.004 (MB)
	Size of irrep 4 of <IA|BC> integrals:      0.000 (MW) /      0.002 (MB)
	Size of irrep 5 of <IA|BC> integrals:      0.001 (MW) /      0.006 (MB)
	Size of irrep 6 of <IA|BC> integrals:      0.001 (MW) /      0.006 (MB)
	Size of irrep 7 of <IA|BC> integrals:      0.001 (MW) /      0.005 (MB)
	Total:                                     0.005 (MW) /      0.042 (MB)

	Size of irrep 0 of <ia|bc> integrals:      0.001 (MW) /      0.008 (MB)
	Size of irrep 1 of <ia|bc> integrals:      0.000 (MW) /      0.002 (MB)
	Size of irrep 2 of <ia|bc> integrals:      0.000 (MW) /      0.002 (MB)
	Size of irrep 3 of <ia|bc> integrals:      0.000 (MW) /      0.002 (MB)
	Size of irrep 4 of <ia|bc> integrals:      0.000 (MW) /      0.000 (MB)
	Size of irrep 5 of <ia|bc> integrals:      0.000 (MW) /      0.002 (MB)
	Size of irrep 6 of <ia|bc> integrals:      0.000 (MW) /      0.002 (MB)
	Size of irrep 7 of <ia|bc> integrals:      0.000 (MW) /      0.002 (MB)
	Total:                                     0.002 (MW) /      0.020 (MB)

	Size of irrep 0 of <Ia|Bc> integrals:      0.002 (MW) /      0.013 (MB)
	Size of irrep 1 of <Ia|Bc> integrals:      0.000 (MW) /      0.004 (MB)
	Size of irrep 2 of <Ia|Bc> integrals:      0.000 (MW) /      0.004 (MB)
	Size of irrep 3 of <Ia|Bc> integrals:      0.001 (MW) /      0.006 (MB)
	Size of irrep 4 of <Ia|Bc> integrals:      0.000 (MW) /      0.002 (MB)
	Size of irrep 5 of <Ia|Bc> integrals:      0.001 (MW) /      0.008 (MB)
	Size of irrep 6 of <Ia|Bc> integrals:      0.001 (MW) /      0.008 (MB)
	Size of irrep 7 of <Ia|Bc> integrals:      0.001 (MW) /      0.006 (MB)
	Total:                                     0.006 (MW) /      0.050 (MB)

	Size of irrep 0 of <iA|bC> integrals:      0.001 (MW) /      0.007 (MB)
	Size of irrep 1 of <iA|bC> integrals:      0.000 (MW) /      0.002 (MB)
	Size of irrep 2 of <iA|bC> integrals:      0.000 (MW) /      0.002 (MB)
	Size of irrep 3 of <iA|bC> integrals:      0.000 (MW) /      0.002 (MB)
	Size of irrep 4 of <iA|bC> integrals:      0.000 (MW) /      0.000 (MB)
	Size of irrep 5 of <iA|bC> integrals:      0.000 (MW) /      0.001 (MB)
	Size of irrep 6 of <iA|bC> integrals:      0.000 (MW) /      0.001 (MB)
	Size of irrep 7 of <iA|bC> integrals:      0.000 (MW) /      0.002 (MB)
	Total:                                     0.002 (MW) /      0.017 (MB)

	Size of irrep 0 of tIjAb amplitudes:       0.000 (MW) /      0.001 (MB)
	Size of irrep 1 of tIjAb amplitudes:       0.000 (MW) /      0.000 (MB)
	Size of irrep 2 of tIjAb amplitudes:       0.000 (MW) /      0.000 (MB)
	Size of irrep 3 of tIjAb amplitudes:       0.000 (MW) /      0.000 (MB)
	Size of irrep 4 of tIjAb amplitudes:       0.000 (MW) /      0.000 (MB)
	Size of irrep 5 of tIjAb amplitudes:       0.000 (MW) /      0.001 (MB)
	Size of irrep 6 of tIjAb amplitudes:       0.000 (MW) /      0.001 (MB)
	Size of irrep 7 of tIjAb amplitudes:       0.000 (MW) /      0.000 (MB)
	Total:                                     0.000 (MW) /      0.002 (MB)

	Nuclear Rep. energy          =      0.00000000000000
	SCF energy                   =   -340.34482348662766
	One-electron energy          =     -8.45259166928865
	Two-electron (AA) energy     =      1.08005411810693
	Two-electron (BB) energy     =      0.00000000000000
	Two-electron (AB) energy     =      1.38419485099935
	Two-electron energy          =      2.46424896910628
	Reference energy             =   -340.34482348662721

*** tstop() called on n412-039.vsc4.prov at Tue Jan 26 18:13:40 2021
Module time:
	user time   =       0.03 seconds =       0.00 minutes
	system time =       0.11 seconds =       0.00 minutes
	total time  =          0 seconds =       0.00 minutes
Total time:
	user time   =       7.10 seconds =       0.12 minutes
	system time =       0.69 seconds =       0.01 minutes
	total time  =          2 seconds =       0.03 minutes
            **************************
            *                        *
            *        CCENERGY        *
            *                        *
            **************************

    Nuclear Rep. energy (wfn)     =    0.000000000000000
    SCF energy          (wfn)     = -340.344823486627661
    Reference energy    (file100) = -340.344823486627206

    Input parameters:
    -----------------
    Wave function   =     CCSD_T
    Reference wfn   =     UHF
    Brueckner       =     No
    Memory (Mbytes) =     250000.0
    Maxiter         =     50
    R_Convergence   =     1.0e-07
    E_Convergence   =     1.0e-06
    Restart         =     Yes
    DIIS            =     Yes
    AO Basis        =     NONE
    ABCD            =     NEW
    Cache Level     =     2
    Cache Type      =     LRU
    Print Level     =     1
    Num. of threads =     48
    # Amps to Print =     10
    Print MP2 Amps? =     No
    Analyze T2 Amps =     No
    Print Pair Ener =     No
    Local CC        =     No
    SCS-MP2         =     False
    SCSN-MP2        =     False
    SCS-CCSD        =     False

MP2 correlation energy -0.0512218735032596
                Solving CC Amplitude Equations
                ------------------------------
  Iter             Energy              RMS        T1Diag      D1Diag    New D1Diag    D2Diag
  ----     ---------------------    ---------   ----------  ----------  ----------   --------
     0        -0.051221873503260    0.000e+00    0.000000    0.000000    0.000000    0.000000
     1        -0.065894361163017    5.432e-02    0.005775    0.000000    0.000000    0.000000
     2        -0.072589639148898    2.112e-02    0.011072    0.000000    0.000000    0.000000
     3        -0.072925978755730    5.094e-03    0.012792    0.000000    0.000000    0.000000
     4        -0.073054454453781    8.671e-04    0.012912    0.000000    0.000000    0.000000
     5        -0.073003523926294    1.846e-04    0.012898    0.000000    0.000000    0.000000
     6        -0.073025476072970    5.267e-05    0.012915    0.000000    0.000000    0.000000
     7        -0.073021334893666    1.128e-05    0.012914    0.000000    0.000000    0.000000
     8        -0.073021761111169    1.600e-06    0.012914    0.000000    0.000000    0.000000
     9        -0.073021749903074    2.724e-07    0.012914    0.000000    0.000000    0.000000
    10        -0.073021752146311    7.301e-08    0.012914    0.000000    0.000000    0.000000

    Iterations converged.


    Largest TIA Amplitudes:
              0   2        -0.0202283928
              0   5         0.0138779934
              0   3         0.0031940950
              0   0        -0.0024640785
              2  20         0.0008750439
              1  18         0.0008750438
              2  19         0.0006002787
              1  17         0.0006002787
              0   6         0.0000471357

    Largest Tia Amplitudes:
              0   0        -0.0059047499
              0   3         0.0034079982
              0   4        -0.0004553350
              0   1         0.0002866151
              0   6         0.0000956482

    Largest TIJAB Amplitudes:
      2   1  14   1        -0.0373865444
      2   1  14   4        -0.0222878024
      2   1  15   1        -0.0222878024
      2   0  21   8        -0.0198556292
      1   0  21  11        -0.0198556292
      2   1  20  18        -0.0188568209
      2   1  15   4        -0.0187195456
      2   1  11   8         0.0173655629
      1   0  21  12        -0.0131946956
      2   0  21   9        -0.0131946956

    Largest TIjAb Amplitudes:
      0   0  21  23        -0.1051411098
      2   0   8  23         0.0521530655
      1   0  11  23         0.0521530654
      2   0   1  20        -0.0496856938
      1   0  14  20         0.0496856934
      2   0  14  17         0.0496856934
      1   0   1  17         0.0496856931
      1   0  12  23         0.0397359138
      2   0   9  23         0.0397359138
      1   0   4  17         0.0349077895

    SCF energy       (wfn)                    = -340.344823486627661
    Reference energy (file100)                = -340.344823486627206

    Opposite-spin MP2 correlation energy      =   -0.042653661049719
    Same-spin MP2 correlation energy          =   -0.008568212453541
    Singles MP2 correlation energy            =   -0.000000000000000
    MP2 correlation energy                    =   -0.051221873503260
      * MP2 total energy                      = -340.396045360130472

    Opposite-spin CCSD correlation energy     =   -0.063239384673193
    Same-spin CCSD correlation energy         =   -0.009782367473118
    Singles CCSD correlation energy           =    0.000000000000000
    CCSD correlation energy                   =   -0.073021752146311
      * CCSD total energy                     = -340.417845238773509

            **************************
            *                        *
            *        CCTRIPLES       *
            *                        *
            **************************


    Wave function   =    CCSD_T
    Reference wfn   =      UHF

    Nuclear Rep. energy (wfn)                =    0.000000000000000
    SCF energy          (wfn)                = -340.344823486627661
    Reference energy    (file100)            = -340.344823486627206
    CCSD energy         (file100)            =   -0.073021752146311
    Total CCSD energy   (file100)            = -340.417845238773509

    Number of ijk index combinations:
    Spin Case AAA:                                   1
    Spin Case BBB:                                   0
    Spin Case AAB:                                   3
    Spin Case ABB:                                   0
    AAA (T) energy                             =   -0.000016153744561
    BBB (T) energy                             =    0.000000000000000
    AAB (T) energy                             =   -0.001126365074001
    ABB (T) energy                             =    0.000000000000000
    (T) energy                                   =   -0.001142518818562
      * CCSD(T) total energy                     = -340.418987757592106


    Psi4 stopped on: Tuesday, 26 January 2021 06:13PM
    Psi4 wall time for execution: 0:00:04.71

*** Psi4 exiting successfully. Buy a developer a beer!
