
    -----------------------------------------------------------------------
          Psi4: An Open-Source Ab Initio Electronic Structure Package
                               Psi4 1.4a3.dev88 

                         Git: Rev {master} 262e345 


    D. G. A. Smith, L. A. Burns, A. C. Simmonett, R. M. Parrish,
    M. C. Schieber, R. Galvelis, P. Kraus, H. Kruse, R. Di Remigio,
    A. Alenaizan, A. M. James, S. Lehtola, J. P. Misiewicz, M. Scheurer,
    R. A. Shaw, J. B. Schriber, Y. Xie, Z. L. Glick, D. A. Sirianni,
    J. S. O'Brien, J. M. Waldrop, A. Kumar, E. G. Hohenstein,
    B. P. Pritchard, B. R. Brooks, H. F. Schaefer III, A. Yu. Sokolov,
    K. Patkowski, A. E. DePrince III, U. Bozkaya, R. A. King,
    F. A. Evangelista, J. M. Turney, T. D. Crawford, C. D. Sherrill,
    J. Chem. Phys. 152(18) 184108 (2020). https://doi.org/10.1063/5.0006002

                            Additional Code Authors
    E. T. Seidl, C. L. Janssen, E. F. Valeev, M. L. Leininger,
    J. F. Gonthier, R. M. Richard, H. R. McAlexander, M. Saitow, X. Wang,
    P. Verma, and M. H. Lechner

             Previous Authors, Complete List of Code Contributors,
                       and Citations for Specific Modules
    https://github.com/psi4/psi4/blob/master/codemeta.json
    https://github.com/psi4/psi4/graphs/contributors
    http://psicode.org/psi4manual/master/introduction.html#citing-psifour

    -----------------------------------------------------------------------


    Psi4 started on: Tuesday, 26 January 2021 06:18PM

    Process ID: 403620
    Host:       n412-039.vsc4.prov
    PSIDATADIR: /home/fs71337/gallo4/psi4/eri-6/psi4/build/stage/share/psi4
    Memory:     500.0 MiB
    Threads:    48
    
  ==> Input File <==

--------------------------------------------------------------------------
# Any line starting with the # character is a comment line
memory 250000 mb
molecule molecule{
1 2
O          0.0000000000        0.0000000000       -0.0647184239
H          0.0000000000        0.8152105035        0.5136495982
H          0.0000000000       -0.8152105035        0.5136495982
}

set {
  reference uhf
  basis aug-cc-pV(d+d)Z
  scf_type OUT_OF_CORE
  freeze_core true
}

energy('ccsd(t)')
--------------------------------------------------------------------------

  Memory set to 232.831 GiB by Python driver.

Scratch directory: /binfl/lv71337/airmler/temp/

*** tstart() called on n412-039.vsc4.prov
*** at Tue Jan 26 18:18:34 2021

   => Loading Basis Set <=

    Name: AUG-CC-PV(D+D)Z
    Role: ORBITAL
    Keyword: BASIS
    atoms 1   entry O          line   282 file /home/fs71337/gallo4/psi4/eri-6/psi4/build/stage/share/psi4/basis/aug-cc-pv_dpd_z.gbs 
    atoms 2-3 entry H          line    68 file /home/fs71337/gallo4/psi4/eri-6/psi4/build/stage/share/psi4/basis/aug-cc-pv_dpd_z.gbs 


         ---------------------------------------------------------
                                   SCF
               by Justin Turney, Rob Parrish, Andy Simmonett
                          and Daniel G. A. Smith
                              UHF Reference
                       48 Threads, 238418 MiB Core
         ---------------------------------------------------------

  ==> Geometry <==

    Molecular point group: c2v
    Full point group: C2v

    Geometry (in Angstrom), charge = 1, multiplicity = 2:

       Center              X                  Y                   Z               Mass       
    ------------   -----------------  -----------------  -----------------  -----------------
         O            0.000000000000     0.000000000000    -0.064727983907    15.994914619570
         H           -0.000000000000     0.815210503500     0.513640038193     1.007825032230
         H            0.000000000000    -0.815210503500     0.513640038193     1.007825032230

  Running in c2v symmetry.

  Rotational constants: A =     28.15258  B =     12.58467  C =      8.69698 [cm^-1]
  Rotational constants: A = 843993.14667  B = 377278.91048  C = 260728.81383 [MHz]
  Nuclear repulsion =    8.795307175405840

  Charge       = 1
  Multiplicity = 2
  Electrons    = 9
  Nalpha       = 5
  Nbeta        = 4

  ==> Algorithm <==

  SCF Algorithm Type is OUT_OF_CORE.
  DIIS enabled.
  MOM disabled.
  Fractional occupation disabled.
  Guess Type is SAD.
  Energy threshold   = 1.00e-08
  Density threshold  = 1.00e-08
  Integral threshold = 1.00e-12

  ==> Primary Basis <==

  Basis Set: AUG-CC-PV(D+D)Z
    Blend: AUG-CC-PV(D+D)Z
    Number of shells: 19
    Number of basis function: 41
    Number of Cartesian functions: 43
    Spherical Harmonics?: true
    Max angular momentum: 2

  ==> Integral Setup <==

  ==> DiskJK: Disk-Based J/K Matrices <==

    J tasked:                  Yes
    K tasked:                  Yes
    wK tasked:                  No
    Memory [MiB]:           178813
    Schwarz Cutoff:          1E-12

  Minimum eigenvalue in the overlap matrix is 2.6542650813E-03.
  Reciprocal condition number of the overlap matrix is 5.8298216291E-04.
    Using symmetric orthogonalization.

  ==> Pre-Iterations <==

  SCF Guess: Superposition of Atomic Densities via on-the-fly atomic UHF (no occupation information).


 WARNING: Atomic UHF is not converging! Try casting from a smaller basis or call Rob at CCMST.
   -------------------------
    Irrep   Nso     Nmo    
   -------------------------
     A1        18      18 
     A2         4       4 
     B1         7       7 
     B2        12      12 
   -------------------------
    Total      41      41
   -------------------------

  ==> Iterations <==

                        Total Energy        Delta E     RMS |[F,P]|

   @UHF iter SAD:   -75.19388894457511   -7.51939e+01   0.00000e+00 
   @UHF iter   1:   -75.59434714985500   -4.00458e-01   1.15323e-02 DIIS
   @UHF iter   2:   -75.63440598626886   -4.00588e-02   3.58387e-03 DIIS
   @UHF iter   3:   -75.63748802735455   -3.08204e-03   1.26857e-03 DIIS
   @UHF iter   4:   -75.63802860757485   -5.40580e-04   4.22175e-04 DIIS
   @UHF iter   5:   -75.63813628399926   -1.07676e-04   1.90319e-04 DIIS
   @UHF iter   6:   -75.63816660101732   -3.03170e-05   6.60045e-05 DIIS
   @UHF iter   7:   -75.63817097138377   -4.37037e-06   1.16567e-05 DIIS
   @UHF iter   8:   -75.63817108192603   -1.10542e-07   1.99067e-06 DIIS
   @UHF iter   9:   -75.63817108418390   -2.25786e-09   4.13300e-07 DIIS
   @UHF iter  10:   -75.63817108428773   -1.03839e-10   7.74575e-08 DIIS
   @UHF iter  11:   -75.63817108429140   -3.66640e-12   1.41983e-08 DIIS
   @UHF iter  12:   -75.63817108429157   -1.70530e-13   3.53707e-09 DIIS
  Energy and wave function converged.


  ==> Post-Iterations <==

   @Spin Contamination Metric:   7.487007363E-03
   @S^2 Expected:                7.500000000E-01
   @S^2 Observed:                7.574870074E-01
   @S   Expected:                5.000000000E-01
   @S   Observed:                5.000000000E-01

    Orbital Energies [Eh]
    ---------------------

    Alpha Occupied:                                                       

       1A1   -21.133569     2A1    -1.885373     1B2    -1.196203  
       1B1    -1.119145     3A1    -1.074235  

    Alpha Virtual:                                                        

       4A1    -0.185125     2B2    -0.117813     2B1    -0.049108  
       5A1    -0.045474     6A1    -0.024037     3B2    -0.007090  
       4B2     0.033384     7A1     0.054880     1A2     0.104947  
       8A1     0.130680     3B1     0.151981     5B2     0.278842  
       9A1     0.334168     6B2     0.357350     7B2     0.476336  
      10A1     0.542060     4B1     0.707152    11A1     0.736379  
       2A2     0.751851    12A1     0.933414     5B1     0.988358  
       8B2     1.079501    13A1     1.153679     9B2     1.584600  
       3A2     1.612569     6B1     1.668047    10B2     1.965457  
      14A1     2.006732    15A1     2.085898    11B2     2.303545  
      16A1     2.483629     7B1     3.134828     4A2     3.162948  
      17A1     3.179941    18A1     3.505533    12B2     3.742347  

    Beta Occupied:                                                        

       1A1   -21.088327     2A1    -1.724505     1B2    -1.158421  
       3A1    -1.022730  

    Beta Virtual:                                                         

       1B1    -0.319078     4A1    -0.177059     2B2    -0.114377  
       5A1    -0.042167     6A1    -0.017863     2B1    -0.008598  
       3B2    -0.003535     4B2     0.033331     7A1     0.057721  
       1A2     0.110617     8A1     0.135571     3B1     0.173105  
       5B2     0.279023     9A1     0.347351     6B2     0.364965  
       7B2     0.473863    10A1     0.568064     4B1     0.751722  
      11A1     0.752800     2A2     0.790642    12A1     0.943598  
       8B2     1.089297     5B1     1.148209    13A1     1.174731  
       9B2     1.580635     3A2     1.616628     6B1     1.674537  
      10B2     1.981668    14A1     2.005550    15A1     2.124457  
      11B2     2.308471    16A1     2.511496     7B1     3.235584  
      17A1     3.235798     4A2     3.263488    18A1     3.573982  
      12B2     3.759773  

    Final Occupation by Irrep:
             A1    A2    B1    B2 
    DOCC [     3,    0,    0,    1 ]
    SOCC [     0,    0,    1,    0 ]

  @UHF Final Energy:   -75.63817108429157

   => Energetics <=

    Nuclear Repulsion Energy =              8.7953071754058403
    One-Electron Energy =                -117.4644478611592717
    Two-Electron Energy =                  33.0309696014618623
    Total Energy =                        -75.6381710842915709

  UHF NO Occupations:
  HONO-2 :    1 B2 1.9990295
  HONO-1 :    3 A1 1.9977102
  HONO-0 :    1 B1 1.0000000
  LUNO+0 :    4 A1 0.0022898
  LUNO+1 :    2 B2 0.0009705
  LUNO+2 :    5 A1 0.0004860
  LUNO+3 :    6 A1 0.0000005


Computation Completed


Properties will be evaluated at   0.000000,   0.000000,   0.000000 [a0]

Properties computed using the SCF density matrix

  Nuclear Dipole Moment: [e a0]
     X:     0.0000      Y:     0.0000      Z:     0.9627

  Electronic Dipole Moment: [e a0]
     X:     0.0000      Y:     0.0000      Z:     0.0086

  Dipole Moment: [e a0]
     X:     0.0000      Y:     0.0000      Z:     0.9713     Total:     0.9713

  Dipole Moment: [D]
     X:     0.0000      Y:     0.0000      Z:     2.4688     Total:     2.4688


*** tstop() called on n412-039.vsc4.prov at Tue Jan 26 18:18:35 2021
Module time:
	user time   =      14.82 seconds =       0.25 minutes
	system time =       0.99 seconds =       0.02 minutes
	total time  =          1 seconds =       0.02 minutes
Total time:
	user time   =      14.82 seconds =       0.25 minutes
	system time =       0.99 seconds =       0.02 minutes
	total time  =          1 seconds =       0.02 minutes

*** tstart() called on n412-039.vsc4.prov
*** at Tue Jan 26 18:18:35 2021


	Wfn Parameters:
	--------------------
	Wavefunction         = CCSD_T
	Number of irreps     = 4
	Number of MOs        = 41
	Number of active MOs = 40
	AO-Basis             = NONE
	Semicanonical        = false
	Reference            = UHF
	Print Level          = 1

	IRREP	# MOs	# FZDC	# DOCC	# SOCC	# VIRT	# FZVR
	-----	-----	------	------	------	------	------
	 A1	   18	    1	    2	    0	    15	    0
	 A2	   4	    0	    0	    0	    4	    0
	 B1	   7	    0	    0	    1	    6	    0
	 B2	   12	    0	    1	    0	    11	    0
	Transforming integrals...
	IWL integrals will be deleted.
	(OO|OO)...
	Presorting SO-basis two-electron integrals.
	Sorting File: SO Ints (nn|nn) nbuckets = 1
	Constructing frozen core operators
	Starting AA/AB first half-transformation.
	Sorting AA/AB half-transformed integrals.
	Starting BB first half-transformation.
	Sorting BB half-transformed integrals.
	First half integral transformation complete.
	Starting AA second half-transformation.
	Starting AB second half-transformation.
	Starting BB second half-transformation.
	Two-electron integral transformation complete.
	(OO|OV)...
	Starting AA second half-transformation.
	Starting AB second half-transformation.
	Starting BB second half-transformation.
	Two-electron integral transformation complete.
	(OO|VV)...
	Starting AA second half-transformation.
	Starting AB second half-transformation.
	Starting BB second half-transformation.
	Two-electron integral transformation complete.
	(OV|OO)...
	Starting AA/AB first half-transformation.
	Sorting AA/AB half-transformed integrals.
	Starting BB first half-transformation.
	Sorting BB half-transformed integrals.
	First half integral transformation complete.
	Starting AA second half-transformation.
	Starting AB second half-transformation.
	Starting BB second half-transformation.
	Two-electron integral transformation complete.
	(OV|OV)...
	Starting AA second half-transformation.
	Starting AB second half-transformation.
	Starting BB second half-transformation.
	Two-electron integral transformation complete.
	(OV|VV)...
	Starting AA second half-transformation.
	Starting AB second half-transformation.
	Starting BB second half-transformation.
	Two-electron integral transformation complete.
	(VV|OO)...
	Starting AA/AB first half-transformation.
	Sorting AA/AB half-transformed integrals.
	Starting BB first half-transformation.
	Sorting BB half-transformed integrals.
	First half integral transformation complete.
	Starting AA second half-transformation.
	Starting AB second half-transformation.
	Starting BB second half-transformation.
	Two-electron integral transformation complete.
	(VV|OV)...
	Starting AA second half-transformation.
	Starting AB second half-transformation.
	Starting BB second half-transformation.
	Two-electron integral transformation complete.
	(VV|VV)...
	Starting AA second half-transformation.
	Starting AB second half-transformation.
	Starting BB second half-transformation.
	Two-electron integral transformation complete.
	Frozen core energy     =    -61.22280854243316

	Size of irrep 0 of <AB|CD> integrals:      0.033 (MW) /      0.262 (MB)
	Size of irrep 1 of <AB|CD> integrals:      0.016 (MW) /      0.127 (MB)
	Size of irrep 2 of <AB|CD> integrals:      0.018 (MW) /      0.144 (MB)
	Size of irrep 3 of <AB|CD> integrals:      0.036 (MW) /      0.286 (MB)
	Total:                                     0.102 (MW) /      0.819 (MB)

	Size of irrep 0 of <ab|cd> integrals:      0.035 (MW) /      0.280 (MB)
	Size of irrep 1 of <ab|cd> integrals:      0.019 (MW) /      0.150 (MB)
	Size of irrep 2 of <ab|cd> integrals:      0.022 (MW) /      0.178 (MB)
	Size of irrep 3 of <ab|cd> integrals:      0.037 (MW) /      0.298 (MB)
	Total:                                     0.113 (MW) /      0.906 (MB)

	Size of irrep 0 of <Ab|Cd> integrals:      0.163 (MW) /      1.306 (MB)
	Size of irrep 1 of <Ab|Cd> integrals:      0.069 (MW) /      0.553 (MB)
	Size of irrep 2 of <Ab|Cd> integrals:      0.080 (MW) /      0.641 (MB)
	Size of irrep 3 of <Ab|Cd> integrals:      0.146 (MW) /      1.167 (MB)
	Total:                                     0.458 (MW) /      3.667 (MB)

	Size of irrep 0 of <IA|BC> integrals:      0.019 (MW) /      0.150 (MB)
	Size of irrep 1 of <IA|BC> integrals:      0.006 (MW) /      0.050 (MB)
	Size of irrep 2 of <IA|BC> integrals:      0.008 (MW) /      0.066 (MB)
	Size of irrep 3 of <IA|BC> integrals:      0.015 (MW) /      0.124 (MB)
	Total:                                     0.049 (MW) /      0.390 (MB)

	Size of irrep 0 of <ia|bc> integrals:      0.017 (MW) /      0.135 (MB)
	Size of irrep 1 of <ia|bc> integrals:      0.004 (MW) /      0.033 (MB)
	Size of irrep 2 of <ia|bc> integrals:      0.005 (MW) /      0.043 (MB)
	Size of irrep 3 of <ia|bc> integrals:      0.014 (MW) /      0.114 (MB)
	Total:                                     0.041 (MW) /      0.325 (MB)

	Size of irrep 0 of <Ia|Bc> integrals:      0.019 (MW) /      0.155 (MB)
	Size of irrep 1 of <Ia|Bc> integrals:      0.007 (MW) /      0.055 (MB)
	Size of irrep 2 of <Ia|Bc> integrals:      0.009 (MW) /      0.075 (MB)
	Size of irrep 3 of <Ia|Bc> integrals:      0.016 (MW) /      0.125 (MB)
	Total:                                     0.051 (MW) /      0.410 (MB)

	Size of irrep 0 of <iA|bC> integrals:      0.017 (MW) /      0.133 (MB)
	Size of irrep 1 of <iA|bC> integrals:      0.004 (MW) /      0.029 (MB)
	Size of irrep 2 of <iA|bC> integrals:      0.005 (MW) /      0.036 (MB)
	Size of irrep 3 of <iA|bC> integrals:      0.014 (MW) /      0.113 (MB)
	Total:                                     0.039 (MW) /      0.311 (MB)

	Size of irrep 0 of tIjAb amplitudes:       0.002 (MW) /      0.016 (MB)
	Size of irrep 1 of tIjAb amplitudes:       0.000 (MW) /      0.002 (MB)
	Size of irrep 2 of tIjAb amplitudes:       0.001 (MW) /      0.005 (MB)
	Size of irrep 3 of tIjAb amplitudes:       0.002 (MW) /      0.012 (MB)
	Total:                                     0.004 (MW) /      0.035 (MB)

	Nuclear Rep. energy          =      8.79530717540584
	SCF energy                   =    -75.63817108429157
	One-electron energy          =    -37.24072640475151
	Two-electron (AA) energy     =      3.74395631545404
	Two-electron (BB) energy     =      1.71402383652437
	Two-electron (AB) energy     =      8.57207653550892
	Two-electron energy          =     14.03005668748733
	Reference energy             =    -75.63817108429150

*** tstop() called on n412-039.vsc4.prov at Tue Jan 26 18:18:37 2021
Module time:
	user time   =       0.10 seconds =       0.00 minutes
	system time =       0.20 seconds =       0.00 minutes
	total time  =          2 seconds =       0.03 minutes
Total time:
	user time   =      14.92 seconds =       0.25 minutes
	system time =       1.19 seconds =       0.02 minutes
	total time  =          3 seconds =       0.05 minutes
            **************************
            *                        *
            *        CCENERGY        *
            *                        *
            **************************

    Nuclear Rep. energy (wfn)     =    8.795307175405840
    SCF energy          (wfn)     =  -75.638171084291571
    Reference energy    (file100) =  -75.638171084291500

    Input parameters:
    -----------------
    Wave function   =     CCSD_T
    Reference wfn   =     UHF
    Brueckner       =     No
    Memory (Mbytes) =     250000.0
    Maxiter         =     50
    R_Convergence   =     1.0e-07
    E_Convergence   =     1.0e-06
    Restart         =     Yes
    DIIS            =     Yes
    AO Basis        =     NONE
    ABCD            =     NEW
    Cache Level     =     2
    Cache Type      =     LRU
    Print Level     =     1
    Num. of threads =     48
    # Amps to Print =     10
    Print MP2 Amps? =     No
    Analyze T2 Amps =     No
    Print Pair Ener =     No
    Local CC        =     No
    SCS-MP2         =     False
    SCSN-MP2        =     False
    SCS-CCSD        =     False

MP2 correlation energy -0.1592458222845248
                Solving CC Amplitude Equations
                ------------------------------
  Iter             Energy              RMS        T1Diag      D1Diag    New D1Diag    D2Diag
  ----     ---------------------    ---------   ----------  ----------  ----------   --------
     0        -0.159245822284525    0.000e+00    0.000000    0.000000    0.000000    0.000000
     1        -0.171322072788985    3.612e-02    0.008940    0.000000    0.000000    0.000000
     2        -0.175588114489107    1.255e-02    0.011122    0.000000    0.000000    0.000000
     3        -0.176366344093956    4.989e-03    0.012494    0.000000    0.000000    0.000000
     4        -0.176378847000653    2.006e-03    0.012714    0.000000    0.000000    0.000000
     5        -0.176403175029237    7.232e-04    0.012711    0.000000    0.000000    0.000000
     6        -0.176414014847993    2.200e-04    0.012697    0.000000    0.000000    0.000000
     7        -0.176413864594784    8.156e-05    0.012689    0.000000    0.000000    0.000000
     8        -0.176413695630058    2.706e-05    0.012689    0.000000    0.000000    0.000000
     9        -0.176413749040087    8.891e-06    0.012689    0.000000    0.000000    0.000000
    10        -0.176413748238220    3.020e-06    0.012689    0.000000    0.000000    0.000000
    11        -0.176413743971183    9.388e-07    0.012690    0.000000    0.000000    0.000000
    12        -0.176413747258270    2.296e-07    0.012690    0.000000    0.000000    0.000000
    13        -0.176413744742825    7.436e-08    0.012690    0.000000    0.000000    0.000000

    Iterations converged.


    Largest TIA Amplitudes:
              2  19        -0.0117036282
              1   1         0.0097913583
              1   0         0.0088705518
              3  26        -0.0086303888
              2  20        -0.0080159492
              1   4        -0.0076921923
              3  25        -0.0072370134
              0   0        -0.0053346396
              0   2        -0.0053182514
              3  33         0.0051960165

    Largest Tia Amplitudes:
              1   4        -0.0081332383
              1   1         0.0080863985
              1   0         0.0068247662
              2  34         0.0067768431
              0  11         0.0049486847
              0   6         0.0040495864
              0   4        -0.0034521933
              0   7        -0.0025586686
              1   7        -0.0025493160
              0   1         0.0024968010

    Largest TIJAB Amplitudes:
      2   1  22   9        -0.0130009765
      3   2  16   6        -0.0111321098
      3   2  26  22        -0.0111120666
      2   1  21   7         0.0110719900
      3   2  29  22        -0.0109512607
      2   1  22   8         0.0104563194
      2   1  24  13        -0.0097341083
      3   2  31  22        -0.0094266917
      3   2  25  22        -0.0092768213
      2   1  22   1         0.0090957871

    Largest Tijab Amplitudes:
      1   0  22  19         0.0099280910
      2   0  19  16        -0.0090589643
      2   1  27   8         0.0089015284
      2   1  31   7        -0.0081961524
      2   1  27   4        -0.0080124714
      2   1  30   8         0.0077721657
      1   0  25  19         0.0070106603
      2   1  30   9        -0.0068539902
      2   1  32   9        -0.0066928772
      2   1  27   9        -0.0066105483

    Largest TIjAb Amplitudes:
      3   2  26  27        -0.0220420417
      2   0   6  19        -0.0218525595
      1   1   9   9        -0.0205342274
      3   2  26  30        -0.0179192652
      3   0  16  19        -0.0178445031
      3   2  29  27        -0.0177650872
      2   1  22   9        -0.0174003487
      1   0  21  19         0.0165226375
      3   2  25  27        -0.0163606427
      2   0   2  19        -0.0161321284

    SCF energy       (wfn)                    =  -75.638171084291571
    Reference energy (file100)                =  -75.638171084291500

    Opposite-spin MP2 correlation energy      =   -0.122183220505372
    Same-spin MP2 correlation energy          =   -0.037062601779152
    Singles MP2 correlation energy            =   -0.000000000000000
    MP2 correlation energy                    =   -0.159245822284525
      * MP2 total energy                      =  -75.797416906576018

    Opposite-spin CCSD correlation energy     =   -0.140986608430193
    Same-spin CCSD correlation energy         =   -0.035427136312632
    Singles CCSD correlation energy           =   -0.000000000000000
    CCSD correlation energy                   =   -0.176413744742825
      * CCSD total energy                     =  -75.814584829034331

            **************************
            *                        *
            *        CCTRIPLES       *
            *                        *
            **************************


    Wave function   =    CCSD_T
    Reference wfn   =      UHF

    Nuclear Rep. energy (wfn)                =    8.795307175405840
    SCF energy          (wfn)                =  -75.638171084291571
    Reference energy    (file100)            =  -75.638171084291500
    CCSD energy         (file100)            =   -0.176413744742825
    Total CCSD energy   (file100)            =  -75.814584829034331

    Number of ijk index combinations:
    Spin Case AAA:                                   4
    Spin Case BBB:                                   1
    Spin Case AAB:                                  18
    Spin Case ABB:                                  12
    AAA (T) energy                             =   -0.000080234424758
    BBB (T) energy                             =   -0.000016607535676
    AAB (T) energy                             =   -0.001741498787802
    ABB (T) energy                             =   -0.001133756724469
    (T) energy                                   =   -0.002972097472706
      * CCSD(T) total energy                     =  -75.817556926507024


    Psi4 stopped on: Tuesday, 26 January 2021 06:18PM
    Psi4 wall time for execution: 0:00:09.12

*** Psi4 exiting successfully. Buy a developer a beer!
