
    -----------------------------------------------------------------------
          Psi4: An Open-Source Ab Initio Electronic Structure Package
                               Psi4 1.4a3.dev88 

                         Git: Rev {master} 262e345 


    D. G. A. Smith, L. A. Burns, A. C. Simmonett, R. M. Parrish,
    M. C. Schieber, R. Galvelis, P. Kraus, H. Kruse, R. Di Remigio,
    A. Alenaizan, A. M. James, S. Lehtola, J. P. Misiewicz, M. Scheurer,
    R. A. Shaw, J. B. Schriber, Y. Xie, Z. L. Glick, D. A. Sirianni,
    J. S. O'Brien, J. M. Waldrop, A. Kumar, E. G. Hohenstein,
    B. P. Pritchard, B. R. Brooks, H. F. Schaefer III, A. Yu. Sokolov,
    K. Patkowski, A. E. DePrince III, U. Bozkaya, R. A. King,
    F. A. Evangelista, J. M. Turney, T. D. Crawford, C. D. Sherrill,
    J. Chem. Phys. 152(18) 184108 (2020). https://doi.org/10.1063/5.0006002

                            Additional Code Authors
    E. T. Seidl, C. L. Janssen, E. F. Valeev, M. L. Leininger,
    J. F. Gonthier, R. M. Richard, H. R. McAlexander, M. Saitow, X. Wang,
    P. Verma, and M. H. Lechner

             Previous Authors, Complete List of Code Contributors,
                       and Citations for Specific Modules
    https://github.com/psi4/psi4/blob/master/codemeta.json
    https://github.com/psi4/psi4/graphs/contributors
    http://psicode.org/psi4manual/master/introduction.html#citing-psifour

    -----------------------------------------------------------------------


    Psi4 started on: Tuesday, 26 January 2021 06:37PM

    Process ID: 411648
    Host:       n412-039.vsc4.prov
    PSIDATADIR: /home/fs71337/gallo4/psi4/eri-6/psi4/build/stage/share/psi4
    Memory:     500.0 MiB
    Threads:    48
    
  ==> Input File <==

--------------------------------------------------------------------------
# Any line starting with the # character is a comment line
memory 250000 mb
molecule molecule{
0 1
Si         0.0000000000        0.0000000000       -0.5554822253
O          0.0000000000        0.0000000000        0.9750988186
}

set {
  reference rhf
  basis aug-cc-pV(d+d)Z
  scf_type OUT_OF_CORE
  freeze_core true
}

energy('ccsd(t)')
--------------------------------------------------------------------------

  Memory set to 232.831 GiB by Python driver.

Scratch directory: /binfl/lv71337/airmler/temp/

*** tstart() called on n412-039.vsc4.prov
*** at Tue Jan 26 18:37:55 2021

   => Loading Basis Set <=

    Name: AUG-CC-PV(D+D)Z
    Role: ORBITAL
    Keyword: BASIS
    atoms 1 entry SI         line   604 file /home/fs71337/gallo4/psi4/eri-6/psi4/build/stage/share/psi4/basis/aug-cc-pv_dpd_z.gbs 
    atoms 2 entry O          line   282 file /home/fs71337/gallo4/psi4/eri-6/psi4/build/stage/share/psi4/basis/aug-cc-pv_dpd_z.gbs 


         ---------------------------------------------------------
                                   SCF
               by Justin Turney, Rob Parrish, Andy Simmonett
                          and Daniel G. A. Smith
                              RHF Reference
                       48 Threads, 238418 MiB Core
         ---------------------------------------------------------

  ==> Geometry <==

    Molecular point group: c2v
    Full point group: C_inf_v

    Geometry (in Angstrom), charge = 0, multiplicity = 1:

       Center              X                  Y                   Z               Mass       
    ------------   -----------------  -----------------  -----------------  -----------------
         SI           0.000000000000     0.000000000000    -0.556754333521    27.976926534650
         O            0.000000000000     0.000000000000     0.973826710379    15.994914619570

  Running in c2v symmetry.

  Rotational constants: A = ************  B =      0.70709  C =      0.70709 [cm^-1]
  Rotational constants: A = ************  B =  21198.11581  C =  21198.11581 [MHz]
  Nuclear repulsion =   38.722449772422678

  Charge       = 0
  Multiplicity = 1
  Electrons    = 22
  Nalpha       = 11
  Nbeta        = 11

  ==> Algorithm <==

  SCF Algorithm Type is OUT_OF_CORE.
  DIIS enabled.
  MOM disabled.
  Fractional occupation disabled.
  Guess Type is SAD.
  Energy threshold   = 1.00e-08
  Density threshold  = 1.00e-08
  Integral threshold = 1.00e-12

  ==> Primary Basis <==

  Basis Set: AUG-CC-PV(D+D)Z
    Blend: AUG-CC-PV(D+D)Z
    Number of shells: 21
    Number of basis function: 55
    Number of Cartesian functions: 60
    Spherical Harmonics?: true
    Max angular momentum: 2

  ==> Integral Setup <==

  ==> DiskJK: Disk-Based J/K Matrices <==

    J tasked:                  Yes
    K tasked:                  Yes
    wK tasked:                  No
    Memory [MiB]:           178813
    Schwarz Cutoff:          1E-12

  Minimum eigenvalue in the overlap matrix is 1.5912381636E-03.
  Reciprocal condition number of the overlap matrix is 3.8824255114E-04.
    Using symmetric orthogonalization.

  ==> Pre-Iterations <==

  SCF Guess: Superposition of Atomic Densities via on-the-fly atomic UHF (no occupation information).


 WARNING: Atomic UHF is not converging! Try casting from a smaller basis or call Rob at CCMST.

 WARNING: Atomic UHF is not converging! Try casting from a smaller basis or call Rob at CCMST.
   -------------------------
    Irrep   Nso     Nmo    
   -------------------------
     A1        26      26 
     A2         5       5 
     B1        12      12 
     B2        12      12 
   -------------------------
    Total      55      55
   -------------------------

  ==> Iterations <==

                        Total Energy        Delta E     RMS |[F,P]|

   @RHF iter SAD:  -339.61573170740729   -3.39616e+02   0.00000e+00 
   @RHF iter   1:  -357.04059942686672   -1.74249e+01   1.02064e-01 DIIS
   @RHF iter   2:  -348.82034200004915    8.22026e+00   8.66734e-02 DIIS
   @RHF iter   3:  -361.29361182641395   -1.24733e+01   6.91624e-02 DIIS
   @RHF iter   4:  -362.82335479082667   -1.52974e+00   4.37159e-02 DIIS
   @RHF iter   5:  -363.67861946844573   -8.55265e-01   1.42789e-02 DIIS
   @RHF iter   6:  -363.80843300451608   -1.29814e-01   1.40307e-03 DIIS
   @RHF iter   7:  -363.81111247032800   -2.67947e-03   5.96795e-04 DIIS
   @RHF iter   8:  -363.81131006944827   -1.97599e-04   1.33062e-04 DIIS
   @RHF iter   9:  -363.81132109326546   -1.10238e-05   1.84460e-05 DIIS
   @RHF iter  10:  -363.81132137679992   -2.83534e-07   3.93352e-06 DIIS
   @RHF iter  11:  -363.81132139384965   -1.70497e-08   1.48458e-06 DIIS
   @RHF iter  12:  -363.81132139669575   -2.84609e-09   6.25455e-07 DIIS
   @RHF iter  13:  -363.81132139754567   -8.49923e-10   1.74466e-07 DIIS
   @RHF iter  14:  -363.81132139764958   -1.03910e-10   5.51724e-08 DIIS
   @RHF iter  15:  -363.81132139765862   -9.03810e-12   9.03602e-09 DIIS
  Energy and wave function converged.


  ==> Post-Iterations <==

    Orbital Energies [Eh]
    ---------------------

    Doubly Occupied:                                                      

       1A1   -68.837712     2A1   -20.545511     3A1    -6.182612  
       1B2    -4.284110     1B1    -4.284110     4A1    -4.283570  
       5A1    -1.263977     6A1    -0.612759     2B2    -0.470776  
       2B1    -0.470776     7A1    -0.438853  

    Virtual:                                                              

       3B2     0.019051     3B1     0.019051     8A1     0.052161  
       9A1     0.069445     4B2     0.094459     4B1     0.094459  
      10A1     0.171052    11A1     0.213258     1A2     0.213258  
      12A1     0.239628     5B2     0.264212     5B1     0.264212  
       6B2     0.317429     6B1     0.317429    13A1     0.384345  
      14A1     0.397955     7B2     0.550152     7B1     0.550152  
      15A1     0.566270     2A2     0.654709    16A1     0.654709  
       8B2     0.744277     8B1     0.744277    17A1     0.806614  
      18A1     1.060588     3A2     1.060588    19A1     1.081831  
       9B2     1.281232     9B1     1.281232    20A1     1.417628  
      10B2     1.560021    10B1     1.560021    21A1     1.694403  
      22A1     2.731437    23A1     3.298265     4A2     3.298265  
      11B2     3.351092    11B1     3.351092    24A1     3.518683  
       5A2     3.633750    25A1     3.633750    12B1     3.705677  
      12B2     3.705677    26A1     3.866356  

    Final Occupation by Irrep:
             A1    A2    B1    B2 
    DOCC [     7,    0,    2,    2 ]

  @RHF Final Energy:  -363.81132139765862

   => Energetics <=

    Nuclear Repulsion Energy =             38.7224497724226779
    One-Electron Energy =                -581.7180112370126608
    Two-Electron Energy =                 179.1842400669313520
    Total Energy =                       -363.8113213976586167

Computation Completed


Properties will be evaluated at   0.000000,   0.000000,   0.000000 [a0]

Properties computed using the SCF density matrix

  Nuclear Dipole Moment: [e a0]
     X:     0.0000      Y:     0.0000      Z:    -0.0075

  Electronic Dipole Moment: [e a0]
     X:     0.0000      Y:     0.0000      Z:    -1.4846

  Dipole Moment: [e a0]
     X:     0.0000      Y:     0.0000      Z:    -1.4921     Total:     1.4921

  Dipole Moment: [D]
     X:     0.0000      Y:     0.0000      Z:    -3.7925     Total:     3.7925


*** tstop() called on n412-039.vsc4.prov at Tue Jan 26 18:37:58 2021
Module time:
	user time   =      27.09 seconds =       0.45 minutes
	system time =       1.70 seconds =       0.03 minutes
	total time  =          3 seconds =       0.05 minutes
Total time:
	user time   =      27.09 seconds =       0.45 minutes
	system time =       1.70 seconds =       0.03 minutes
	total time  =          3 seconds =       0.05 minutes

*** tstart() called on n412-039.vsc4.prov
*** at Tue Jan 26 18:37:58 2021


	Wfn Parameters:
	--------------------
	Wavefunction         = CCSD_T
	Number of irreps     = 4
	Number of MOs        = 55
	Number of active MOs = 49
	AO-Basis             = NONE
	Semicanonical        = false
	Reference            = RHF
	Print Level          = 1

	IRREP	# MOs	# FZDC	# DOCC	# SOCC	# VIRT	# FZVR
	-----	-----	------	------	------	------	------
	 A1	   26	    4	    3	    0	    19	    0
	 A2	   5	    0	    0	    0	    5	    0
	 B1	   12	    1	    1	    0	    10	    0
	 B2	   12	    1	    1	    0	    10	    0
	Transforming integrals...
	IWL integrals will be deleted.
	(OO|OO)...
	Presorting SO-basis two-electron integrals.
	Sorting File: SO Ints (nn|nn) nbuckets = 1
	Constructing frozen core operators
	Starting first half-transformation.
	Sorting half-transformed integrals.
	First half integral transformation complete.
	Starting second half-transformation.
	Two-electron integral transformation complete.
	(OO|OV)...
	Starting second half-transformation.
	Two-electron integral transformation complete.
	(OO|VV)...
	Starting second half-transformation.
	Two-electron integral transformation complete.
	(OV|OO)...
	Starting first half-transformation.
	Sorting half-transformed integrals.
	First half integral transformation complete.
	Starting second half-transformation.
	Two-electron integral transformation complete.
	(OV|OV)...
	Starting second half-transformation.
	Two-electron integral transformation complete.
	(OV|VV)...
	Starting second half-transformation.
	Two-electron integral transformation complete.
	(VV|OO)...
	Starting first half-transformation.
	Sorting half-transformed integrals.
	First half integral transformation complete.
	Starting second half-transformation.
	Two-electron integral transformation complete.
	(VV|OV)...
	Starting second half-transformation.
	Two-electron integral transformation complete.
	(VV|VV)...
	Starting second half-transformation.
	Two-electron integral transformation complete.
	Frozen core energy     =   -374.70181389398863

	Size of irrep 0 of <ab|cd> integrals:      0.343 (MW) /      2.747 (MB)
	Size of irrep 1 of <ab|cd> integrals:      0.152 (MW) /      1.217 (MB)
	Size of irrep 2 of <ab|cd> integrals:      0.230 (MW) /      1.843 (MB)
	Size of irrep 3 of <ab|cd> integrals:      0.230 (MW) /      1.843 (MB)
	Total:                                     0.956 (MW) /      7.650 (MB)

	Size of irrep 0 of <ia|bc> integrals:      0.045 (MW) /      0.361 (MB)
	Size of irrep 1 of <ia|bc> integrals:      0.014 (MW) /      0.109 (MB)
	Size of irrep 2 of <ia|bc> integrals:      0.026 (MW) /      0.207 (MB)
	Size of irrep 3 of <ia|bc> integrals:      0.026 (MW) /      0.207 (MB)
	Total:                                     0.111 (MW) /      0.885 (MB)

	Size of irrep 0 of tijab amplitudes:       0.006 (MW) /      0.052 (MB)
	Size of irrep 1 of tijab amplitudes:       0.001 (MW) /      0.006 (MB)
	Size of irrep 2 of tijab amplitudes:       0.003 (MW) /      0.023 (MB)
	Size of irrep 3 of tijab amplitudes:       0.003 (MW) /      0.023 (MB)
	Total:                                     0.013 (MW) /      0.104 (MB)

	Nuclear Rep. energy          =     38.72244977242268
	SCF energy                   =   -363.81132139765862
	One-electron energy          =    -49.14963269985634
	Two-electron energy          =     21.31767542376338
	Reference energy             =   -363.81132139765890

*** tstop() called on n412-039.vsc4.prov at Tue Jan 26 18:38:00 2021
Module time:
	user time   =       0.10 seconds =       0.00 minutes
	system time =       0.22 seconds =       0.00 minutes
	total time  =          2 seconds =       0.03 minutes
Total time:
	user time   =      27.20 seconds =       0.45 minutes
	system time =       1.92 seconds =       0.03 minutes
	total time  =          5 seconds =       0.08 minutes
            **************************
            *                        *
            *        CCENERGY        *
            *                        *
            **************************

    Nuclear Rep. energy (wfn)     =   38.722449772422678
    SCF energy          (wfn)     = -363.811321397658617
    Reference energy    (file100) = -363.811321397658901

    Input parameters:
    -----------------
    Wave function   =     CCSD_T
    Reference wfn   =     RHF
    Brueckner       =     No
    Memory (Mbytes) =     250000.0
    Maxiter         =     50
    R_Convergence   =     1.0e-07
    E_Convergence   =     1.0e-06
    Restart         =     Yes
    DIIS            =     Yes
    AO Basis        =     NONE
    ABCD            =     NEW
    Cache Level     =     2
    Cache Type      =     LOW
    Print Level     =     1
    Num. of threads =     48
    # Amps to Print =     10
    Print MP2 Amps? =     No
    Analyze T2 Amps =     No
    Print Pair Ener =     No
    Local CC        =     No
    SCS-MP2         =     False
    SCSN-MP2        =     False
    SCS-CCSD        =     False

MP2 correlation energy -0.2906081458966892
                Solving CC Amplitude Equations
                ------------------------------
  Iter             Energy              RMS        T1Diag      D1Diag    New D1Diag    D2Diag
  ----     ---------------------    ---------   ----------  ----------  ----------   --------
     0        -0.290608145896689    0.000e+00    0.000000    0.000000    0.000000    0.152658
     1        -0.277217119708946    1.026e-01    0.025324    0.052611    0.052611    0.178734
     2        -0.290303663367853    5.074e-02    0.020887    0.043197    0.043197    0.189875
     3        -0.295202709447095    2.017e-02    0.026665    0.055757    0.055757    0.201955
     4        -0.294850140665190    4.877e-03    0.027925    0.058576    0.058576    0.203035
     5        -0.294911234362485    2.310e-03    0.028537    0.060077    0.060077    0.202651
     6        -0.294984285671711    8.768e-04    0.028821    0.060777    0.060777    0.202462
     7        -0.294970003792100    3.104e-04    0.028892    0.060963    0.060963    0.202323
     8        -0.294964034820691    9.491e-05    0.028905    0.061003    0.061003    0.202294
     9        -0.294965335735339    3.057e-05    0.028911    0.061017    0.061017    0.202294
    10        -0.294964027860740    1.168e-05    0.028912    0.061021    0.061021    0.202295
    11        -0.294963852620684    4.237e-06    0.028911    0.061019    0.061019    0.202295
    12        -0.294963727916501    1.754e-06    0.028911    0.061020    0.061020    0.202295
    13        -0.294963652635570    5.167e-07    0.028911    0.061019    0.061019    0.202295
    14        -0.294963666855050    1.766e-07    0.028911    0.061019    0.061019    0.202295
    15        -0.294963666283600    6.327e-08    0.028911    0.061019    0.061019    0.202295

    Iterations converged.


    Largest TIA Amplitudes:
              4  34         0.0479959207
              3  24         0.0479959168
              4  35         0.0318657161
              3  25         0.0318657143
              1   2         0.0178635451
              3  31        -0.0134246792
              4  41        -0.0134246776
              4  37        -0.0117499366
              3  27        -0.0117499344
              1   5         0.0103912864

    Largest TIjAb Amplitudes:
      2   2  34  34        -0.0454464913
      2   2  24  24        -0.0454464898
      2   2  34  35        -0.0380087243
      2   2  35  34        -0.0380087243
      2   2  24  25        -0.0380087236
      2   2  25  24        -0.0380087236
      3   3  24  24        -0.0378040356
      4   4  34  34        -0.0378040313
      2   2  35  35        -0.0324068597
      2   2  25  25        -0.0324068595

    SCF energy       (wfn)                    = -363.811321397658617
    Reference energy (file100)                = -363.811321397658901

    Opposite-spin MP2 correlation energy      =   -0.214136270146232
    Same-spin MP2 correlation energy          =   -0.076471875750457
    Singles MP2 correlation energy            =   -0.000000000000000
    MP2 correlation energy                    =   -0.290608145896689
      * MP2 total energy                      = -364.101929543555570

    Opposite-spin CCSD correlation energy     =   -0.232137451531494
    Same-spin CCSD correlation energy         =   -0.062826214752106
    Singles CCSD correlation energy           =    0.000000000000000
    CCSD correlation energy                   =   -0.294963666283600
      * CCSD total energy                     = -364.106285063942494

            **************************
            *                        *
            *        CCTRIPLES       *
            *                        *
            **************************


    Wave function   =    CCSD_T
    Reference wfn   =      RHF

    Nuclear Rep. energy (wfn)                =   38.722449772422678
    SCF energy          (wfn)                = -363.811321397658617
    Reference energy    (file100)            = -363.811321397658901
    CCSD energy         (file100)            =   -0.294963666283600
    Total CCSD energy   (file100)            = -364.106285063942494

    Number of ijk index combinations:               35
    Memory available in words        :     31250000000
    ~Words needed per explicit thread:           27436
    Number of threads for explicit ijk threading:   48

    (T) energy                                =   -0.013641718452916
      * CCSD(T) total energy                  = -364.119926782395396


    Psi4 stopped on: Tuesday, 26 January 2021 06:38PM
    Psi4 wall time for execution: 0:00:08.35

*** Psi4 exiting successfully. Buy a developer a beer!
