
    -----------------------------------------------------------------------
          Psi4: An Open-Source Ab Initio Electronic Structure Package
                               Psi4 1.4a3.dev88 

                         Git: Rev {master} 262e345 


    D. G. A. Smith, L. A. Burns, A. C. Simmonett, R. M. Parrish,
    M. C. Schieber, R. Galvelis, P. Kraus, H. Kruse, R. Di Remigio,
    A. Alenaizan, A. M. James, S. Lehtola, J. P. Misiewicz, M. Scheurer,
    R. A. Shaw, J. B. Schriber, Y. Xie, Z. L. Glick, D. A. Sirianni,
    J. S. O'Brien, J. M. Waldrop, A. Kumar, E. G. Hohenstein,
    B. P. Pritchard, B. R. Brooks, H. F. Schaefer III, A. Yu. Sokolov,
    K. Patkowski, A. E. DePrince III, U. Bozkaya, R. A. King,
    F. A. Evangelista, J. M. Turney, T. D. Crawford, C. D. Sherrill,
    J. Chem. Phys. 152(18) 184108 (2020). https://doi.org/10.1063/5.0006002

                            Additional Code Authors
    E. T. Seidl, C. L. Janssen, E. F. Valeev, M. L. Leininger,
    J. F. Gonthier, R. M. Richard, H. R. McAlexander, M. Saitow, X. Wang,
    P. Verma, and M. H. Lechner

             Previous Authors, Complete List of Code Contributors,
                       and Citations for Specific Modules
    https://github.com/psi4/psi4/blob/master/codemeta.json
    https://github.com/psi4/psi4/graphs/contributors
    http://psicode.org/psi4manual/master/introduction.html#citing-psifour

    -----------------------------------------------------------------------


    Psi4 started on: Wednesday, 20 January 2021 10:07PM

    Process ID: 11743
    Host:       l43
    PSIDATADIR: /home/fs71337/gallo4/psi4/psi4/build/stage/share/psi4
    Memory:     500.0 MiB
    Threads:    48
    
  ==> Input File <==

--------------------------------------------------------------------------
# Any line starting with the # character is a comment line
memory 250000 mb
molecule molecule{
0 1
Si         0.0000000000        0.0000000000       -0.5554822253
O          0.0000000000        0.0000000000        0.9750988186
}

set {
  reference rhf
  basis aug-cc-pV(Q+d)Z
  scf_type OUT_OF_CORE
  freeze_core true
}

energy('ccsd(t)')
--------------------------------------------------------------------------

  Memory set to 232.831 GiB by Python driver.

Scratch directory: /tmp/

*** tstart() called on l43
*** at Wed Jan 20 22:07:12 2021

   => Loading Basis Set <=

    Name: AUG-CC-PV(Q+D)Z
    Role: ORBITAL
    Keyword: BASIS
    atoms 1 entry SI         line   968 file /home/fs71337/gallo4/psi4/psi4/build/stage/share/psi4/basis/aug-cc-pv_qpd_z.gbs 
    atoms 2 entry O          line   451 file /home/fs71337/gallo4/psi4/psi4/build/stage/share/psi4/basis/aug-cc-pv_qpd_z.gbs 


         ---------------------------------------------------------
                                   SCF
               by Justin Turney, Rob Parrish, Andy Simmonett
                          and Daniel G. A. Smith
                              RHF Reference
                       48 Threads, 238418 MiB Core
         ---------------------------------------------------------

  ==> Geometry <==

    Molecular point group: c2v
    Full point group: C_inf_v

    Geometry (in Angstrom), charge = 0, multiplicity = 1:

       Center              X                  Y                   Z               Mass       
    ------------   -----------------  -----------------  -----------------  -----------------
         SI           0.000000000000     0.000000000000    -0.556754333521    27.976926534650
         O            0.000000000000     0.000000000000     0.973826710379    15.994914619570

  Running in c2v symmetry.

  Rotational constants: A = ************  B =      0.70709  C =      0.70709 [cm^-1]
  Rotational constants: A = ************  B =  21198.11581  C =  21198.11581 [MHz]
  Nuclear repulsion =   38.722449772422678

  Charge       = 0
  Multiplicity = 1
  Electrons    = 22
  Nalpha       = 11
  Nbeta        = 11

  ==> Algorithm <==

  SCF Algorithm Type is OUT_OF_CORE.
  DIIS enabled.
  MOM disabled.
  Fractional occupation disabled.
  Guess Type is SAD.
  Energy threshold   = 1.00e-08
  Density threshold  = 1.00e-08
  Integral threshold = 1.00e-12

  ==> Primary Basis <==

  Basis Set: AUG-CC-PV(Q+D)Z
    Blend: AUG-CC-PV(Q+D)Z
    Number of shells: 43
    Number of basis function: 169
    Number of Cartesian functions: 220
    Spherical Harmonics?: true
    Max angular momentum: 4

  ==> Integral Setup <==

  ==> DiskJK: Disk-Based J/K Matrices <==

    J tasked:                  Yes
    K tasked:                  Yes
    wK tasked:                  No
    Memory [MiB]:           178813
    Schwarz Cutoff:          1E-12

  Minimum eigenvalue in the overlap matrix is 7.7808093911E-05.
  Reciprocal condition number of the overlap matrix is 1.3516452170E-05.
    Using symmetric orthogonalization.

  ==> Pre-Iterations <==

  SCF Guess: Superposition of Atomic Densities via on-the-fly atomic UHF (no occupation information).


 WARNING: Atomic UHF is not converging! Try casting from a smaller basis or call Rob at CCMST.

 WARNING: Atomic UHF is not converging! Try casting from a smaller basis or call Rob at CCMST.
   -------------------------
    Irrep   Nso     Nmo    
   -------------------------
     A1        66      66 
     A2        23      23 
     B1        40      40 
     B2        40      40 
   -------------------------
    Total     169     169
   -------------------------

  ==> Iterations <==

                        Total Energy        Delta E     RMS |[F,P]|

   @RHF iter SAD:  -345.90345313549847   -3.45903e+02   0.00000e+00 
   @RHF iter   1:  -357.25848471693570   -1.13550e+01   5.08633e-02 DIIS
   @RHF iter   2:  -348.31710441879676    8.94138e+00   3.16699e-02 DIIS
   @RHF iter   3:  -359.60108795064514   -1.12840e+01   3.58998e-02 DIIS
   @RHF iter   4:  -362.03113254983282   -2.43004e+00   2.18886e-02 DIIS
   @RHF iter   5:  -363.45777757189455   -1.42665e+00   9.28207e-03 DIIS
   @RHF iter   6:  -363.84214175205716   -3.84364e-01   9.30767e-04 DIIS
   @RHF iter   7:  -363.85011657053872   -7.97482e-03   2.56978e-04 DIIS
   @RHF iter   8:  -363.85062223412984   -5.05664e-04   1.96096e-04 DIIS
   @RHF iter   9:  -363.85075631378538   -1.34080e-04   2.33649e-05 DIIS
   @RHF iter  10:  -363.85076091644299   -4.60266e-06   3.63342e-06 DIIS
   @RHF iter  11:  -363.85076104865408   -1.32211e-07   1.12336e-06 DIIS
   @RHF iter  12:  -363.85076105422496   -5.57088e-09   1.09880e-07 DIIS
   @RHF iter  13:  -363.85076105440811   -1.83149e-10   6.32430e-08 DIIS
   @RHF iter  14:  -363.85076105446768   -5.95719e-11   2.09729e-08 DIIS
   @RHF iter  15:  -363.85076105448093   -1.32445e-11   7.51094e-09 DIIS
  Energy and wave function converged.


  ==> Post-Iterations <==

    Orbital Energies [Eh]
    ---------------------

    Doubly Occupied:                                                      

       1A1   -68.823986     2A1   -20.531238     3A1    -6.171127  
       1B2    -4.273062     1B1    -4.273062     4A1    -4.271229  
       5A1    -1.255977     6A1    -0.608306     2B2    -0.469558  
       2B1    -0.469558     7A1    -0.438050  

    Virtual:                                                              

       3B2     0.016599     3B1     0.016599     8A1     0.033366  
       9A1     0.056972     4B2     0.067475     4B1     0.067475  
      10A1     0.109788     1A2     0.115462    11A1     0.115462  
       5B2     0.130707     5B1     0.130707    12A1     0.143237  
      13A1     0.204653     6B2     0.205308     6B1     0.205308  
      14A1     0.257135     7B2     0.293053     7B1     0.293053  
      15A1     0.324006     2A2     0.325146    16A1     0.325146  
       8B1     0.326914     8B2     0.326914     3A2     0.333028  
      17A1     0.333028     9B2     0.371397     9B1     0.371397  
      18A1     0.413420    19A1     0.427957    10B2     0.465706  
      10B1     0.465706    11B2     0.605294    11B1     0.605294  
      20A1     0.605627    21A1     0.662365     4A2     0.662365  
      22A1     0.677473    23A1     0.823773     5A2     0.823773  
      12B2     0.860228    12B1     0.860228    24A1     0.889010  
      13B2     0.935788    13B1     0.935788    25A1     0.943017  
       6A2     0.943017    26A1     0.955900    14B2     1.003319  
      14B1     1.003319    27A1     1.006927     7A2     1.006927  
      15B2     1.021604    15B1     1.021604    16B2     1.045069  
      16B1     1.045069    28A1     1.131697    17B2     1.159102  
      17B1     1.159102    29A1     1.171245     8A2     1.171245  
      30A1     1.227446    31A1     1.322849    18B2     1.351977  
      18B1     1.351977    32A1     1.567266    19B2     1.594424  
      19B1     1.594424     9A2     1.702062    33A1     1.702062  
      34A1     1.716734    20B2     1.767144    20B1     1.767144  
      10A2     1.895052    35A1     1.895052    36A1     1.900331  
      11A2     2.047841    37A1     2.047841    21B2     2.116077  
      21B1     2.116077    38A1     2.148665    22B2     2.269444  
      22B1     2.269444    23B2     2.355331    23B1     2.355331  
      39A1     2.400838    12A2     2.400838    40A1     2.518892  
      41A1     2.628703    13A2     2.628703    24B2     2.639718  
      24B1     2.639718    25B2     2.677835    25B1     2.677835  
      42A1     2.837548    14A2     2.843312    43A1     2.843312  
      26B2     2.848531    26B1     2.848531    44A1     3.046828  
      27B2     3.489948    27B1     3.489948    45A1     3.727135  
      15A2     3.727135    46A1     3.890158    28B2     3.962244  
      28B1     3.962244    29B2     4.247447    29B1     4.247447  
      47A1     4.313678    48A1     4.346492    16A2     4.346492  
      30B1     4.425110    30B2     4.425110    49A1     4.549907  
      17A2     4.549907    50A1     4.642362    31B1     4.665702  
      31B2     4.665702    18A2     4.814089    51A1     4.814089  
      32B1     5.125481    32B2     5.125481    52A1     5.355659  
      53A1     5.472804    33B2     5.890424    33B1     5.890424  
      19A2     6.099012    54A1     6.099012    55A1     6.554170  
      34B2     6.979753    34B1     6.979753    56A1     8.250589  
      57A1    10.698588    20A2    10.698588    35B2    10.790232  
      35B1    10.790232    58A1    10.878885    36B1    10.937704  
      36B2    10.937704    59A1    11.012793    21A2    11.012793  
      37B1    11.090986    37B2    11.090986    60A1    11.206246  
      38B2    11.991617    38B1    11.991617    61A1    12.165887  
      22A2    12.165887    62A1    12.255675    39B1    12.478255  
      39B2    12.478255    63A1    12.923508    23A2    12.923508  
      40B1    13.389249    40B2    13.389249    64A1    13.418136  
      65A1    14.129147    66A1    42.474767  

    Final Occupation by Irrep:
             A1    A2    B1    B2 
    DOCC [     7,    0,    2,    2 ]

  @RHF Final Energy:  -363.85076105448093

   => Energetics <=

    Nuclear Repulsion Energy =             38.7224497724226779
    One-Electron Energy =                -581.9761127925526125
    Two-Electron Energy =                 179.4029019656489652
    Total Energy =                       -363.8507610544809268

Computation Completed


Properties will be evaluated at   0.000000,   0.000000,   0.000000 [a0]

Properties computed using the SCF density matrix

  Nuclear Dipole Moment: [e a0]
     X:     0.0000      Y:     0.0000      Z:    -0.0075

  Electronic Dipole Moment: [e a0]
     X:     0.0000      Y:     0.0000      Z:    -1.5046

  Dipole Moment: [e a0]
     X:     0.0000      Y:     0.0000      Z:    -1.5120     Total:     1.5120

  Dipole Moment: [D]
     X:     0.0000      Y:     0.0000      Z:    -3.8431     Total:     3.8431


*** tstop() called on l43 at Wed Jan 20 22:07:43 2021
Module time:
	user time   =      33.10 seconds =       0.55 minutes
	system time =       6.57 seconds =       0.11 minutes
	total time  =         31 seconds =       0.52 minutes
Total time:
	user time   =      33.10 seconds =       0.55 minutes
	system time =       6.57 seconds =       0.11 minutes
	total time  =         31 seconds =       0.52 minutes

*** tstart() called on l43
*** at Wed Jan 20 22:07:43 2021


	Wfn Parameters:
	--------------------
	Wavefunction         = CCSD_T
	Number of irreps     = 4
	Number of MOs        = 169
	Number of active MOs = 163
	AO-Basis             = NONE
	Semicanonical        = false
	Reference            = RHF
	Print Level          = 1

	IRREP	# MOs	# FZDC	# DOCC	# SOCC	# VIRT	# FZVR
	-----	-----	------	------	------	------	------
	 A1	   66	    4	    3	    0	    59	    0
	 A2	   23	    0	    0	    0	    23	    0
	 B1	   40	    1	    1	    0	    38	    0
	 B2	   40	    1	    1	    0	    38	    0
	Transforming integrals...
	IWL integrals will be deleted.
	(OO|OO)...
	Presorting SO-basis two-electron integrals.
	Sorting File: SO Ints (nn|nn) nbuckets = 1
	Constructing frozen core operators
	Starting first half-transformation.
	Sorting half-transformed integrals.
	First half integral transformation complete.
	Starting second half-transformation.
	Two-electron integral transformation complete.
	(OO|OV)...
	Starting second half-transformation.
	Two-electron integral transformation complete.
	(OO|VV)...
	Starting second half-transformation.
	Two-electron integral transformation complete.
	(OV|OO)...
	Starting first half-transformation.
	Sorting half-transformed integrals.
	First half integral transformation complete.
	Starting second half-transformation.
	Two-electron integral transformation complete.
	(OV|OV)...
	Starting second half-transformation.
	Two-electron integral transformation complete.
	(OV|VV)...
	Starting second half-transformation.
	Two-electron integral transformation complete.
	(VV|OO)...
	Starting first half-transformation.
	Sorting half-transformed integrals.
	First half integral transformation complete.
	Starting second half-transformation.
	Two-electron integral transformation complete.
	(VV|OV)...
	Starting second half-transformation.
	Two-electron integral transformation complete.
	(VV|VV)...
	Starting second half-transformation.
	Two-electron integral transformation complete.
	Frozen core energy     =   -374.70659801282534

	Size of irrep 0 of <ab|cd> integrals:     47.582 (MW) /    380.659 (MB)
	Size of irrep 1 of <ab|cd> integrals:     31.382 (MW) /    251.059 (MB)
	Size of irrep 2 of <ab|cd> integrals:     38.838 (MW) /    310.703 (MB)
	Size of irrep 3 of <ab|cd> integrals:     38.838 (MW) /    310.703 (MB)
	Total:                                   156.640 (MW) /   1253.124 (MB)

	Size of irrep 0 of <ia|bc> integrals:      1.745 (MW) /     13.962 (MB)
	Size of irrep 1 of <ia|bc> integrals:      0.812 (MW) /      6.498 (MB)
	Size of irrep 2 of <ia|bc> integrals:      1.221 (MW) /      9.772 (MB)
	Size of irrep 3 of <ia|bc> integrals:      1.221 (MW) /      9.772 (MB)
	Total:                                     5.000 (MW) /     40.003 (MB)

	Size of irrep 0 of tijab amplitudes:       0.076 (MW) /      0.607 (MB)
	Size of irrep 1 of tijab amplitudes:       0.011 (MW) /      0.090 (MB)
	Size of irrep 2 of tijab amplitudes:       0.037 (MW) /      0.299 (MB)
	Size of irrep 3 of tijab amplitudes:       0.037 (MW) /      0.299 (MB)
	Total:                                     0.162 (MW) /      1.295 (MB)

	Nuclear Rep. energy          =     38.72244977242268
	SCF energy                   =   -363.85076105448093
	One-electron energy          =    -49.25032668812782
	Two-electron energy          =     21.38371387404777
	Reference energy             =   -363.85076105448269

*** tstop() called on l43 at Wed Jan 20 22:08:00 2021
Module time:
	user time   =      11.36 seconds =       0.19 minutes
	system time =       5.96 seconds =       0.10 minutes
	total time  =         17 seconds =       0.28 minutes
Total time:
	user time   =      44.46 seconds =       0.74 minutes
	system time =      12.53 seconds =       0.21 minutes
	total time  =         48 seconds =       0.80 minutes
            **************************
            *                        *
            *        CCENERGY        *
            *                        *
            **************************

    Nuclear Rep. energy (wfn)     =   38.722449772422678
    SCF energy          (wfn)     = -363.850761054480927
    Reference energy    (file100) = -363.850761054482689

    Input parameters:
    -----------------
    Wave function   =     CCSD_T
    Reference wfn   =     RHF
    Brueckner       =     No
    Memory (Mbytes) =     250000.0
    Maxiter         =     50
    R_Convergence   =     1.0e-07
    E_Convergence   =     1.0e-06
    Restart         =     Yes
    DIIS            =     Yes
    AO Basis        =     NONE
    ABCD            =     NEW
    Cache Level     =     2
    Cache Type      =     LOW
    Print Level     =     1
    Num. of threads =     48
    # Amps to Print =     10
    Print MP2 Amps? =     No
    Analyze T2 Amps =     No
    Print Pair Ener =     No
    Local CC        =     No
    SCS-MP2         =     False
    SCSN-MP2        =     False
    SCS-CCSD        =     False

MP2 correlation energy -0.3674023575906822
                Solving CC Amplitude Equations
                ------------------------------
  Iter             Energy              RMS        T1Diag      D1Diag    New D1Diag    D2Diag
  ----     ---------------------    ---------   ----------  ----------  ----------   --------
     0        -0.367402357590682    0.000e+00    0.000000    0.000000    0.000000    0.157178
     1        -0.345173086625066    9.619e-02    0.022586    0.046705    0.046705    0.176486
     2        -0.358754710519314    5.135e-02    0.018274    0.037283    0.037283    0.186620
     3        -0.363988172665538    1.857e-02    0.023210    0.048004    0.048004    0.197987
     4        -0.363349412399540    4.836e-03    0.024483    0.050740    0.050740    0.200181
     5        -0.363382329244870    2.100e-03    0.025077    0.052176    0.052176    0.200056
     6        -0.363444606745012    8.733e-04    0.025344    0.052827    0.052827    0.199891
     7        -0.363431730423584    3.354e-04    0.025426    0.053038    0.053038    0.199719
     8        -0.363428228406254    9.871e-05    0.025446    0.053094    0.053094    0.199685
     9        -0.363430167541764    3.342e-05    0.025452    0.053110    0.053110    0.199683
    10        -0.363429355206298    1.254e-05    0.025453    0.053113    0.053113    0.199684
    11        -0.363429071317710    4.946e-06    0.025453    0.053112    0.053112    0.199684
    12        -0.363429012645427    2.027e-06    0.025453    0.053112    0.053112    0.199684
    13        -0.363428916832611    7.538e-07    0.025453    0.053112    0.053112    0.199684
    14        -0.363428917649698    2.739e-07    0.025453    0.053112    0.053112    0.199684
    15        -0.363428915928323    1.001e-07    0.025453    0.053112    0.053112    0.199684
    16        -0.363428914878372    4.234e-08    0.025453    0.053112    0.053112    0.199684

    Iterations converged.


    Largest TIA Amplitudes:
              4 120        -0.0378999355
              3  82        -0.0378998825
              4 121         0.0276924596
              3  83         0.0276924366
              4 122         0.0132011818
              3  84         0.0132011548
              1   4         0.0120475072
              4 124        -0.0113087290
              3  86        -0.0113087261
              1  10         0.0110976928

    Largest TIjAb Amplitudes:
      2   2 120 120        -0.0389960748
      2   2  82  82        -0.0389960515
      2   2 120 121         0.0323269505
      2   2 121 120         0.0323269505
      2   2  82  83         0.0323269402
      2   2  83  82         0.0323269402
      3   3  82  82        -0.0304253637
      4   4 120 120        -0.0304253152
      2   2 121 121        -0.0270857547
      2   2  83  83        -0.0270857539

    SCF energy       (wfn)                    = -363.850761054480927
    Reference energy (file100)                = -363.850761054482689

    Opposite-spin MP2 correlation energy      =   -0.277669464352711
    Same-spin MP2 correlation energy          =   -0.089732893237971
    Singles MP2 correlation energy            =   -0.000000000000000
    MP2 correlation energy                    =   -0.367402357590682
      * MP2 total energy                      = -364.218163412073352

    Opposite-spin CCSD correlation energy     =   -0.288396730830294
    Same-spin CCSD correlation energy         =   -0.075032184048076
    Singles CCSD correlation energy           =    0.000000000000000
    CCSD correlation energy                   =   -0.363428914878372
      * CCSD total energy                     = -364.214189969361087

            **************************
            *                        *
            *        CCTRIPLES       *
            *                        *
            **************************


    Wave function   =    CCSD_T
    Reference wfn   =      RHF

    Nuclear Rep. energy (wfn)                =   38.722449772422678
    SCF energy          (wfn)                = -363.850761054480927
    Reference energy    (file100)            = -363.850761054482689
    CCSD energy         (file100)            =   -0.363428914878372
    Total CCSD energy   (file100)            = -364.214189969361087

    Number of ijk index combinations:               35
    Memory available in words        :     31250000000
    ~Words needed per explicit thread:          821516
    Number of threads for explicit ijk threading:   48

    (T) energy                                =   -0.020257878257372
      * CCSD(T) total energy                  = -364.234447847618412


    Psi4 stopped on: Wednesday, 20 January 2021 10:08PM
    Psi4 wall time for execution: 0:01:02.38

*** Psi4 exiting successfully. Buy a developer a beer!
