
    -----------------------------------------------------------------------
          Psi4: An Open-Source Ab Initio Electronic Structure Package
                               Psi4 1.2a1.dev939 

                         Git: Rev {HEAD} fa1ec19 dirty


    R. M. Parrish, L. A. Burns, D. G. A. Smith, A. C. Simmonett,
    A. E. DePrince III, E. G. Hohenstein, U. Bozkaya, A. Yu. Sokolov,
    R. Di Remigio, R. M. Richard, J. F. Gonthier, A. M. James,
    H. R. McAlexander, A. Kumar, M. Saitow, X. Wang, B. P. Pritchard,
    P. Verma, H. F. Schaefer III, K. Patkowski, R. A. King, E. F. Valeev,
    F. A. Evangelista, J. M. Turney, T. D. Crawford, and C. D. Sherrill,
    J. Chem. Theory Comput. 13(7) pp 3185--3197 (2017).
    (doi: 10.1021/acs.jctc.7b00174)

    -----------------------------------------------------------------------


    Psi4 started on: Saturday, 31 October 2020 03:49PM

    Process ID:  13318
    PSIDATADIR: /home/fs71337/airmler/src/psi4_uhf/build/stage/usr/local/psi4/share/psi4
    Memory:     500.0 MiB
    Threads:    48
    
  ==> Input File <==

--------------------------------------------------------------------------
# Any line starting with the # character is a comment line
memory 250000 mb
molecule molecule{
1 2
S          0.0000000000        0.0000000000        0.9256314495
S          0.0000000000        0.0000000000       -0.9256314495
}

set {
  reference uhf
  basis aug-cc-pv(6+d)z
  scf_type OUT_OF_CORE
  freeze_core true
}

energy('ccsd')
--------------------------------------------------------------------------

  Memory set to 232.831 GiB by Python driver.

*** tstart() called on n412-050.vsc4.prov
*** at Sat Oct 31 15:49:56 2020

   => Loading Basis Set <=

    Name: AUG-CC-PV(6+D)Z
    Role: ORBITAL
    Keyword: BASIS
    atoms 1-2 entry S          line  1164 file /home/fs71337/airmler/src/psi4_uhf/build/stage/usr/local/psi4/share/psi4/basis/aug-cc-pv_6pd_z.gbs 


         ---------------------------------------------------------
                                   SCF
            by Justin Turney, Rob Parrish, Andy Simmonett
                             and Daniel Smith
                              UHF Reference
                       48 Threads, 238418 MiB Core
         ---------------------------------------------------------

  ==> Geometry <==

    Molecular point group: d2h
    Full point group: D_inf_h

    Geometry (in Angstrom), charge = 1, multiplicity = 2:

       Center              X                  Y                   Z               Mass       
    ------------   -----------------  -----------------  -----------------  -----------------
           S          0.000000000000     0.000000000000     0.925631449500    31.972070999000
           S          0.000000000000     0.000000000000    -0.925631449500    31.972070999000

  Running in d2h symmetry.

  Rotational constants: A = ************  B =      0.30769  C =      0.30769 [cm^-1]
  Rotational constants: A = ************  B =   9224.44462  C =   9224.44462 [MHz]
  Nuclear repulsion =   73.176730043159580

  Charge       = 1
  Multiplicity = 2
  Electrons    = 31
  Nalpha       = 16
  Nbeta        = 15

  ==> Algorithm <==

  SCF Algorithm Type is OUT_OF_CORE.
  DIIS enabled.
  MOM disabled.
  Fractional occupation disabled.
  Guess Type is GWH.
  Energy threshold   = 1.00e-08
  Density threshold  = 1.00e-08
  Integral threshold = 0.00e+00

  ==> Primary Basis <==

  Basis Set: AUG-CC-PV(6+D)Z
    Blend: AUG-CC-PV(6+D)Z
    Number of shells: 76
    Number of basis function: 396
    Number of Cartesian functions: 608
    Spherical Harmonics?: true
    Max angular momentum: 6

  ==> Pre-Iterations <==

   -------------------------------------------------------
    Irrep   Nso     Nmo     Nalpha   Nbeta   Ndocc  Nsocc
   -------------------------------------------------------
     Ag        70      70       0       0       0       0
     B1g       32      32       0       0       0       0
     B2g       48      48       0       0       0       0
     B3g       48      48       0       0       0       0
     Au        32      32       0       0       0       0
     B1u       70      70       0       0       0       0
     B2u       48      48       0       0       0       0
     B3u       48      48       0       0       0       0
   -------------------------------------------------------
    Total     396     396      16      15      15       1
   -------------------------------------------------------

  ==> Integral Setup <==

  ==> DiskJK: Disk-Based J/K Matrices <==

    J tasked:                  Yes
    K tasked:                  Yes
    wK tasked:                  No
    Memory (MB):            178813
    Schwarz Cutoff:          1E-12

  Minimum eigenvalue in the overlap matrix is 3.0084023583E-06.
  Using Symmetric Orthogonalization.

  SCF Guess: Generalized Wolfsberg-Helmholtz.

  ==> Iterations <==

                        Total Energy        Delta E     RMS |[F,P]|

    Occupation by irrep:
             Ag   B1g   B2g   B3g    Au   B1u   B2u   B3u 
    DOCC [     5,    0,    1,    1,    0,    4,    2,    2 ]
    SOCC [     0,    0,    1,    0,    0,    0,    0,    0 ]

   @UHF iter   1:  -778.58195963331036   -7.78582e+02   2.32160e-01 
   @UHF iter   2:  -793.61934235562217   -1.50374e+01   3.72257e-02 DIIS
   @UHF iter   3:  -794.63444102207791   -1.01510e+00   1.51161e-02 DIIS
   @UHF iter   4:  -794.76392771945075   -1.29487e-01   1.24148e-03 DIIS
   @UHF iter   5:  -794.76588651730367   -1.95880e-03   4.43698e-04 DIIS
   @UHF iter   6:  -794.76624589233916   -3.59375e-04   1.33935e-04 DIIS
   @UHF iter   7:  -794.76629801948457   -5.21271e-05   3.94007e-05 DIIS
   @UHF iter   8:  -794.76630101591104   -2.99643e-06   9.88186e-06 DIIS
   @UHF iter   9:  -794.76630126290092   -2.46990e-07   2.45125e-06 DIIS
   @UHF iter  10:  -794.76630127575140   -1.28505e-08   4.91009e-07 DIIS
   @UHF iter  11:  -794.76630127627072   -5.19321e-10   9.01772e-08 DIIS
   @UHF iter  12:  -794.76630127628937   -1.86446e-11   3.03365e-08 DIIS
   @UHF iter  13:  -794.76630127629369   -4.32010e-12   7.95482e-09 DIIS

  ==> Post-Iterations <==

   @Spin Contamination Metric:   3.202046031E-02
   @S^2 Expected:                7.500000000E-01
   @S^2 Observed:                7.820204603E-01
   @S   Expected:                5.000000000E-01
   @S   Observed:                5.000000000E-01

    Orbital Energies (a.u.)
    -----------------------

    Alpha Occupied:                                                       

       1Ag   -92.347599     1B1u  -92.347594     2Ag    -9.341953  
       2B1u   -9.341445     1B3u   -7.030405     1B2g   -7.030326  
       3Ag    -7.019160     1B2u   -7.019142     1B3g   -7.019017  
       3B1u   -7.017858     4Ag    -1.403616     4B1u   -1.114831  
       2B3u   -0.826269     5Ag    -0.819535     2B2u   -0.744791  
       2B2g   -0.658818  

    Alpha Virtual:                                                        

       2B3g   -0.314007     5B1u   -0.118419     6Ag    -0.102807  
       3B2u   -0.075775     3B3u   -0.073220     7Ag    -0.057188  
       6B1u   -0.055680     3B2g   -0.038959     3B3g   -0.038283  
       1B1g   -0.032378     8Ag    -0.032127     7B1u    0.013109  
       4B3u    0.020791     4B2u    0.028388     9Ag     0.040265  
       1Au     0.053557     8B1u    0.053644     4B2g    0.080095  
       5B2u    0.081628     9B1u    0.081921     4B3g    0.082474  
       5B3u    0.084575    10Ag     0.119992     6B3u    0.156748  
      11Ag     0.163740     2B1g    0.164073     6B2u    0.173464  
       5B2g    0.177638     5B3g    0.179747    12Ag     0.186183  
      10B1u    0.186612     7B3u    0.211005     7B2u    0.211036  
       2Au     0.236814    11B1u    0.237233    13Ag     0.294075  
       3B1g    0.306306    14Ag     0.306418     6B2g    0.315678  
       6B3g    0.315694     7B2g    0.327561     7B3g    0.328596  
      12B1u    0.332033     8B2u    0.386661     8B3u    0.389027  
      15Ag     0.424282    13B1u    0.434451     3Au     0.434528  
      14B1u    0.448318     8B2g    0.551743     8B3g    0.558676  
       9B2u    0.560967     9B3u    0.564253    16Ag     0.605609  
       4B1g    0.605609    15B1u    0.623176    10B3u    0.691884  
      10B2u    0.691943    11B3u    0.710126    11B2u    0.715170  
      17Ag     0.721152     5B1g    0.724800    18Ag     0.730752  
       4Au     0.735311    16B1u    0.735483     9B2g    0.746104  
       5Au     0.749086    17B1u    0.749089     9B3g    0.752578  
      18B1u    0.773110    19Ag     0.815362    12B3u    0.842672  
      12B2u    0.842681     6B1g    0.862079    20Ag     0.862100  
      10B3g    0.865876    10B2g    0.865908    11B3g    0.877071  
      11B2g    0.881817    13B2u    0.915661    13B3u    0.921148  
      21Ag     0.931314     7B1g    0.931435    22Ag     0.939655  
       6Au     0.941604    19B1u    0.941648    23Ag     0.977051  
      12B3g    0.992224    12B2g    0.994043    20B1u    1.008548  
      13B3g    1.015261    13B2g    1.015290    21B1u    1.130223  
      14B2u    1.307351    14B3u    1.312450    22B1u    1.368374  
       7Au     1.379780    23B1u    1.382001    15B2u    1.628241  
      15B3u    1.628241    14B3g    1.645313    24Ag     1.646130  
       8B1g    1.646131    25Ag     1.648034    14B2g    1.650558  
      16B2u    1.741329    16B3u    1.741333    26Ag     1.798217  
       9B1g    1.798217    15B3g    1.802114    15B2g    1.802114  
      24B1u    1.849595    27Ag     1.858080    10B1g    1.858431  
       8Au     1.899220    25B1u    1.899264    17B2u    1.899513  
       9Au     1.909172    26B1u    1.909211    17B3u    1.910265  
      28Ag     1.945213    16B3g    1.953376    16B2g    1.963072  
      18B2u    1.986623    18B3u    1.986993    19B2u    1.995992  
      19B3u    2.002600    29Ag     2.007771    11B1g    2.007938  
      27B1u    2.010896    17B3g    2.018876    17B2g    2.018916  
      10Au     2.048550    28B1u    2.049100    30Ag     2.056577  
      11Au     2.077629    29B1u    2.077632    12B1g    2.090107  
      31Ag     2.090394    20B2u    2.096514    20B3u    2.102733  
      21B2u    2.137758    21B3u    2.137779    30B1u    2.174785  
      18B3g    2.203442    18B2g    2.203959    19B3g    2.209989  
      19B2g    2.210959    22B2u    2.338144    22B3u    2.342629  
      20B3g    2.349069    20B2g    2.359784    31B1u    2.431482  
      12Au     2.431689    32Ag     2.438418    33Ag     2.472650  
      21B3g    2.541572    21B2g    2.541583    32B1u    2.564674  
      13B1g    2.610005    34Ag     2.610324    22B3g    2.816775  
      22B2g    2.825343    33B1u    3.000901    23B2u    3.119305  
      23B3u    3.128627    35Ag     3.172884    13Au     3.174823  
      34B1u    3.175194    24B2u    3.634174    24B3u    3.634174  
      23B3g    3.653269    23B2g    3.665098    36Ag     3.717106  
      14B1g    3.717106    37Ag     3.761238    15B1g    3.761238  
      25B2u    3.766938    25B3u    3.766943    35B1u    3.799088  
      38Ag     3.838279    16B1g    3.838517    14Au     3.876276  
      36B1u    3.876276    26B2u    3.983937    26B3u    3.996996  
      39Ag     4.011371    17B1g    4.013593    40Ag     4.013595  
      15Au     4.032503    37B1u    4.032785    27B2u    4.055921  
      27B3u    4.055922    16Au     4.087197    38B1u    4.087198  
      41Ag     4.103479    18B1g    4.103479    24B3g    4.132703  
      24B2g    4.132703    28B2u    4.151362    28B3u    4.166737  
      25B3g    4.166793    25B2g    4.166793    29B2u    4.186060  
      29B3u    4.186996    26B3g    4.232763    26B2g    4.233547  
      27B3g    4.243813    27B2g    4.256606    39B1u    4.346589  
      17Au     4.346589    42Ag     4.351012    19B1g    4.364158  
      40B1u    4.365823    43Ag     4.371584    44Ag     4.417772  
      30B2u    4.506417    30B3u    4.519999    41B1u    4.525301  
      18Au     4.525792    31B2u    4.551334    31B3u    4.551690  
      42B1u    4.578888    28B3g    4.627027    28B2g    4.627032  
      19Au     4.688628    43B1u    4.688628    20B1g    4.723356  
      45Ag     4.723811    29B3g    4.761473    29B2g    4.761474  
      44B1u    4.785222    20Au     4.786087    32B2u    4.789478  
      32B3u    4.789478    45B1u    4.872191    46Ag     4.903424  
      21B1g    4.903476    30B3g    4.934889    30B2g    4.950931  
      33B2u    5.130428    33B3u    5.141455    47Ag     5.146834  
      31B3g    5.147185    31B2g    5.162149    46B1u    5.218068  
      48Ag     5.353934    22B1g    5.414087    49Ag     5.415607  
      21Au     5.465638    47B1u    5.465820    32B3g    5.565031  
      32B2g    5.565040    33B3g    5.631806    33B2g    5.643980  
      50Ag     5.798705    48B1u    5.919504    34B2u    6.198691  
      34B3u    6.210156    22Au     6.509287    49B1u    6.509472  
      34B3g    6.573523    34B2g    6.584526    35B2u    7.082939  
      35B3u    7.092577    50B1u    7.235433    35B3g    7.673690  
      35B2g    7.685891    51Ag     8.117390    36B2u    8.232107  
      36B3u    8.245270    23B1g    8.295345    52Ag     8.295694  
      24B1g    8.306218    53Ag     8.306231    37B2u    8.320729  
      37B3u    8.320742    51B1u    8.369752    23Au     8.369752  
      38B2u    8.500200    38B3u    8.500203    54Ag     8.506834  
      39B2u    8.514354    39B3u    8.514365    36B3g    8.516040  
      36B2g    8.516040    25B1g    8.538419    55Ag     8.538420  
      26B1g    8.545441    56Ag     8.545443    52B1u    8.596310  
      24Au     8.596310    40B2u    8.667121    27B1g    8.668642  
      57Ag     8.669291    40B3u    8.684160    37B3g    8.715842  
      37B2g    8.715842    53B1u    8.732011    25Au     8.789895  
      54B1u    8.790495    41B2u    8.923198    41B3u    8.923198  
      58Ag     8.927477    28B1g    8.927477    55B1u    8.974746  
      26Au     8.974747    56B1u    8.985584    38B3g    8.991353  
      38B2g    8.991353    39B3g    9.069369    39B2g    9.086939  
      42B2u    9.102850    42B3u    9.102854    27Au     9.139612  
      57B1u    9.139613    59Ag     9.180544    58B1u    9.307217  
      28Au     9.307307    40B3g    9.310992    40B2g    9.311025  
      41B3g    9.404595    29B1g    9.417291    60Ag     9.417724  
      41B2g    9.418999    42B3g    9.549358    42B2g    9.549364  
      43B2u    9.601126    59B1u    9.613303    43B3u    9.618898  
      61Ag     9.876247    60B1u    9.896381    29Au     9.949101  
      61B1u    9.950881    62Ag    10.336271    30B1g   10.336351  
      44B2u   10.408986    44B3u   10.408986    43B3g   10.517411  
      43B2g   10.517417    31B1g   10.579978    63Ag    10.580064  
      44B3g   10.657087    44B2g   10.672540    62B1u   10.702566  
      64Ag    10.788156    30Au    10.852485    63B1u   10.852796  
      45B2u   10.887565    45B3u   10.897770    64B1u   11.436706  
      31Au    11.436721    45B3g   11.619501    45B2g   11.632634  
      46B2u   11.665059    46B3u   11.678857    46B3g   12.291763  
      46B2g   12.304700    65B1u   12.427549    65Ag    12.469456  
      66Ag    13.091347    66B1u   15.556416    47B2u   29.518926  
      47B3u   29.519491    47B3g   30.250581    47B2g   30.251921  
      32B1g   30.336057    67Ag    30.336067    68Ag    30.672631  
      32Au    30.718192    67B1u   30.718205    48B2u   30.839895  
      48B3u   30.843192    68B1u   31.208419    48B3g   31.248062  
      48B2g   31.250931    69B1u   32.904372    69Ag    33.662124  
      70Ag   244.924451    70B1u  248.351752  

    Beta Occupied:                                                        

       1Ag   -92.340994     1B1u  -92.340988     2Ag    -9.335440  
       2B1u   -9.334869     3Ag    -7.016370     1B2u   -7.015778  
       1B3g   -7.015650     3B1u   -7.015031     1B3u   -7.002199  
       1B2g   -7.002068     4Ag    -1.372681     4B1u   -1.040357  
       5Ag    -0.797788     2B2u   -0.738606     2B3u   -0.706621  

    Beta Virtual:                                                         

       2B3g   -0.301815     2B2g   -0.258874     5B1u   -0.108734  
       6Ag    -0.102798     3B2u   -0.075688     3B3u   -0.071875  
       7Ag    -0.056652     6B1u   -0.051410     3B3g   -0.037910  
       3B2g   -0.034912     1B1g   -0.026783     8Ag    -0.026370  
       7B1u    0.014628     4B2u    0.028224     4B3u    0.038096  
       9Ag     0.042739     1Au     0.058166     8B1u    0.058342  
       5B2u    0.081893     4B3g    0.083124     9B1u    0.084274  
       4B2g    0.087435     5B3u    0.088527    10Ag     0.119842  
       6B2u    0.174237     2B1g    0.176518    11Ag     0.176996  
       5B3g    0.180724     5B2g    0.188272    12Ag     0.188512  
      10B1u    0.188876     6B3u    0.191962     7B2u    0.211641  
       7B3u    0.211646     2Au     0.259093    11B1u    0.259343  
      13Ag     0.299603     3B1g    0.310085    14Ag     0.311890  
       6B3g    0.317313     6B2g    0.317348     7B3g    0.328731  
      12B1u    0.335845     7B2g    0.337255     8B2u    0.387052  
       8B3u    0.393898    15Ag     0.427674    13B1u    0.446752  
       3Au     0.448228    14B1u    0.452640     8B3g    0.560466  
       9B2u    0.561431     9B3u    0.572549     8B2g    0.575379  
       4B1g    0.606203    16Ag     0.606203    15B1u    0.627245  
      10B2u    0.691542    10B3u    0.691633    11B2u    0.717138  
      17Ag     0.729270     5B1g    0.735390    11B3u    0.736163  
      18Ag     0.738208    16B1u    0.744205     4Au     0.744956  
      17B1u    0.750725     5Au     0.750829     9B3g    0.754330  
       9B2g    0.775594    18B1u    0.778063    19Ag     0.816535  
      12B2u    0.850529    12B3u    0.850561    10B3g    0.869973  
      10B2g    0.870308     6B1g    0.871891    20Ag     0.872191  
      11B3g    0.877691    11B2g    0.884982    13B2u    0.916358  
      13B3u    0.927668    21Ag     0.936906     7B1g    0.936949  
      22Ag     0.944069    19B1u    0.953821     6Au     0.953957  
      23Ag     0.982072    12B3g    0.993298    12B2g    1.007247  
      20B1u    1.011884    13B3g    1.023293    13B2g    1.023573  
      21B1u    1.139563    14B2u    1.307424    14B3u    1.322708  
      22B1u    1.369784     7Au     1.385981    23B1u    1.390881  
      15B2u    1.629927    15B3u    1.629927    24Ag     1.645949  
       8B1g    1.645949    14B3g    1.646124    25Ag     1.650862  
      14B2g    1.660106    16B2u    1.742261    16B3u    1.742280  
      15B3g    1.804931    15B2g    1.804931    26Ag     1.805117  
       9B1g    1.805121    24B1u    1.856605    27Ag     1.860302  
      10B1g    1.861099    17B2u    1.901029     8Au     1.906144  
      25B1u    1.906717    17B3u    1.918726     9Au     1.919247  
      26B1u    1.920279    28Ag     1.951668    16B3g    1.953461  
      16B2g    1.969313    18B2u    1.989301    18B3u    1.990507  
      19B2u    1.997019    19B3u    2.009801    27B1u    2.013375  
      29Ag     2.014550    11B1g    2.014945    17B3g    2.024769  
      17B2g    2.024906    10Au     2.051616    28B1u    2.052818  
      30Ag     2.060363    11Au     2.079807    29B1u    2.079814  
      20B2u    2.097771    12B1g    2.100082    31Ag     2.101761  
      20B3u    2.121609    21B2u    2.155825    21B3u    2.156219  
      30B1u    2.175887    18B3g    2.209277    18B2g    2.222208  
      19B3g    2.224834    19B2g    2.238863    22B2u    2.340297  
      20B3g    2.349800    22B3u    2.360905    20B2g    2.366831  
      31B1u    2.441495    12Au     2.442545    32Ag     2.443645  
      33Ag     2.474613    21B3g    2.544665    21B2g    2.544695  
      32B1u    2.571707    13B1g    2.615925    34Ag     2.616973  
      22B3g    2.818191    22B2g    2.838379    33B1u    3.004041  
      23B2u    3.119382    23B3u    3.135151    35Ag     3.174354  
      13Au     3.179897    34B1u    3.180744    24B2u    3.636192  
      24B3u    3.636192    23B3g    3.654205    23B2g    3.673934  
      36Ag     3.716867    14B1g    3.716867    37Ag     3.765435  
      15B1g    3.765435    25B2u    3.768093    25B3u    3.768105  
      35B1u    3.806127    38Ag     3.839545    16B1g    3.840004  
      14Au     3.880816    36B1u    3.880816    26B2u    3.984824  
      26B3u    4.001316    39Ag     4.015301    17B1g    4.026793  
      40Ag     4.026795    15Au     4.040818    37B1u    4.041680  
      27B2u    4.064344    27B3u    4.064344    16Au     4.100955  
      38B1u    4.100965    41Ag     4.110136    18B1g    4.110136  
      24B3g    4.136374    24B2g    4.136374    28B2u    4.151819  
      28B3u    4.174807    25B3g    4.175101    25B2g    4.175101  
      29B2u    4.195496    29B3u    4.198309    26B3g    4.236499  
      26B2g    4.241312    27B3g    4.249654    27B2g    4.266393  
      42Ag     4.351033    39B1u    4.352850    17Au     4.352853  
      19B1g    4.369375    40B1u    4.370580    43Ag     4.381715  
      44Ag     4.426536    30B2u    4.506193    30B3u    4.524303  
      41B1u    4.528080    18Au     4.528845    31B2u    4.556289  
      31B3u    4.557017    42B1u    4.582055    28B3g    4.631678  
      28B2g    4.631692    19Au     4.691768    43B1u    4.691769  
      20B1g    4.732618    45Ag     4.733930    29B3g    4.774255  
      29B2g    4.774260    44B1u    4.791254    20Au     4.793722  
      32B2u    4.803646    32B3u    4.803652    45B1u    4.880378  
      46Ag     4.911709    21B1g    4.911862    30B3g    4.936398  
      30B2g    4.959076    33B2u    5.131273    31B3g    5.148176  
      47Ag     5.149457    33B3u    5.151523    31B2g    5.169384  
      46B1u    5.220564    48Ag     5.356306    22B1g    5.417856  
      49Ag     5.420492    21Au     5.471403    47B1u    5.471739  
      32B3g    5.569778    32B2g    5.569793    33B3g    5.633572  
      33B2g    5.658117    50Ag     5.801997    48B1u    5.924589  
      34B2u    6.200454    34B3u    6.224135    22Au     6.515562  
      49B1u    6.515948    34B3g    6.574611    34B2g    6.594978  
      35B2u    7.085143    35B3u    7.108233    50B1u    7.237804  
      35B3g    7.675325    35B2g    7.699072    51Ag     8.119310  
      36B2u    8.232538    36B3u    8.247931    23B1g    8.297340  
      52Ag     8.297912    24B1g    8.317196    53Ag     8.317209  
      37B2u    8.327611    37B3u    8.327641    51B1u    8.380351  
      23Au     8.380351    38B2u    8.504267    38B3u    8.504278  
      54Ag     8.510101    39B2u    8.520717    39B3u    8.520743  
      36B3g    8.523126    36B2g    8.523128    25B1g    8.544072  
      55Ag     8.544081    26B1g    8.553175    56Ag     8.553181  
      52B1u    8.605184    24Au     8.605184    40B2u    8.668334  
      27B1g    8.674781    57Ag     8.675987    40B3u    8.694034  
      37B3g    8.722156    37B2g    8.722156    53B1u    8.734225  
      25Au     8.794605    54B1u    8.795749    41B2u    8.933979  
      41B3u    8.933979    58Ag     8.935813    28B1g    8.935813  
      55B1u    8.979383    26Au     8.979384    56B1u    8.990265  
      38B3g    9.002449    38B2g    9.002449    39B3g    9.069670  
      39B2g    9.094391    42B2u    9.109492    42B3u    9.109503  
      27Au     9.147987    57B1u    9.147987    59Ag     9.183702  
      58B1u    9.311201    28Au     9.311357    40B3g    9.316149  
      40B2g    9.316223    41B3g    9.405896    29B1g    9.422519  
      60Ag     9.423357    41B2g    9.423970    42B3g    9.554533  
      42B2g    9.554544    43B2u    9.602629    59B1u    9.616761  
      43B3u    9.626896    61Ag     9.879857    60B1u    9.898818  
      29Au     9.954701    61B1u    9.957694    62Ag    10.343891  
      30B1g   10.344061    44B2u   10.414606    44B3u   10.414607  
      43B3g   10.522833    43B2g   10.522845    31B1g   10.583166  
      63Ag    10.583287    44B3g   10.658654    44B2g   10.681097  
      62B1u   10.705031    64Ag    10.791940    30Au    10.857988  
      63B1u   10.858592    45B2u   10.887905    45B3u   10.903210  
      64B1u   11.440655    31Au    11.440686    45B3g   11.620362  
      45B2g   11.638285    46B2u   11.665679    46B3u   11.683663  
      46B3g   12.292017    46B2g   12.309045    65B1u   12.430760  
      65Ag    12.471142    66Ag    13.096803    66B1u   15.560535  
      47B2u   29.521222    47B3u   29.536016    47B3g   30.252680  
      47B2g   30.266438    67Ag    30.345272    32B1g   30.345348  
      68Ag    30.676543    67B1u   30.727327    32Au    30.727367  
      48B2u   30.841455    48B3u   30.852309    68B1u   31.212121  
      48B3g   31.249730    48B2g   31.261384    69B1u   32.906308  
      69Ag    33.663920    70Ag   244.927025    70B1u  248.354338  

    Final Occupation by Irrep:
             Ag   B1g   B2g   B3g    Au   B1u   B2u   B3u 
    DOCC [     5,    0,    1,    1,    0,    4,    2,    2 ]
    SOCC [     0,    0,    1,    0,    0,    0,    0,    0 ]

  Energy converged.

  @UHF Final Energy:  -794.76630127629369

   => Energetics <=

    Nuclear Repulsion Energy =             73.1767300431595800
    One-Electron Energy =               -1234.7282638541471442
    Two-Electron Energy =                 366.7852325346939892
    PCM Polarization Energy =               0.0000000000000000
    Total Energy =                       -794.7663012762936887

    Alert: EFP and PCM quantities not currently incorporated into SCF psivars.
  UHF NO Occupations:
  HONO-2 :    4B1u 1.9971470
  HONO-1 :    2B3u 1.9894457
  HONO-0 :    2B2g 1.0000000
  LUNO+0 :    3B3u 0.0105543
  LUNO+1 :    5B1u 0.0028530
  LUNO+2 :    6 Ag 0.0024784
  LUNO+3 :    3B2u 0.0001137



Properties will be evaluated at   0.000000,   0.000000,   0.000000 Bohr

Properties computed using the SCF density matrix

  Nuclear Dipole Moment: (a.u.)
     X:     0.0000      Y:     0.0000      Z:     0.0000

  Electronic Dipole Moment: (a.u.)
     X:     0.0000      Y:     0.0000      Z:     0.0000

  Dipole Moment: (a.u.)
     X:     0.0000      Y:     0.0000      Z:     0.0000     Total:     0.0000

  Dipole Moment: (Debye)
     X:     0.0000      Y:     0.0000      Z:     0.0000     Total:     0.0000


*** tstop() called on n412-050.vsc4.prov at Sat Oct 31 16:09:37 2020
Module time:
	user time   =    1150.06 seconds =      19.17 minutes
	system time =      58.59 seconds =       0.98 minutes
	total time  =       1181 seconds =      19.68 minutes
Total time:
	user time   =    1150.06 seconds =      19.17 minutes
	system time =      58.59 seconds =       0.98 minutes
	total time  =       1181 seconds =      19.68 minutes

*** tstart() called on n412-050.vsc4.prov
*** at Sat Oct 31 16:09:37 2020


	Wfn Parameters:
	--------------------
	Wavefunction         = CCSD
	Number of irreps     = 8
	Number of MOs        = 396
	Number of active MOs = 386
	AO-Basis             = NONE
	Semicanonical        = false
	Reference            = UHF
	Print Level          = 1

	IRREP	# MOs	# FZDC	# DOCC	# SOCC	# VIRT	# FZVR
	-----	-----	------	------	------	------	------
	 Ag	   70	    3	    2	    0	    65	    0
	 B1g	   32	    0	    0	    0	    32	    0
	 B2g	   48	    1	    0	    1	    46	    0
	 B3g	   48	    1	    0	    0	    47	    0
	 Au	   32	    0	    0	    0	    32	    0
	 B1u	   70	    3	    1	    0	    66	    0
	 B2u	   48	    1	    1	    0	    46	    0
	 B3u	   48	    1	    1	    0	    46	    0
	Transforming integrals...
	IWL integrals will be deleted.
	(OO|OO)...
	Presorting SO-basis two-electron integrals.
	Sorting File: SO Ints (nn|nn) nbuckets = 1
	Transforming the one-electron integrals and constructing Fock matrices
	Starting AA/AB first half-transformation.
	Sorting AA/AB half-transformed integrals.
	Starting BB first half-transformation.
	Sorting BB half-transformed integrals.
	First half integral transformation complete.
	Starting AA second half-transformation.
	Starting AB second half-transformation.
	Starting BB second half-transformation.
	Two-electron integral transformation complete.
	(OO|OV)...
	Starting AA second half-transformation.
	Starting AB second half-transformation.
	Starting BB second half-transformation.
	Two-electron integral transformation complete.
	(OO|VV)...
	Starting AA second half-transformation.
	Starting AB second half-transformation.
	Starting BB second half-transformation.
	Two-electron integral transformation complete.
	(OV|OO)...
	Starting AA/AB first half-transformation.
	Sorting AA/AB half-transformed integrals.
	Starting BB first half-transformation.
	Sorting BB half-transformed integrals.
	First half integral transformation complete.
	Starting AA second half-transformation.
	Starting AB second half-transformation.
	Starting BB second half-transformation.
	Two-electron integral transformation complete.
	(OV|OV)...
	Starting AA second half-transformation.
	Starting AB second half-transformation.
	Starting BB second half-transformation.
	Two-electron integral transformation complete.
	(OV|VV)...
	Starting AA second half-transformation.
	Starting AB second half-transformation.
	Starting BB second half-transformation.
	Two-electron integral transformation complete.
	(VV|OO)...
	Starting AA/AB first half-transformation.
	Sorting AA/AB half-transformed integrals.
	Starting BB first half-transformation.
	Sorting BB half-transformed integrals.
	First half integral transformation complete.
	Starting AA second half-transformation.
	Starting AB second half-transformation.
	Starting BB second half-transformation.
	Two-electron integral transformation complete.
	(VV|OV)...
	Starting AA second half-transformation.
	Starting AB second half-transformation.
	Starting BB second half-transformation.
	Two-electron integral transformation complete.
	(VV|VV)...
	Starting AA second half-transformation.
	Starting AB second half-transformation.
	Starting BB second half-transformation.
	Two-electron integral transformation complete.
	Frozen core energy     =   -837.99612707108565

	Size of irrep 0 of <AB|CD> integrals:     88.416 (MW) /    707.331 (MB)
	Size of irrep 1 of <AB|CD> integrals:     71.741 (MW) /    573.927 (MB)
	Size of irrep 2 of <AB|CD> integrals:     81.036 (MW) /    648.288 (MB)
	Size of irrep 3 of <AB|CD> integrals:     81.631 (MW) /    653.050 (MB)
	Size of irrep 4 of <AB|CD> integrals:     71.741 (MW) /    573.927 (MB)
	Size of irrep 5 of <AB|CD> integrals:     92.006 (MW) /    736.052 (MB)
	Size of irrep 6 of <AB|CD> integrals:     81.649 (MW) /    653.194 (MB)
	Size of irrep 7 of <AB|CD> integrals:     81.036 (MW) /    648.288 (MB)
	Total:                                   649.257 (MW) /   5194.058 (MB)

	Size of irrep 0 of <ab|cd> integrals:     89.284 (MW) /    714.269 (MB)
	Size of irrep 1 of <ab|cd> integrals:     72.539 (MW) /    580.314 (MB)
	Size of irrep 2 of <ab|cd> integrals:     82.210 (MW) /    657.684 (MB)
	Size of irrep 3 of <ab|cd> integrals:     82.210 (MW) /    657.684 (MB)
	Size of irrep 4 of <ab|cd> integrals:     72.522 (MW) /    580.178 (MB)
	Size of irrep 5 of <ab|cd> integrals:     92.891 (MW) /    743.128 (MB)
	Size of irrep 6 of <ab|cd> integrals:     82.229 (MW) /    657.829 (MB)
	Size of irrep 7 of <ab|cd> integrals:     82.229 (MW) /    657.829 (MB)
	Total:                                   656.114 (MW) /   5248.915 (MB)

	Size of irrep 0 of <Ab|Cd> integrals:    369.870 (MW) /   2958.959 (MB)
	Size of irrep 1 of <Ab|Cd> integrals:    288.558 (MW) /   2308.465 (MB)
	Size of irrep 2 of <Ab|Cd> integrals:    326.489 (MW) /   2611.910 (MB)
	Size of irrep 3 of <Ab|Cd> integrals:    327.682 (MW) /   2621.459 (MB)
	Size of irrep 4 of <Ab|Cd> integrals:    288.524 (MW) /   2308.194 (MB)
	Size of irrep 5 of <Ab|Cd> integrals:    369.793 (MW) /   2958.343 (MB)
	Size of irrep 6 of <Ab|Cd> integrals:    327.755 (MW) /   2622.039 (MB)
	Size of irrep 7 of <Ab|Cd> integrals:    326.525 (MW) /   2612.199 (MB)
	Total:                                  2625.196 (MW) /  21001.568 (MB)

	Size of irrep 0 of <IA|BC> integrals:      6.408 (MW) /     51.265 (MB)
	Size of irrep 1 of <IA|BC> integrals:      3.981 (MW) /     31.847 (MB)
	Size of irrep 2 of <IA|BC> integrals:      5.419 (MW) /     43.354 (MB)
	Size of irrep 3 of <IA|BC> integrals:      4.879 (MW) /     39.031 (MB)
	Size of irrep 4 of <IA|BC> integrals:      3.981 (MW) /     31.847 (MB)
	Size of irrep 5 of <IA|BC> integrals:      6.446 (MW) /     51.567 (MB)
	Size of irrep 6 of <IA|BC> integrals:      4.843 (MW) /     38.746 (MB)
	Size of irrep 7 of <IA|BC> integrals:      5.419 (MW) /     43.354 (MB)
	Total:                                    41.376 (MW) /    331.011 (MB)

	Size of irrep 0 of <ia|bc> integrals:      5.552 (MW) /     44.419 (MB)
	Size of irrep 1 of <ia|bc> integrals:      3.202 (MW) /     25.619 (MB)
	Size of irrep 2 of <ia|bc> integrals:      4.316 (MW) /     34.527 (MB)
	Size of irrep 3 of <ia|bc> integrals:      4.316 (MW) /     34.527 (MB)
	Size of irrep 4 of <ia|bc> integrals:      3.236 (MW) /     25.889 (MB)
	Size of irrep 5 of <ia|bc> integrals:      5.609 (MW) /     44.875 (MB)
	Size of irrep 6 of <ia|bc> integrals:      4.280 (MW) /     34.241 (MB)
	Size of irrep 7 of <ia|bc> integrals:      4.280 (MW) /     34.241 (MB)
	Total:                                    34.792 (MW) /    278.337 (MB)

	Size of irrep 0 of <Ia|Bc> integrals:      6.443 (MW) /     51.542 (MB)
	Size of irrep 1 of <Ia|Bc> integrals:      3.992 (MW) /     31.936 (MB)
	Size of irrep 2 of <Ia|Bc> integrals:      5.475 (MW) /     43.799 (MB)
	Size of irrep 3 of <Ia|Bc> integrals:      4.888 (MW) /     39.100 (MB)
	Size of irrep 4 of <Ia|Bc> integrals:      4.009 (MW) /     32.070 (MB)
	Size of irrep 5 of <Ia|Bc> integrals:      6.481 (MW) /     51.844 (MB)
	Size of irrep 6 of <Ia|Bc> integrals:      4.852 (MW) /     38.815 (MB)
	Size of irrep 7 of <Ia|Bc> integrals:      5.457 (MW) /     43.657 (MB)
	Total:                                    41.595 (MW) /    332.763 (MB)

	Size of irrep 0 of <iA|bC> integrals:      5.539 (MW) /     44.311 (MB)
	Size of irrep 1 of <iA|bC> integrals:      3.194 (MW) /     25.548 (MB)
	Size of irrep 2 of <iA|bC> integrals:      4.264 (MW) /     34.114 (MB)
	Size of irrep 3 of <iA|bC> integrals:      4.308 (MW) /     34.466 (MB)
	Size of irrep 4 of <iA|bC> integrals:      3.210 (MW) /     25.683 (MB)
	Size of irrep 5 of <iA|bC> integrals:      5.577 (MW) /     44.614 (MB)
	Size of irrep 6 of <iA|bC> integrals:      4.273 (MW) /     34.180 (MB)
	Size of irrep 7 of <iA|bC> integrals:      4.246 (MW) /     33.972 (MB)
	Total:                                    34.611 (MW) /    276.888 (MB)

	Size of irrep 0 of tIjAb amplitudes:       0.135 (MW) /      1.077 (MB)
	Size of irrep 1 of tIjAb amplitudes:       0.034 (MW) /      0.272 (MB)
	Size of irrep 2 of tIjAb amplitudes:       0.072 (MW) /      0.578 (MB)
	Size of irrep 3 of tIjAb amplitudes:       0.036 (MW) /      0.290 (MB)
	Size of irrep 4 of tIjAb amplitudes:       0.017 (MW) /      0.136 (MB)
	Size of irrep 5 of tIjAb amplitudes:       0.096 (MW) /      0.769 (MB)
	Size of irrep 6 of tIjAb amplitudes:       0.072 (MW) /      0.579 (MB)
	Size of irrep 7 of tIjAb amplitudes:       0.090 (MW) /      0.723 (MB)
	Total:                                     0.553 (MW) /      4.424 (MB)

	Nuclear Rep. energy          =     73.17673004315958
	SCF energy                   =   -794.76630127629369
	One-electron energy          =    -49.66989561503664
	Two-electron (AA) energy     =      4.85409458876798
	Two-electron (BB) energy     =      3.28014355673336
	Two-electron (AB) energy     =     11.58875322116927
	Two-electron energy          =     19.72299136667062
	Reference energy             =   -794.76630127629198

*** tstop() called on n412-050.vsc4.prov at Sat Oct 31 16:25:57 2020
Module time:
	user time   =    5298.20 seconds =      88.30 minutes
	system time =     252.25 seconds =       4.20 minutes
	total time  =        980 seconds =      16.33 minutes
Total time:
	user time   =    6448.27 seconds =     107.47 minutes
	system time =     310.84 seconds =       5.18 minutes
	total time  =       2161 seconds =      36.02 minutes

*** tstart() called on n412-050.vsc4.prov
*** at Sat Oct 31 16:25:57 2020

            **************************
            *                        *
            *        CCENERGY        *
            *                        *
            **************************

    Nuclear Rep. energy (wfn)     =   73.176730043159580
    SCF energy          (wfn)     = -794.766301276293689
    Reference energy    (file100) = -794.766301276291983

    Input parameters:
    -----------------
    Wave function   =     CCSD
    Reference wfn   =     UHF
    Brueckner       =     No
    Memory (Mbytes) =     250000.0
    Maxiter         =     50
    R_Convergence   =     1.0e-07
    E_Convergence   =     1.0e-06
    Restart         =     Yes
    DIIS            =     Yes
    AO Basis        =     NONE
    ABCD            =     NEW
    Cache Level     =     2
    Cache Type      =     LRU
    Print Level     =     1
    Num. of threads =     48
    # Amps to Print =     10
    Print MP2 Amps? =     No
    Analyze T2 Amps =     No
    Print Pair Ener =     No
    Local CC        =     No
    SCS-MP2         =     False
    SCSN-MP2        =     False
    SCS-CCSD        =     False

MP2 correlation energy -0.3605598611009845
                Solving CC Amplitude Equations
                ------------------------------
  Iter             Energy              RMS        T1Diag      D1Diag    New D1Diag    D2Diag
  ----     ---------------------    ---------   ----------  ----------  ----------   --------
     0        -0.360559861100990    0.000e+00    0.000000    0.000000    0.000000    0.000000
     1        -0.356037885635031    9.532e-02    0.019951    0.000000    0.000000    0.000000
     2        -0.369473835715687    3.343e-02    0.021244    0.000000    0.000000    0.000000
     3        -0.372963036395113    1.504e-02    0.025769    0.000000    0.000000    0.000000
     4        -0.372805574423510    3.154e-03    0.026418    0.000000    0.000000    0.000000
     5        -0.372823431131344    1.080e-03    0.026614    0.000000    0.000000    0.000000
     6        -0.372818681442016    2.928e-04    0.026623    0.000000    0.000000    0.000000
     7        -0.372818196567826    7.870e-05    0.026619    0.000000    0.000000    0.000000
     8        -0.372820150146815    2.781e-05    0.026617    0.000000    0.000000    0.000000
     9        -0.372819947745066    8.747e-06    0.026617    0.000000    0.000000    0.000000
    10        -0.372819855009350    3.121e-06    0.026616    0.000000    0.000000    0.000000
    11        -0.372819863478189    9.933e-07    0.026616    0.000000    0.000000    0.000000
    12        -0.372819887144416    3.665e-07    0.026616    0.000000    0.000000    0.000000
    13        -0.372819898440253    1.089e-07    0.026616    0.000000    0.000000    0.000000
    14        -0.372819896894954    3.684e-08    0.026616    0.000000    0.000000    0.000000
    14        -0.372819896894954    3.684e-08    0.026616    0.000000    0.000000    0.000000

    Iterations converged.


    CCSD corr. energy   =   -0.372819896894954
    PPL corr. energy    =    0.120272041535995
    OS PPL corr. energy =    0.100958819434498
    SS PPL corr. energy =    0.019313222101497
    Largest TIA Amplitudes:
              5 335        -0.0277802850
              5 337         0.0241076087
              4 291         0.0208220795
              4 289        -0.0127325656
              4 290         0.0123195400
              3 228         0.0122196369
              4 296        -0.0111624807
              1   2         0.0110318441
              1   5         0.0108919339
              4 294        -0.0107280700

    Largest Tia Amplitudes:
              4 338        -0.0290686936
              2 223         0.0248732536
              3 292         0.0205195922
              4 336         0.0178143062
              2 224         0.0176387069
              4 343         0.0136504742
              3 290        -0.0124128282
              3 291         0.0123649597
              4 337        -0.0112400260
              3 295        -0.0111300254

    Largest TIJAB Amplitudes:
      4   1 222 143         0.0377706446
      4   1 223 143         0.0273386006
      4   2 337 143         0.0258331345
      4   2 335 143        -0.0249953525
      2   1 337 222        -0.0206210572
      2   1 335 222         0.0205397435
      5   4  66   5         0.0173775112
      2   1 337 223        -0.0155255856
      2   1 335 223         0.0149310359
      4   1 226 143         0.0148113195

    Largest Tijab Amplitudes:
      4   3 144  97        -0.0815646685
      4   1 223  97        -0.0375687003
      3   1 223 144         0.0353970040
      4   1 224  97        -0.0328216412
      3   1 224 144         0.0311824721
      4   3  66   5         0.0178302755
      4   1 227  97        -0.0172658654
      3   1 227 144         0.0165878745
      3   2  97  66        -0.0146306042
      3   2 144   5        -0.0143578767

    Largest TIjAb Amplitudes:
      4   3 143 144        -0.2136105219
      4   4 143  97         0.1219187006
      1   1 143 144        -0.0614313786
      3   2 143 144        -0.0576687631
      2   4 337  97         0.0446675963
      1   4 222  97         0.0417040213
      2   4 335  97        -0.0399952234
      1   3 222 144        -0.0399257181
      5   4 143 144        -0.0382437922
      1   1 222 223        -0.0377065154

    SCF energy       (wfn)                    = -794.766301276293689
    Reference energy (file100)                = -794.766301276291983

    Opposite-spin MP2 correlation energy      =   -0.276785229003135
    Same-spin MP2 correlation energy          =   -0.083774632097743
    MP2 correlation energy                    =   -0.360559861100984
      * MP2 total energy                      = -795.126861137393007

    Opposite-spin CCSD correlation energy     =   -0.298125138794142
    Same-spin CCSD correlation energy         =   -0.074694756383272
    CCSD correlation energy                   =   -0.372819896894954
      * CCSD total energy                     = -795.139121173186936


*** tstop() called on n412-050.vsc4.prov at Sat Oct 31 16:42:27 2020
Module time:
	user time   =    8334.77 seconds =     138.91 minutes
	system time =     512.53 seconds =       8.54 minutes
	total time  =        990 seconds =      16.50 minutes
Total time:
	user time   =   14783.04 seconds =     246.38 minutes
	system time =     823.37 seconds =      13.72 minutes
	total time  =       3151 seconds =      52.52 minutes

*** Psi4 exiting successfully. Buy a developer a beer!
