
    -----------------------------------------------------------------------
          Psi4: An Open-Source Ab Initio Electronic Structure Package
                               Psi4 1.2a1.dev938 

                         Git: Rev {HEAD} fc51d9a dirty


    R. M. Parrish, L. A. Burns, D. G. A. Smith, A. C. Simmonett,
    A. E. DePrince III, E. G. Hohenstein, U. Bozkaya, A. Yu. Sokolov,
    R. Di Remigio, R. M. Richard, J. F. Gonthier, A. M. James,
    H. R. McAlexander, A. Kumar, M. Saitow, X. Wang, B. P. Pritchard,
    P. Verma, H. F. Schaefer III, K. Patkowski, R. A. King, E. F. Valeev,
    F. A. Evangelista, J. M. Turney, T. D. Crawford, and C. D. Sherrill,
    J. Chem. Theory Comput. 13(7) pp 3185--3197 (2017).
    (doi: 10.1021/acs.jctc.7b00174)

    -----------------------------------------------------------------------


    Psi4 started on: Thursday, 20 August 2020 09:51PM

    Process ID: 424997
    PSIDATADIR: /home/irmler/Programs/psi4/beforeGrueneis3/stage/usr/local/psi4/share/psi4
    Memory:     500.0 MiB
    Threads:    4
    
  ==> Input File <==

--------------------------------------------------------------------------
# Any line starting with the # character is a comment line
memory 250000 mb
molecule molecule{
1 2
S          0.0000000000        0.0000000000        0.9256314495
S          0.0000000000        0.0000000000       -0.9256314495
}

set {
  reference uhf
  basis aug-cc-pv(q+d)z
  scf_type OUT_OF_CORE
  freeze_core true
}

energy('ccsd')
--------------------------------------------------------------------------

  Memory set to 232.831 GiB by Python driver.

*** tstart() called on cqc05
*** at Thu Aug 20 21:51:44 2020

   => Loading Basis Set <=

    Name: AUG-CC-PV(Q+D)Z
    Role: ORBITAL
    Keyword: BASIS
    atoms 1-2 entry S          line  1148 file /home/irmler/Programs/psi4/beforeGrueneis3/stage/usr/local/psi4/share/psi4/basis/aug-cc-pv_qpd_z.gbs 


         ---------------------------------------------------------
                                   SCF
            by Justin Turney, Rob Parrish, Andy Simmonett
                             and Daniel Smith
                              UHF Reference
                        4 Threads, 238418 MiB Core
         ---------------------------------------------------------

  ==> Geometry <==

    Molecular point group: d2h
    Full point group: D_inf_h

    Geometry (in Angstrom), charge = 1, multiplicity = 2:

       Center              X                  Y                   Z               Mass       
    ------------   -----------------  -----------------  -----------------  -----------------
           S          0.000000000000     0.000000000000     0.925631449500    31.972070999000
           S          0.000000000000     0.000000000000    -0.925631449500    31.972070999000

  Running in d2h symmetry.

  Rotational constants: A = ************  B =      0.30769  C =      0.30769 [cm^-1]
  Rotational constants: A = ************  B =   9224.44462  C =   9224.44462 [MHz]
  Nuclear repulsion =   73.176730043159580

  Charge       = 1
  Multiplicity = 2
  Electrons    = 31
  Nalpha       = 16
  Nbeta        = 15

  ==> Algorithm <==

  SCF Algorithm Type is OUT_OF_CORE.
  DIIS enabled.
  MOM disabled.
  Fractional occupation disabled.
  Guess Type is GWH.
  Energy threshold   = 1.00e-08
  Density threshold  = 1.00e-08
  Integral threshold = 0.00e+00

  ==> Primary Basis <==

  Basis Set: AUG-CC-PV(Q+D)Z
    Blend: AUG-CC-PV(Q+D)Z
    Number of shells: 46
    Number of basis function: 178
    Number of Cartesian functions: 230
    Spherical Harmonics?: true
    Max angular momentum: 4

  ==> Pre-Iterations <==

   -------------------------------------------------------
    Irrep   Nso     Nmo     Nalpha   Nbeta   Ndocc  Nsocc
   -------------------------------------------------------
     Ag        35      35       0       0       0       0
     B1g       12      12       0       0       0       0
     B2g       21      21       0       0       0       0
     B3g       21      21       0       0       0       0
     Au        12      12       0       0       0       0
     B1u       35      35       0       0       0       0
     B2u       21      21       0       0       0       0
     B3u       21      21       0       0       0       0
   -------------------------------------------------------
    Total     178     178      16      15      15       1
   -------------------------------------------------------

  ==> Integral Setup <==

  ==> DiskJK: Disk-Based J/K Matrices <==

    J tasked:                  Yes
    K tasked:                  Yes
    wK tasked:                  No
    Memory (MB):            178813
    Schwarz Cutoff:          1E-12

  Minimum eigenvalue in the overlap matrix is 4.8950334472E-05.
  Using Symmetric Orthogonalization.

  SCF Guess: Generalized Wolfsberg-Helmholtz.

  ==> Iterations <==

                        Total Energy        Delta E     RMS |[F,P]|

    Occupation by irrep:
             Ag   B1g   B2g   B3g    Au   B1u   B2u   B3u 
    DOCC [     5,    0,    1,    1,    0,    4,    2,    2 ]
    SOCC [     0,    0,    1,    0,    0,    0,    0,    0 ]

   @UHF iter   1:  -781.23577482002133   -7.81236e+02   1.41838e-01 
   @UHF iter   2:  -794.34943555485404   -1.31137e+01   1.88394e-02 DIIS
   @UHF iter   3:  -794.72976204410907   -3.80326e-01   6.83440e-03 DIIS
   @UHF iter   4:  -794.75970385155483   -2.99418e-02   1.61024e-03 DIIS
   @UHF iter   5:  -794.76374048870855   -4.03664e-03   5.52079e-04 DIIS
   @UHF iter   6:  -794.76462863436745   -8.88146e-04   1.54670e-04 DIIS
   @UHF iter   7:  -794.76469882817923   -7.01938e-05   3.95354e-05 DIIS
   @UHF iter   8:  -794.76470301713164   -4.18895e-06   1.04599e-05 DIIS
   @UHF iter   9:  -794.76470332491488   -3.07783e-07   2.10720e-06 DIIS
   @UHF iter  10:  -794.76470333843474   -1.35199e-08   6.06240e-07 DIIS
   @UHF iter  11:  -794.76470333963584   -1.20110e-09   1.73581e-07 DIIS
   @UHF iter  12:  -794.76470333972190   -8.60609e-11   2.76947e-08 DIIS
   @UHF iter  13:  -794.76470333972429   -2.38742e-12   5.53291e-09 DIIS

  ==> Post-Iterations <==

   @Spin Contamination Metric:   3.174174279E-02
   @S^2 Expected:                7.500000000E-01
   @S^2 Observed:                7.817417428E-01
   @S   Expected:                5.000000000E-01
   @S   Observed:                5.000000000E-01

    Orbital Energies (a.u.)
    -----------------------

    Alpha Occupied:                                                       

       1Ag   -92.348057     1B1u  -92.348052     2Ag    -9.342349  
       2B1u   -9.341842     1B3u   -7.030184     1B2g   -7.030104  
       1B2u   -7.019643     1B3g   -7.019518     3Ag    -7.019449  
       3B1u   -7.018150     4Ag    -1.403885     4B1u   -1.114875  
       2B3u   -0.826314     5Ag    -0.819512     2B2u   -0.744889  
       2B2g   -0.658729  

    Alpha Virtual:                                                        

       2B3g   -0.314160     5B1u   -0.118268     6Ag    -0.097695  
       3B2u   -0.070466     3B3u   -0.067550     7Ag    -0.053106  
       6B1u   -0.050387     3B2g   -0.031501     3B3g   -0.030430  
       1B1g   -0.023504     8Ag    -0.023218     4B3u    0.031939  
       7B1u    0.034216     4B2u    0.043592     9Ag     0.066636  
       1Au     0.079654     8B1u    0.079845     4B2g    0.118119  
       4B3g    0.121304     9B1u    0.130233     5B2u    0.170876  
       5B3u    0.176425    10Ag     0.211339     2B1g    0.222864  
      11Ag     0.223072     6B3u    0.227844     6B2u    0.246414  
      12Ag     0.277459    10B1u    0.285566     5B2g    0.300813  
       5B3g    0.304726     7B3u    0.305470     7B2u    0.305505  
       2Au     0.320607    11B1u    0.321091    13Ag     0.371633  
       3B1g    0.409791    14Ag     0.410048     6B2g    0.412296  
       6B3g    0.416578     7B2g    0.433672     7B3g    0.433683  
      12B1u    0.487269     8B2u    0.562266     8B3u    0.564686  
      13B1u    0.576713     3Au     0.576783    14B1u    0.628434  
      15Ag     0.685936     8B2g    0.725129     8B3g    0.729536  
      15B1u    0.839230     9B2u    0.957389     9B3u    0.967917  
      16Ag     0.990252     4B1g    0.990496    17Ag     1.063775  
       4Au     1.098293    16B1u    1.098413     9B2g    1.112364  
       9B3g    1.118199    10B3u    1.130023    10B2u    1.130023  
       5B1g    1.140440    18Ag     1.140442    19Ag     1.148017  
      17B1u    1.160072     6B1g    1.164112    20Ag     1.164496  
      11B3u    1.242659    11B2u    1.247148    12B3u    1.258148  
      12B2u    1.258675    10B2g    1.304343    10B3g    1.304344  
      18B1u    1.315825     5Au     1.315825    13B3u    1.339981  
      13B2u    1.340085    19B1u    1.394091     6Au     1.394202  
      11B3g    1.454665    11B2g    1.462483    21Ag     1.464481  
      20B1u    1.497912    12B3g    1.510809    12B2g    1.517114  
       7B1g    1.517818    22Ag     1.518471    13B3g    1.583911  
      13B2g    1.583943    21B1u    1.881352    14B2u    1.916607  
      14B3u    1.924231    22B1u    2.022973     7Au     2.024552  
      23Ag     2.028460    23B1u    2.053985    14B3g    2.357686  
      14B2g    2.362291    24B1u    2.527901    24Ag     2.536905  
       8B1g    2.730888    25Ag     2.730919    15B2u    2.805484  
      15B3u    2.817591     8Au     2.825465    25B1u    2.825661  
      26Ag     3.007940    27Ag     3.163180    15B3g    3.239496  
       9B1g    3.250371    28Ag     3.250760    15B2g    3.251554  
      16B2u    3.264816    16B3u    3.276278    17B2u    3.338545  
      17B3u    3.338553    16B3g    3.404551    16B2g    3.404552  
      18B2u    3.434204    18B3u    3.434206    10B1g    3.491029  
      29Ag     3.491029    11B1g    3.510629    30Ag     3.510645  
      26B1u    3.521127     9Au     3.570177    27B1u    3.570177  
      10Au     3.594841    28B1u    3.595263    17B3g    3.661452  
      17B2g    3.671213    18B3g    3.746730    18B2g    3.746737  
      19B2u    3.833953    19B3u    3.844801    29B1u    3.955062  
      31Ag     4.073944    11Au     4.108387    30B1u    4.108851  
      19B3g    4.575820    19B2g    4.588159    31B1u    4.868443  
      20B2u    5.369684    20B3u    5.375028    20B3g    6.045381  
      20B2g    6.053574    32Ag     6.770257    32B1u    6.990508  
      33Ag     8.914665    12B1g    8.914715    33B1u    8.988282  
      12Au     8.988340    21B2u    9.038775    21B3u    9.047860  
      21B3g    9.406171    21B2g    9.415569    34Ag     9.421099  
      34B1u    9.464894    35Ag    18.114970    35B1u   20.573286  

    Beta Occupied:                                                        

       1Ag   -92.341943     1B1u  -92.341937     2Ag    -9.335731  
       2B1u   -9.335161     3Ag    -7.016701     1B2u   -7.016339  
       1B3g   -7.016210     3B1u   -7.015367     1B3u   -7.002721  
       1B2g   -7.002590     4Ag    -1.372987     4B1u   -1.040478  
       5Ag    -0.797829     2B2u   -0.738717     2B3u   -0.706617  

    Beta Virtual:                                                         

       2B3g   -0.301969     2B2g   -0.259021     5B1u   -0.108477  
       6Ag    -0.097719     3B2u   -0.070365     3B3u   -0.065866  
       7Ag    -0.052375     6B1u   -0.045718     3B3g   -0.029944  
       3B2g   -0.026182     1B1g   -0.016684     8Ag    -0.016211  
       7B1u    0.036103     4B2u    0.043478     4B3u    0.056682  
       9Ag     0.069903     1Au     0.087852     8B1u    0.088157  
       4B3g    0.122151     4B2g    0.127894     9B1u    0.133256  
       5B2u    0.171148     5B3u    0.180831    10Ag     0.211341  
       2B1g    0.237259    11Ag     0.238746     6B2u    0.247850  
       6B3u    0.267611    12Ag     0.282522    10B1u    0.288453  
       5B3g    0.306342     7B2u    0.306894     7B3u    0.306905  
       5B2g    0.318073     2Au     0.352006    11B1u    0.352337  
      13Ag     0.376139     3B1g    0.415393    14Ag     0.416610  
       6B3g    0.416864     6B2g    0.430166     7B3g    0.437244  
       7B2g    0.437379    12B1u    0.492969     8B2u    0.562831  
       8B3u    0.572235    13B1u    0.583803     3Au     0.583971  
      14B1u    0.633825    15Ag     0.697328     8B3g    0.731172  
       8B2g    0.747578    15B1u    0.843782     9B2u    0.957461  
       9B3u    0.972195     4B1g    1.006114    16Ag     1.006683  
      17Ag     1.063289    16B1u    1.116148     4Au     1.118115  
       9B3g    1.120726    10B2u    1.132532    10B3u    1.132558  
      18Ag     1.144009     5B1g    1.144011     9B2g    1.144559  
      19Ag     1.150329    17B1u    1.171431     6B1g    1.175457  
      20Ag     1.176666    11B2u    1.250230    11B3u    1.267268  
      12B2u    1.272474    12B3u    1.283121     5Au     1.321654  
      18B1u    1.321654    10B3g    1.321894    10B2g    1.321915  
      13B2u    1.340869    13B3u    1.358361    19B1u    1.402238  
       6Au     1.402786    11B3g    1.454769    21Ag     1.467066  
      11B2g    1.469895    20B1u    1.503768    12B3g    1.513161  
       7B1g    1.521924    22Ag     1.523613    12B2g    1.532839  
      13B3g    1.588652    13B2g    1.588794    21B1u    1.886756  
      14B2u    1.917566    14B3u    1.935446    22B1u    2.027775  
       7Au     2.031941    23Ag     2.043220    23B1u    2.062266  
      14B3g    2.359868    14B2g    2.382938    24B1u    2.537226  
      24Ag     2.539990     8B1g    2.741562    25Ag     2.742032  
      15B2u    2.806613    15B3u    2.827509     8Au     2.836240  
      25B1u    2.837418    26Ag     3.010318    27Ag     3.168374  
      15B3g    3.240761     9B1g    3.255236    28Ag     3.256587  
      16B2u    3.265573    15B2g    3.265581    16B3u    3.282493  
      17B2u    3.358233    17B3u    3.358303    16B3g    3.424766  
      16B2g    3.424793    18B2u    3.444699    18B3u    3.444717  
      10B1g    3.506619    29Ag     3.506632    11B1g    3.523522  
      30Ag     3.523831    26B1u    3.524592     9Au     3.585967  
      27B1u    3.585975    10Au     3.606452    28B1u    3.608923  
      17B3g    3.662706    17B2g    3.683557    18B3g    3.757682  
      18B2g    3.757718    19B2u    3.834946    19B3u    3.860045  
      29B1u    3.960169    31Ag     4.078093    11Au     4.115914  
      30B1u    4.117439    19B3g    4.576627    19B2g    4.597266  
      31B1u    4.871161    20B2u    5.373256    20B3u    5.401596  
      20B3g    6.048683    20B2g    6.076777    32Ag     6.772656  
      32B1u    6.993227    33Ag     8.922114    12B1g    8.922250  
      33B1u    8.995888    12Au     8.996046    21B2u    9.039813  
      21B3u    9.055070    21B3g    9.407279    21B2g    9.423070  
      34Ag     9.425362    34B1u    9.468843    35Ag    18.122140  
      35B1u   20.579734  

    Final Occupation by Irrep:
             Ag   B1g   B2g   B3g    Au   B1u   B2u   B3u 
    DOCC [     5,    0,    1,    1,    0,    4,    2,    2 ]
    SOCC [     0,    0,    1,    0,    0,    0,    0,    0 ]

  Energy converged.

  @UHF Final Energy:  -794.76470333972429

   => Energetics <=

    Nuclear Repulsion Energy =             73.1767300431595800
    One-Electron Energy =               -1234.7159866435597451
    Two-Electron Energy =                 366.7745532606759866
    PCM Polarization Energy =               0.0000000000000000
    Total Energy =                       -794.7647033397242922

    Alert: EFP and PCM quantities not currently incorporated into SCF psivars.
  UHF NO Occupations:
  HONO-2 :    4B1u 1.9971637
  HONO-1 :    2B3u 1.9895436
  HONO-0 :    2B2g 1.0000000
  LUNO+0 :    3B3u 0.0104564
  LUNO+1 :    5B1u 0.0028363
  LUNO+2 :    6 Ag 0.0024558
  LUNO+3 :    3B2u 0.0001132



Properties will be evaluated at   0.000000,   0.000000,   0.000000 Bohr

Properties computed using the SCF density matrix

  Nuclear Dipole Moment: (a.u.)
     X:     0.0000      Y:     0.0000      Z:     0.0000

  Electronic Dipole Moment: (a.u.)
     X:     0.0000      Y:     0.0000      Z:     0.0000

  Dipole Moment: (a.u.)
     X:     0.0000      Y:     0.0000      Z:     0.0000     Total:     0.0000

  Dipole Moment: (Debye)
     X:     0.0000      Y:     0.0000      Z:     0.0000     Total:     0.0000


*** tstop() called on cqc05 at Thu Aug 20 21:52:00 2020
Module time:
	user time   =      15.97 seconds =       0.27 minutes
	system time =       0.69 seconds =       0.01 minutes
	total time  =         16 seconds =       0.27 minutes
Total time:
	user time   =      15.97 seconds =       0.27 minutes
	system time =       0.69 seconds =       0.01 minutes
	total time  =         16 seconds =       0.27 minutes

*** tstart() called on cqc05
*** at Thu Aug 20 21:52:00 2020


	Wfn Parameters:
	--------------------
	Wavefunction         = CCSD
	Number of irreps     = 8
	Number of MOs        = 178
	Number of active MOs = 168
	AO-Basis             = NONE
	Semicanonical        = false
	Reference            = UHF
	Print Level          = 1

	IRREP	# MOs	# FZDC	# DOCC	# SOCC	# VIRT	# FZVR
	-----	-----	------	------	------	------	------
	 Ag	   35	    3	    2	    0	    30	    0
	 B1g	   12	    0	    0	    0	    12	    0
	 B2g	   21	    1	    0	    1	    19	    0
	 B3g	   21	    1	    0	    0	    20	    0
	 Au	   12	    0	    0	    0	    12	    0
	 B1u	   35	    3	    1	    0	    31	    0
	 B2u	   21	    1	    1	    0	    19	    0
	 B3u	   21	    1	    1	    0	    19	    0
	Transforming integrals...
	IWL integrals will be deleted.
	(OO|OO)...
	Presorting SO-basis two-electron integrals.
	Sorting File: SO Ints (nn|nn) nbuckets = 1
	Transforming the one-electron integrals and constructing Fock matrices
	Starting AA/AB first half-transformation.
	Sorting AA/AB half-transformed integrals.
	Starting BB first half-transformation.
	Sorting BB half-transformed integrals.
	First half integral transformation complete.
	Starting AA second half-transformation.
	Starting AB second half-transformation.
	Starting BB second half-transformation.
	Two-electron integral transformation complete.
	(OO|OV)...
	Starting AA second half-transformation.
	Starting AB second half-transformation.
	Starting BB second half-transformation.
	Two-electron integral transformation complete.
	(OO|VV)...
	Starting AA second half-transformation.
	Starting AB second half-transformation.
	Starting BB second half-transformation.
	Two-electron integral transformation complete.
	(OV|OO)...
	Starting AA/AB first half-transformation.
	Sorting AA/AB half-transformed integrals.
	Starting BB first half-transformation.
	Sorting BB half-transformed integrals.
	First half integral transformation complete.
	Starting AA second half-transformation.
	Starting AB second half-transformation.
	Starting BB second half-transformation.
	Two-electron integral transformation complete.
	(OV|OV)...
	Starting AA second half-transformation.
	Starting AB second half-transformation.
	Starting BB second half-transformation.
	Two-electron integral transformation complete.
	(OV|VV)...
	Starting AA second half-transformation.
	Starting AB second half-transformation.
	Starting BB second half-transformation.
	Two-electron integral transformation complete.
	(VV|OO)...
	Starting AA/AB first half-transformation.
	Sorting AA/AB half-transformed integrals.
	Starting BB first half-transformation.
	Sorting BB half-transformed integrals.
	First half integral transformation complete.
	Starting AA second half-transformation.
	Starting AB second half-transformation.
	Starting BB second half-transformation.
	Two-electron integral transformation complete.
	(VV|OV)...
	Starting AA second half-transformation.
	Starting AB second half-transformation.
	Starting BB second half-transformation.
	Two-electron integral transformation complete.
	(VV|VV)...
	Starting AA second half-transformation.
	Starting AB second half-transformation.
	Starting BB second half-transformation.
	Two-electron integral transformation complete.
	Frozen core energy     =   -837.99520093176704

	Size of irrep 0 of <AB|CD> integrals:      3.010 (MW) /     24.082 (MB)
	Size of irrep 1 of <AB|CD> integrals:      2.170 (MW) /     17.358 (MB)
	Size of irrep 2 of <AB|CD> integrals:      2.647 (MW) /     21.177 (MB)
	Size of irrep 3 of <AB|CD> integrals:      2.706 (MW) /     21.648 (MB)
	Size of irrep 4 of <AB|CD> integrals:      2.170 (MW) /     17.358 (MB)
	Size of irrep 5 of <AB|CD> integrals:      3.294 (MW) /     26.354 (MB)
	Size of irrep 6 of <AB|CD> integrals:      2.709 (MW) /     21.675 (MB)
	Size of irrep 7 of <AB|CD> integrals:      2.647 (MW) /     21.177 (MB)
	Total:                                    21.354 (MW) /    170.828 (MB)

	Size of irrep 0 of <ab|cd> integrals:      3.077 (MW) /     24.612 (MB)
	Size of irrep 1 of <ab|cd> integrals:      2.229 (MW) /     17.832 (MB)
	Size of irrep 2 of <ab|cd> integrals:      2.746 (MW) /     21.965 (MB)
	Size of irrep 3 of <ab|cd> integrals:      2.746 (MW) /     21.965 (MB)
	Size of irrep 4 of <ab|cd> integrals:      2.226 (MW) /     17.809 (MB)
	Size of irrep 5 of <ab|cd> integrals:      3.364 (MW) /     26.908 (MB)
	Size of irrep 6 of <ab|cd> integrals:      2.749 (MW) /     21.992 (MB)
	Size of irrep 7 of <ab|cd> integrals:      2.749 (MW) /     21.992 (MB)
	Total:                                    21.884 (MW) /    175.075 (MB)

	Size of irrep 0 of <Ab|Cd> integrals:     13.330 (MW) /    106.638 (MB)
	Size of irrep 1 of <Ab|Cd> integrals:      8.797 (MW) /     70.377 (MB)
	Size of irrep 2 of <Ab|Cd> integrals:     10.785 (MW) /     86.277 (MB)
	Size of irrep 3 of <Ab|Cd> integrals:     10.903 (MW) /     87.226 (MB)
	Size of irrep 4 of <Ab|Cd> integrals:      8.791 (MW) /     70.330 (MB)
	Size of irrep 5 of <Ab|Cd> integrals:     13.315 (MW) /    106.522 (MB)
	Size of irrep 6 of <Ab|Cd> integrals:     10.916 (MW) /     87.331 (MB)
	Size of irrep 7 of <Ab|Cd> integrals:     10.791 (MW) /     86.330 (MB)
	Total:                                    87.629 (MW) /    701.031 (MB)

	Size of irrep 0 of <IA|BC> integrals:      0.538 (MW) /      4.300 (MB)
	Size of irrep 1 of <IA|BC> integrals:      0.277 (MW) /      2.215 (MB)
	Size of irrep 2 of <IA|BC> integrals:      0.423 (MW) /      3.384 (MB)
	Size of irrep 3 of <IA|BC> integrals:      0.375 (MW) /      3.000 (MB)
	Size of irrep 4 of <IA|BC> integrals:      0.277 (MW) /      2.215 (MB)
	Size of irrep 5 of <IA|BC> integrals:      0.544 (MW) /      4.356 (MB)
	Size of irrep 6 of <IA|BC> integrals:      0.369 (MW) /      2.950 (MB)
	Size of irrep 7 of <IA|BC> integrals:      0.423 (MW) /      3.384 (MB)
	Total:                                     3.226 (MW) /     25.806 (MB)

	Size of irrep 0 of <ia|bc> integrals:      0.474 (MW) /      3.788 (MB)
	Size of irrep 1 of <ia|bc> integrals:      0.221 (MW) /      1.768 (MB)
	Size of irrep 2 of <ia|bc> integrals:      0.338 (MW) /      2.704 (MB)
	Size of irrep 3 of <ia|bc> integrals:      0.338 (MW) /      2.704 (MB)
	Size of irrep 4 of <ia|bc> integrals:      0.227 (MW) /      1.814 (MB)
	Size of irrep 5 of <ia|bc> integrals:      0.484 (MW) /      3.873 (MB)
	Size of irrep 6 of <ia|bc> integrals:      0.332 (MW) /      2.653 (MB)
	Size of irrep 7 of <ia|bc> integrals:      0.332 (MW) /      2.653 (MB)
	Total:                                     2.745 (MW) /     21.958 (MB)

	Size of irrep 0 of <Ia|Bc> integrals:      0.544 (MW) /      4.352 (MB)
	Size of irrep 1 of <Ia|Bc> integrals:      0.279 (MW) /      2.230 (MB)
	Size of irrep 2 of <Ia|Bc> integrals:      0.433 (MW) /      3.468 (MB)
	Size of irrep 3 of <Ia|Bc> integrals:      0.376 (MW) /      3.011 (MB)
	Size of irrep 4 of <Ia|Bc> integrals:      0.282 (MW) /      2.253 (MB)
	Size of irrep 5 of <Ia|Bc> integrals:      0.551 (MW) /      4.408 (MB)
	Size of irrep 6 of <Ia|Bc> integrals:      0.370 (MW) /      2.960 (MB)
	Size of irrep 7 of <Ia|Bc> integrals:      0.430 (MW) /      3.443 (MB)
	Total:                                     3.266 (MW) /     26.126 (MB)

	Size of irrep 0 of <iA|bC> integrals:      0.471 (MW) /      3.768 (MB)
	Size of irrep 1 of <iA|bC> integrals:      0.219 (MW) /      1.756 (MB)
	Size of irrep 2 of <iA|bC> integrals:      0.328 (MW) /      2.627 (MB)
	Size of irrep 3 of <iA|bC> integrals:      0.337 (MW) /      2.694 (MB)
	Size of irrep 4 of <iA|bC> integrals:      0.222 (MW) /      1.779 (MB)
	Size of irrep 5 of <iA|bC> integrals:      0.478 (MW) /      3.824 (MB)
	Size of irrep 6 of <iA|bC> integrals:      0.330 (MW) /      2.643 (MB)
	Size of irrep 7 of <iA|bC> integrals:      0.325 (MW) /      2.602 (MB)
	Total:                                     2.712 (MW) /     21.693 (MB)

	Size of irrep 0 of tIjAb amplitudes:       0.026 (MW) /      0.204 (MB)
	Size of irrep 1 of tIjAb amplitudes:       0.006 (MW) /      0.047 (MB)
	Size of irrep 2 of tIjAb amplitudes:       0.013 (MW) /      0.105 (MB)
	Size of irrep 3 of tIjAb amplitudes:       0.007 (MW) /      0.053 (MB)
	Size of irrep 4 of tIjAb amplitudes:       0.003 (MW) /      0.024 (MB)
	Size of irrep 5 of tIjAb amplitudes:       0.018 (MW) /      0.146 (MB)
	Size of irrep 6 of tIjAb amplitudes:       0.013 (MW) /      0.106 (MB)
	Size of irrep 7 of tIjAb amplitudes:       0.016 (MW) /      0.131 (MB)
	Total:                                     0.102 (MW) /      0.817 (MB)

	Nuclear Rep. energy          =     73.17673004315958
	SCF energy                   =   -794.76470333972429
	One-electron energy          =    -49.66763378139984
	Two-electron (AA) energy     =      4.85382679171741
	Two-electron (BB) energy     =      3.27979510179326
	Two-electron (AB) energy     =     11.58777943677232
	Two-electron energy          =     19.72140133028299
	Reference energy             =   -794.76470333972429

*** tstop() called on cqc05 at Thu Aug 20 21:52:16 2020
Module time:
	user time   =       9.15 seconds =       0.15 minutes
	system time =       6.41 seconds =       0.11 minutes
	total time  =         16 seconds =       0.27 minutes
Total time:
	user time   =      25.12 seconds =       0.42 minutes
	system time =       7.10 seconds =       0.12 minutes
	total time  =         32 seconds =       0.53 minutes

*** tstart() called on cqc05
*** at Thu Aug 20 21:52:16 2020

            **************************
            *                        *
            *        CCENERGY        *
            *                        *
            **************************

    Nuclear Rep. energy (wfn)     =   73.176730043159580
    SCF energy          (wfn)     = -794.764703339724292
    Reference energy    (file100) = -794.764703339724292

    Input parameters:
    -----------------
    Wave function   =     CCSD
    Reference wfn   =     UHF
    Brueckner       =     No
    Memory (Mbytes) =     250000.0
    Maxiter         =     50
    R_Convergence   =     1.0e-07
    E_Convergence   =     1.0e-06
    Restart         =     Yes
    DIIS            =     Yes
    AO Basis        =     NONE
    ABCD            =     NEW
    Cache Level     =     2
    Cache Type      =     LRU
    Print Level     =     1
    Num. of threads =     4
    # Amps to Print =     10
    Print MP2 Amps? =     No
    Analyze T2 Amps =     No
    Print Pair Ener =     No
    Local CC        =     No
    SCS-MP2         =     False
    SCSN-MP2        =     False
    SCS-CCSD        =     False

MP2 correlation energy -0.3449076246051356
                Solving CC Amplitude Equations
                ------------------------------
  Iter             Energy              RMS        T1Diag      D1Diag    New D1Diag    D2Diag
  ----     ---------------------    ---------   ----------  ----------  ----------   --------
     0        -0.344907624605136    0.000e+00    0.000000    0.000000    0.000000    0.000000
     1        -0.346823244563472    9.474e-02    0.019653    0.000000    0.000000    0.000000
     2        -0.359735043953348    3.265e-02    0.021227    0.000000    0.000000    0.000000
     3        -0.363063970622558    1.484e-02    0.025664    0.000000    0.000000    0.000000
     4        -0.362988860975581    3.190e-03    0.026352    0.000000    0.000000    0.000000
     5        -0.362994589235730    1.013e-03    0.026518    0.000000    0.000000    0.000000
     6        -0.362984258039408    2.937e-04    0.026524    0.000000    0.000000    0.000000
     7        -0.362986445205593    7.851e-05    0.026519    0.000000    0.000000    0.000000
     8        -0.362988235788464    2.679e-05    0.026518    0.000000    0.000000    0.000000
     9        -0.362987789094473    8.790e-06    0.026517    0.000000    0.000000    0.000000
    10        -0.362987773007509    3.019e-06    0.026517    0.000000    0.000000    0.000000
    11        -0.362987758765473    9.493e-07    0.026517    0.000000    0.000000    0.000000
    12        -0.362987797755098    3.578e-07    0.026517    0.000000    0.000000    0.000000
    13        -0.362987801838133    1.085e-07    0.026517    0.000000    0.000000    0.000000
    14        -0.362987801501341    3.652e-08    0.026517    0.000000    0.000000    0.000000
    14        -0.362987801501341    3.652e-08    0.026517    0.000000    0.000000    0.000000

    Iterations converged.


    CCSD corr. energy   =   -0.362987801501341
    PPL corr. energy    =    0.113222552321366
    OS PPL corr. energy =    0.094325227582443
    SS PPL corr. energy =    0.018897324738924
    Largest TIA Amplitudes:
              5 144        -0.0300587485
              4 127        -0.0228731074
              5 146         0.0200061695
              4 125         0.0174741897
              3  99        -0.0131500261
              1   2         0.0119169207
              1   5        -0.0118255977
              1   7        -0.0090848253
              4 126        -0.0087576738
              3  96         0.0085537429

    Largest Tia Amplitudes:
              4 147        -0.0299031268
              2  94        -0.0248359581
              4 145         0.0237634824
              3 128        -0.0225555276
              2  95         0.0182066697
              3 126         0.0170524216
              4 149        -0.0092684227
              2  98         0.0090872107
              3 127        -0.0088310759
              3 130        -0.0076651945

    Largest TIJAB Amplitudes:
      4   1  93  61         0.0379859124
      4   1  94  61         0.0288329151
      4   2 144  61         0.0283421240
      4   2 146  61        -0.0246232281
      2   1 144  93        -0.0230760481
      2   1 146  93         0.0189766236
      2   1 144  94        -0.0176914541
      5   4  31   5         0.0170366014
      4   1  97  61         0.0160730337
      5   4  31   2        -0.0158314453

    Largest Tijab Amplitudes:
      4   3  62  42         0.0818169043
      4   1  94  42        -0.0380583800
      3   1  94  62        -0.0358039992
      4   1  95  42         0.0345810630
      3   1  95  62         0.0328248693
      4   1  98  42         0.0185072695
      3   1  98  62         0.0177473903
      4   3  31   5         0.0176526495
      4   2  42   5        -0.0157196699
      4   3  31   2        -0.0153547163

    Largest TIjAb Amplitudes:
      4   3  61  62        -0.2153304315
      4   4  61  42        -0.1226770773
      1   1  61  62        -0.0617955213
      3   2  61  62        -0.0578175695
      2   4 144  42        -0.0463692082
      2   4 146  42         0.0443795027
      1   4  93  42        -0.0421375873
      1   3  93  62        -0.0402859674
      5   4  61  62        -0.0385935894
      1   1  93  94         0.0384012133

    SCF energy       (wfn)                    = -794.764703339724292
    Reference energy (file100)                = -794.764703339724292

    Opposite-spin MP2 correlation energy      =   -0.262430091329886
    Same-spin MP2 correlation energy          =   -0.082477533275238
    MP2 correlation energy                    =   -0.344907624605136
      * MP2 total energy                      = -795.109610964329477

    Opposite-spin CCSD correlation energy     =   -0.289288116492540
    Same-spin CCSD correlation energy         =   -0.073699683785463
    CCSD correlation energy                   =   -0.362987801501341
      * CCSD total energy                     = -795.127691141225682


*** tstop() called on cqc05 at Thu Aug 20 21:52:29 2020
Module time:
	user time   =       6.22 seconds =       0.10 minutes
	system time =       5.93 seconds =       0.10 minutes
	total time  =         13 seconds =       0.22 minutes
Total time:
	user time   =      31.34 seconds =       0.52 minutes
	system time =      13.03 seconds =       0.22 minutes
	total time  =         45 seconds =       0.75 minutes

*** Psi4 exiting successfully. Buy a developer a beer!
