
    -----------------------------------------------------------------------
          Psi4: An Open-Source Ab Initio Electronic Structure Package
                               Psi4 1.2a1.dev938 

                         Git: Rev {HEAD} fc51d9a dirty


    R. M. Parrish, L. A. Burns, D. G. A. Smith, A. C. Simmonett,
    A. E. DePrince III, E. G. Hohenstein, U. Bozkaya, A. Yu. Sokolov,
    R. Di Remigio, R. M. Richard, J. F. Gonthier, A. M. James,
    H. R. McAlexander, A. Kumar, M. Saitow, X. Wang, B. P. Pritchard,
    P. Verma, H. F. Schaefer III, K. Patkowski, R. A. King, E. F. Valeev,
    F. A. Evangelista, J. M. Turney, T. D. Crawford, and C. D. Sherrill,
    J. Chem. Theory Comput. 13(7) pp 3185--3197 (2017).
    (doi: 10.1021/acs.jctc.7b00174)

    -----------------------------------------------------------------------


    Psi4 started on: Thursday, 20 August 2020 07:55PM

    Process ID: 422828
    PSIDATADIR: /home/irmler/Programs/psi4/beforeGrueneis3/stage/usr/local/psi4/share/psi4
    Memory:     500.0 MiB
    Threads:    4
    
  ==> Input File <==

--------------------------------------------------------------------------
# Any line starting with the # character is a comment line
memory 250000 mb
molecule molecule{
1 2
S          0.0000000000        0.0000000000        0.9256314495
S          0.0000000000        0.0000000000       -0.9256314495
}

set {
  reference uhf
  basis aug-cc-pv(d+d)z
  scf_type OUT_OF_CORE
  freeze_core true
}

energy('ccsd')
--------------------------------------------------------------------------

  Memory set to 232.831 GiB by Python driver.

*** tstart() called on cqc05
*** at Thu Aug 20 19:55:33 2020

   => Loading Basis Set <=

    Name: AUG-CC-PV(D+D)Z
    Role: ORBITAL
    Keyword: BASIS
    atoms 1-2 entry S          line   724 file /home/irmler/Programs/psi4/beforeGrueneis3/stage/usr/local/psi4/share/psi4/basis/aug-cc-pv_dpd_z.gbs 


         ---------------------------------------------------------
                                   SCF
            by Justin Turney, Rob Parrish, Andy Simmonett
                             and Daniel Smith
                              UHF Reference
                        4 Threads, 238418 MiB Core
         ---------------------------------------------------------

  ==> Geometry <==

    Molecular point group: d2h
    Full point group: D_inf_h

    Geometry (in Angstrom), charge = 1, multiplicity = 2:

       Center              X                  Y                   Z               Mass       
    ------------   -----------------  -----------------  -----------------  -----------------
           S          0.000000000000     0.000000000000     0.925631449500    31.972070999000
           S          0.000000000000     0.000000000000    -0.925631449500    31.972070999000

  Running in d2h symmetry.

  Rotational constants: A = ************  B =      0.30769  C =      0.30769 [cm^-1]
  Rotational constants: A = ************  B =   9224.44462  C =   9224.44462 [MHz]
  Nuclear repulsion =   73.176730043159580

  Charge       = 1
  Multiplicity = 2
  Electrons    = 31
  Nalpha       = 16
  Nbeta        = 15

  ==> Algorithm <==

  SCF Algorithm Type is OUT_OF_CORE.
  DIIS enabled.
  MOM disabled.
  Fractional occupation disabled.
  Guess Type is GWH.
  Energy threshold   = 1.00e-08
  Density threshold  = 1.00e-08
  Integral threshold = 0.00e+00

  ==> Primary Basis <==

  Basis Set: AUG-CC-PV(D+D)Z
    Blend: AUG-CC-PV(D+D)Z
    Number of shells: 24
    Number of basis function: 64
    Number of Cartesian functions: 70
    Spherical Harmonics?: true
    Max angular momentum: 2

  ==> Pre-Iterations <==

   -------------------------------------------------------
    Irrep   Nso     Nmo     Nalpha   Nbeta   Ndocc  Nsocc
   -------------------------------------------------------
     Ag        15      15       0       0       0       0
     B1g        3       3       0       0       0       0
     B2g        7       7       0       0       0       0
     B3g        7       7       0       0       0       0
     Au         3       3       0       0       0       0
     B1u       15      15       0       0       0       0
     B2u        7       7       0       0       0       0
     B3u        7       7       0       0       0       0
   -------------------------------------------------------
    Total      64      64      16      15      15       1
   -------------------------------------------------------

  ==> Integral Setup <==

  ==> DiskJK: Disk-Based J/K Matrices <==

    J tasked:                  Yes
    K tasked:                  Yes
    wK tasked:                  No
    Memory (MB):            178813
    Schwarz Cutoff:          1E-12

  Minimum eigenvalue in the overlap matrix is 9.9207465584E-04.
  Using Symmetric Orthogonalization.

  SCF Guess: Generalized Wolfsberg-Helmholtz.

  ==> Iterations <==

                        Total Energy        Delta E     RMS |[F,P]|

    Occupation by irrep:
             Ag   B1g   B2g   B3g    Au   B1u   B2u   B3u 
    DOCC [     5,    0,    1,    1,    0,    4,    2,    2 ]
    SOCC [     0,    0,    1,    0,    0,    0,    0,    0 ]

   @UHF iter   1:  -787.66117027792029   -7.87661e+02   2.61435e-01 
   @UHF iter   2:  -794.52763525404680   -6.86646e+00   3.42759e-02 DIIS
   @UHF iter   3:  -794.71165538875891   -1.84020e-01   6.94874e-03 DIIS
   @UHF iter   4:  -794.72604291159416   -1.43875e-02   2.45482e-03 DIIS
   @UHF iter   5:  -794.72857067928783   -2.52777e-03   8.49403e-04 DIIS
   @UHF iter   6:  -794.72892285470630   -3.52175e-04   2.76355e-04 DIIS
   @UHF iter   7:  -794.72896767361533   -4.48189e-05   7.20060e-05 DIIS
   @UHF iter   8:  -794.72897126090766   -3.58729e-06   1.23792e-05 DIIS
   @UHF iter   9:  -794.72897135001290   -8.91052e-08   2.51136e-06 DIIS
   @UHF iter  10:  -794.72897135385847   -3.84557e-09   5.53732e-07 DIIS
   @UHF iter  11:  -794.72897135406890   -2.10434e-10   7.47220e-08 DIIS
   @UHF iter  12:  -794.72897135407277   -3.86535e-12   1.59660e-08 DIIS
   @UHF iter  13:  -794.72897135407300   -2.27374e-13   2.77945e-09 DIIS

  ==> Post-Iterations <==

   @Spin Contamination Metric:   2.631356804E-02
   @S^2 Expected:                7.500000000E-01
   @S^2 Observed:                7.763135680E-01
   @S   Expected:                5.000000000E-01
   @S   Observed:                5.000000000E-01

    Orbital Energies (a.u.)
    -----------------------

    Alpha Occupied:                                                       

       1Ag   -92.352597     1B1u  -92.352594     2Ag    -9.347335  
       2B1u   -9.346890     1B3u   -7.033952     1B2g   -7.033866  
       3Ag    -7.025348     1B2u   -7.024496     1B3g   -7.024369  
       3B1u   -7.024068     4Ag    -1.412936     4B1u   -1.118363  
       2B3u   -0.828334     5Ag    -0.824875     2B2u   -0.747945  
       2B2g   -0.657863  

    Alpha Virtual:                                                        

       2B3g   -0.317780     5B1u   -0.121372     6Ag    -0.084287  
       3B2u   -0.056811     3B3u   -0.053088     7Ag    -0.042623  
       6B1u   -0.030511     3B2g   -0.010578     3B3g   -0.008078  
       1B1g    0.046309     8Ag     0.046708     4B3u    0.079044  
       7B1u    0.080163     4B2u    0.100590     9Ag     0.188549  
       1Au     0.201562     8B1u    0.202336     4B2g    0.360595  
       4B3g    0.369354     9B1u    0.405455     5B3u    0.522904  
       5B2u    0.535311    10B1u    0.597892    10Ag     0.607174  
       5B2g    0.628658     5B3g    0.640656     6B3u    0.691806  
       6B2u    0.692217    11Ag     0.708467     2B1g    0.731243  
      12Ag     0.731306     2Au     0.798658    11B1u    0.798986  
      13Ag     0.825104     6B2g    0.922651     6B3g    0.926866  
      12B1u    1.112528    13B1u    1.489067     7B2u    4.605989  
       7B3u    4.617647    14Ag     4.654084     3B1g    4.654520  
      14B1u    4.707329     3Au     4.707585    15Ag     4.744391  
       7B3g    4.822866     7B2g    4.833800    15B1u    4.868083  

    Beta Occupied:                                                        

       1Ag   -92.346608     1B1u  -92.346603     2Ag    -9.340863  
       2B1u   -9.340358     3Ag    -7.022685     3B1u   -7.021377  
       1B2u   -7.021276     1B3g   -7.021146     1B3u   -7.007422  
       1B2g   -7.007289     4Ag    -1.380801     4B1u   -1.044824  
       5Ag    -0.801377     2B2u   -0.740345     2B3u   -0.707234  

    Beta Virtual:                                                         

       2B3g   -0.304619     2B2g   -0.263605     5B1u   -0.110509  
       6Ag    -0.084312     3B2u   -0.056497     3B3u   -0.050029  
       7Ag    -0.041127     6B1u   -0.024340     3B3g   -0.007096  
       3B2g   -0.000677     1B1g    0.062447     8Ag     0.062503  
       7B1u    0.083627     4B2u    0.102009     4B3u    0.124325  
       9Ag     0.197972     1Au     0.231999     8B1u    0.232233  
       4B3g    0.371397     4B2g    0.388693     9B1u    0.415245  
       5B2u    0.539076     5B3u    0.561430    10B1u    0.601857  
      10Ag     0.616943     5B3g    0.644721     5B2g    0.669086  
       6B2u    0.694041    11Ag     0.711106     6B3u    0.714223  
       2B1g    0.759433    12Ag     0.759591    11B1u    0.829087  
       2Au     0.829114    13Ag     0.836309     6B3g    0.929750  
       6B2g    0.953032    12B1u    1.125349    13B1u    1.498943  
       7B2u    4.606547     7B3u    4.622099    14Ag     4.659260  
       3B1g    4.660197    14B1u    4.713326     3Au     4.713897  
      15Ag     4.747288     7B3g    4.823733     7B2g    4.840481  
      15B1u    4.871398  

    Final Occupation by Irrep:
             Ag   B1g   B2g   B3g    Au   B1u   B2u   B3u 
    DOCC [     5,    0,    1,    1,    0,    4,    2,    2 ]
    SOCC [     0,    0,    1,    0,    0,    0,    0,    0 ]

  Energy converged.

  @UHF Final Energy:  -794.72897135407300

   => Energetics <=

    Nuclear Repulsion Energy =             73.1767300431595800
    One-Electron Energy =               -1234.5053632583799299
    Two-Electron Energy =                 366.5996618611474105
    PCM Polarization Energy =               0.0000000000000000
    Total Energy =                       -794.7289713540729963

    Alert: EFP and PCM quantities not currently incorporated into SCF psivars.
  UHF NO Occupations:
  HONO-2 :    4B1u 1.9976282
  HONO-1 :    2B3u 1.9912088
  HONO-0 :    2B2g 1.0000000
  LUNO+0 :    3B3u 0.0087912
  LUNO+1 :    5B1u 0.0023718
  LUNO+2 :    6 Ag 0.0019264
  LUNO+3 :    7 Ag 0.0000565



Properties will be evaluated at   0.000000,   0.000000,   0.000000 Bohr

Properties computed using the SCF density matrix

  Nuclear Dipole Moment: (a.u.)
     X:     0.0000      Y:     0.0000      Z:     0.0000

  Electronic Dipole Moment: (a.u.)
     X:     0.0000      Y:     0.0000      Z:     0.0000

  Dipole Moment: (a.u.)
     X:     0.0000      Y:     0.0000      Z:     0.0000     Total:     0.0000

  Dipole Moment: (Debye)
     X:     0.0000      Y:     0.0000      Z:     0.0000     Total:     0.0000


*** tstop() called on cqc05 at Thu Aug 20 19:55:34 2020
Module time:
	user time   =       1.18 seconds =       0.02 minutes
	system time =       0.03 seconds =       0.00 minutes
	total time  =          1 seconds =       0.02 minutes
Total time:
	user time   =       1.18 seconds =       0.02 minutes
	system time =       0.03 seconds =       0.00 minutes
	total time  =          1 seconds =       0.02 minutes

*** tstart() called on cqc05
*** at Thu Aug 20 19:55:34 2020


	Wfn Parameters:
	--------------------
	Wavefunction         = CCSD
	Number of irreps     = 8
	Number of MOs        = 64
	Number of active MOs = 54
	AO-Basis             = NONE
	Semicanonical        = false
	Reference            = UHF
	Print Level          = 1

	IRREP	# MOs	# FZDC	# DOCC	# SOCC	# VIRT	# FZVR
	-----	-----	------	------	------	------	------
	 Ag	   15	    3	    2	    0	    10	    0
	 B1g	   3	    0	    0	    0	    3	    0
	 B2g	   7	    1	    0	    1	    5	    0
	 B3g	   7	    1	    0	    0	    6	    0
	 Au	   3	    0	    0	    0	    3	    0
	 B1u	   15	    3	    1	    0	    11	    0
	 B2u	   7	    1	    1	    0	    5	    0
	 B3u	   7	    1	    1	    0	    5	    0
	Transforming integrals...
	IWL integrals will be deleted.
	(OO|OO)...
	Presorting SO-basis two-electron integrals.
	Sorting File: SO Ints (nn|nn) nbuckets = 1
	Transforming the one-electron integrals and constructing Fock matrices
	Starting AA/AB first half-transformation.
	Sorting AA/AB half-transformed integrals.
	Starting BB first half-transformation.
	Sorting BB half-transformed integrals.
	First half integral transformation complete.
	Starting AA second half-transformation.
	Starting AB second half-transformation.
	Starting BB second half-transformation.
	Two-electron integral transformation complete.
	(OO|OV)...
	Starting AA second half-transformation.
	Starting AB second half-transformation.
	Starting BB second half-transformation.
	Two-electron integral transformation complete.
	(OO|VV)...
	Starting AA second half-transformation.
	Starting AB second half-transformation.
	Starting BB second half-transformation.
	Two-electron integral transformation complete.
	(OV|OO)...
	Starting AA/AB first half-transformation.
	Sorting AA/AB half-transformed integrals.
	Starting BB first half-transformation.
	Sorting BB half-transformed integrals.
	First half integral transformation complete.
	Starting AA second half-transformation.
	Starting AB second half-transformation.
	Starting BB second half-transformation.
	Two-electron integral transformation complete.
	(OV|OV)...
	Starting AA second half-transformation.
	Starting AB second half-transformation.
	Starting BB second half-transformation.
	Two-electron integral transformation complete.
	(OV|VV)...
	Starting AA second half-transformation.
	Starting AB second half-transformation.
	Starting BB second half-transformation.
	Two-electron integral transformation complete.
	(VV|OO)...
	Starting AA/AB first half-transformation.
	Sorting AA/AB half-transformed integrals.
	Starting BB first half-transformation.
	Sorting BB half-transformed integrals.
	First half integral transformation complete.
	Starting AA second half-transformation.
	Starting AB second half-transformation.
	Starting BB second half-transformation.
	Two-electron integral transformation complete.
	(VV|OV)...
	Starting AA second half-transformation.
	Starting AB second half-transformation.
	Starting BB second half-transformation.
	Two-electron integral transformation complete.
	(VV|VV)...
	Starting AA second half-transformation.
	Starting AB second half-transformation.
	Starting BB second half-transformation.
	Two-electron integral transformation complete.
	Frozen core energy     =   -837.97974265204755

	Size of irrep 0 of <AB|CD> integrals:      0.023 (MW) /      0.182 (MB)
	Size of irrep 1 of <AB|CD> integrals:      0.014 (MW) /      0.111 (MB)
	Size of irrep 2 of <AB|CD> integrals:      0.019 (MW) /      0.152 (MB)
	Size of irrep 3 of <AB|CD> integrals:      0.021 (MW) /      0.168 (MB)
	Size of irrep 4 of <AB|CD> integrals:      0.014 (MW) /      0.111 (MB)
	Size of irrep 5 of <AB|CD> integrals:      0.030 (MW) /      0.242 (MB)
	Size of irrep 6 of <AB|CD> integrals:      0.021 (MW) /      0.171 (MB)
	Size of irrep 7 of <AB|CD> integrals:      0.019 (MW) /      0.152 (MB)
	Total:                                     0.161 (MW) /      1.291 (MB)

	Size of irrep 0 of <ab|cd> integrals:      0.024 (MW) /      0.195 (MB)
	Size of irrep 1 of <ab|cd> integrals:      0.015 (MW) /      0.123 (MB)
	Size of irrep 2 of <ab|cd> integrals:      0.022 (MW) /      0.175 (MB)
	Size of irrep 3 of <ab|cd> integrals:      0.022 (MW) /      0.175 (MB)
	Size of irrep 4 of <ab|cd> integrals:      0.015 (MW) /      0.121 (MB)
	Size of irrep 5 of <ab|cd> integrals:      0.032 (MW) /      0.256 (MB)
	Size of irrep 6 of <ab|cd> integrals:      0.022 (MW) /      0.178 (MB)
	Size of irrep 7 of <ab|cd> integrals:      0.022 (MW) /      0.178 (MB)
	Total:                                     0.175 (MW) /      1.401 (MB)

	Size of irrep 0 of <Ab|Cd> integrals:      0.126 (MW) /      1.008 (MB)
	Size of irrep 1 of <Ab|Cd> integrals:      0.059 (MW) /      0.469 (MB)
	Size of irrep 2 of <Ab|Cd> integrals:      0.082 (MW) /      0.654 (MB)
	Size of irrep 3 of <Ab|Cd> integrals:      0.086 (MW) /      0.687 (MB)
	Size of irrep 4 of <Ab|Cd> integrals:      0.058 (MW) /      0.465 (MB)
	Size of irrep 5 of <Ab|Cd> integrals:      0.125 (MW) /      0.997 (MB)
	Size of irrep 6 of <Ab|Cd> integrals:      0.087 (MW) /      0.696 (MB)
	Size of irrep 7 of <Ab|Cd> integrals:      0.082 (MW) /      0.659 (MB)
	Total:                                     0.704 (MW) /      5.635 (MB)

	Size of irrep 0 of <IA|BC> integrals:      0.016 (MW) /      0.129 (MB)
	Size of irrep 1 of <IA|BC> integrals:      0.006 (MW) /      0.047 (MB)
	Size of irrep 2 of <IA|BC> integrals:      0.011 (MW) /      0.086 (MB)
	Size of irrep 3 of <IA|BC> integrals:      0.010 (MW) /      0.079 (MB)
	Size of irrep 4 of <IA|BC> integrals:      0.006 (MW) /      0.047 (MB)
	Size of irrep 5 of <IA|BC> integrals:      0.017 (MW) /      0.134 (MB)
	Size of irrep 6 of <IA|BC> integrals:      0.009 (MW) /      0.075 (MB)
	Size of irrep 7 of <IA|BC> integrals:      0.011 (MW) /      0.086 (MB)
	Total:                                     0.085 (MW) /      0.683 (MB)

	Size of irrep 0 of <ia|bc> integrals:      0.015 (MW) /      0.118 (MB)
	Size of irrep 1 of <ia|bc> integrals:      0.005 (MW) /      0.038 (MB)
	Size of irrep 2 of <ia|bc> integrals:      0.009 (MW) /      0.073 (MB)
	Size of irrep 3 of <ia|bc> integrals:      0.009 (MW) /      0.073 (MB)
	Size of irrep 4 of <ia|bc> integrals:      0.005 (MW) /      0.041 (MB)
	Size of irrep 5 of <ia|bc> integrals:      0.016 (MW) /      0.126 (MB)
	Size of irrep 6 of <ia|bc> integrals:      0.009 (MW) /      0.069 (MB)
	Size of irrep 7 of <ia|bc> integrals:      0.009 (MW) /      0.069 (MB)
	Total:                                     0.076 (MW) /      0.609 (MB)

	Size of irrep 0 of <Ia|Bc> integrals:      0.017 (MW) /      0.133 (MB)
	Size of irrep 1 of <Ia|Bc> integrals:      0.006 (MW) /      0.048 (MB)
	Size of irrep 2 of <Ia|Bc> integrals:      0.012 (MW) /      0.094 (MB)
	Size of irrep 3 of <Ia|Bc> integrals:      0.010 (MW) /      0.080 (MB)
	Size of irrep 4 of <Ia|Bc> integrals:      0.006 (MW) /      0.050 (MB)
	Size of irrep 5 of <Ia|Bc> integrals:      0.017 (MW) /      0.138 (MB)
	Size of irrep 6 of <Ia|Bc> integrals:      0.009 (MW) /      0.076 (MB)
	Size of irrep 7 of <Ia|Bc> integrals:      0.011 (MW) /      0.092 (MB)
	Total:                                     0.089 (MW) /      0.711 (MB)

	Size of irrep 0 of <iA|bC> integrals:      0.015 (MW) /      0.116 (MB)
	Size of irrep 1 of <iA|bC> integrals:      0.005 (MW) /      0.037 (MB)
	Size of irrep 2 of <iA|bC> integrals:      0.008 (MW) /      0.066 (MB)
	Size of irrep 3 of <iA|bC> integrals:      0.009 (MW) /      0.073 (MB)
	Size of irrep 4 of <iA|bC> integrals:      0.005 (MW) /      0.039 (MB)
	Size of irrep 5 of <iA|bC> integrals:      0.015 (MW) /      0.121 (MB)
	Size of irrep 6 of <iA|bC> integrals:      0.009 (MW) /      0.068 (MB)
	Size of irrep 7 of <iA|bC> integrals:      0.008 (MW) /      0.064 (MB)
	Total:                                     0.073 (MW) /      0.585 (MB)

	Size of irrep 0 of tIjAb amplitudes:       0.002 (MW) /      0.020 (MB)
	Size of irrep 1 of tIjAb amplitudes:       0.000 (MW) /      0.004 (MB)
	Size of irrep 2 of tIjAb amplitudes:       0.001 (MW) /      0.009 (MB)
	Size of irrep 3 of tIjAb amplitudes:       0.001 (MW) /      0.005 (MB)
	Size of irrep 4 of tIjAb amplitudes:       0.000 (MW) /      0.002 (MB)
	Size of irrep 5 of tIjAb amplitudes:       0.002 (MW) /      0.014 (MB)
	Size of irrep 6 of tIjAb amplitudes:       0.001 (MW) /      0.009 (MB)
	Size of irrep 7 of tIjAb amplitudes:       0.001 (MW) /      0.011 (MB)
	Total:                                     0.009 (MW) /      0.075 (MB)

	Nuclear Rep. energy          =     73.17673004315958
	SCF energy                   =   -794.72897135407300
	One-electron energy          =    -49.58701919721813
	Two-electron (AA) energy     =      4.84600671350451
	Two-electron (BB) energy     =      3.26597544558516
	Two-electron (AB) energy     =     11.54907829294280
	Two-electron energy          =     19.66106045203247
	Reference energy             =   -794.72897135407368

*** tstop() called on cqc05 at Thu Aug 20 19:55:35 2020
Module time:
	user time   =       0.19 seconds =       0.00 minutes
	system time =       0.12 seconds =       0.00 minutes
	total time  =          1 seconds =       0.02 minutes
Total time:
	user time   =       1.37 seconds =       0.02 minutes
	system time =       0.15 seconds =       0.00 minutes
	total time  =          2 seconds =       0.03 minutes

*** tstart() called on cqc05
*** at Thu Aug 20 19:55:35 2020

            **************************
            *                        *
            *        CCENERGY        *
            *                        *
            **************************

    Nuclear Rep. energy (wfn)     =   73.176730043159580
    SCF energy          (wfn)     = -794.728971354072996
    Reference energy    (file100) = -794.728971354073678

    Input parameters:
    -----------------
    Wave function   =     CCSD
    Reference wfn   =     UHF
    Brueckner       =     No
    Memory (Mbytes) =     250000.0
    Maxiter         =     50
    R_Convergence   =     1.0e-07
    E_Convergence   =     1.0e-06
    Restart         =     Yes
    DIIS            =     Yes
    AO Basis        =     NONE
    ABCD            =     NEW
    Cache Level     =     2
    Cache Type      =     LRU
    Print Level     =     1
    Num. of threads =     4
    # Amps to Print =     10
    Print MP2 Amps? =     No
    Analyze T2 Amps =     No
    Print Pair Ener =     No
    Local CC        =     No
    SCS-MP2         =     False
    SCSN-MP2        =     False
    SCS-CCSD        =     False

MP2 correlation energy -0.2637944392632761
                Solving CC Amplitude Equations
                ------------------------------
  Iter             Energy              RMS        T1Diag      D1Diag    New D1Diag    D2Diag
  ----     ---------------------    ---------   ----------  ----------  ----------   --------
     0        -0.263794439263276    0.000e+00    0.000000    0.000000    0.000000    0.000000
     1        -0.271884174935030    9.163e-02    0.018811    0.000000    0.000000    0.000000
     2        -0.283475320555056    3.125e-02    0.021085    0.000000    0.000000    0.000000
     3        -0.286362554841515    1.387e-02    0.024811    0.000000    0.000000    0.000000
     4        -0.286425367729273    3.391e-03    0.025308    0.000000    0.000000    0.000000
     5        -0.286413323519849    9.910e-04    0.025356    0.000000    0.000000    0.000000
     6        -0.286411165993587    3.192e-04    0.025333    0.000000    0.000000    0.000000
     7        -0.286416916240476    8.492e-05    0.025322    0.000000    0.000000    0.000000
     8        -0.286416763684203    2.541e-05    0.025320    0.000000    0.000000    0.000000
     9        -0.286416582057173    8.386e-06    0.025320    0.000000    0.000000    0.000000
    10        -0.286416628921803    2.907e-06    0.025320    0.000000    0.000000    0.000000
    11        -0.286416587828742    1.046e-06    0.025320    0.000000    0.000000    0.000000
    12        -0.286416630228570    3.613e-07    0.025320    0.000000    0.000000    0.000000
    13        -0.286416627241239    1.135e-07    0.025320    0.000000    0.000000    0.000000
    14        -0.286416628874449    3.389e-08    0.025320    0.000000    0.000000    0.000000
    14        -0.286416628874449    3.389e-08    0.025320    0.000000    0.000000    0.000000

    Iterations converged.


    CCSD corr. energy   =   -0.286416628874449
    PPL corr. energy    =    0.080559087697678
    OS PPL corr. energy =    0.065474667667473
    SS PPL corr. energy =    0.015084420030206
    Largest TIA Amplitudes:
              5  44        -0.0300922926
              4  39         0.0270874525
              4  40        -0.0189557636
              1   2        -0.0146254297
              3  30         0.0139402545
              1   3         0.0127362006
              1   7        -0.0103621752
              4  41        -0.0089800587
              3  33        -0.0078381425
              1   6        -0.0069872755

    Largest Tia Amplitudes:
              4  45         0.0339214804
              3  40         0.0262281151
              2  28         0.0224642976
              3  41        -0.0188484784
              2  29         0.0182746071
              4  46        -0.0181671002
              4  47        -0.0115886786
              3  42        -0.0084131965
              0   7         0.0075322130
              1   7        -0.0062598036

    Largest TIJAB Amplitudes:
      4   1  27  18         0.0393328053
      4   2  44  18        -0.0340225965
      4   1  28  18         0.0320254679
      2   1  44  27         0.0292162830
      5   4  10   2        -0.0273394136
      2   1  44  28         0.0241931796
      4   2  30  10         0.0193635963
      4   2  24   2         0.0192772119
      5   1  44   3        -0.0178914612
      4   1  39   3        -0.0163605868

    Largest Tijab Amplitudes:
      4   3  19  13        -0.0814605111
      4   1  28  13        -0.0406591445
      4   1  29  13        -0.0386095037
      3   1  28  19         0.0376039860
      3   1  29  19         0.0361114024
      4   3  10   2         0.0264766401
      3   2  19   2         0.0189751477
      3   2  13  10         0.0183390561
      4   1  45   3        -0.0167393755
      4   2  19  10        -0.0164272186

    Largest TIjAb Amplitudes:
      4   3  18  19        -0.2272550384
      4   4  18  13         0.1287675434
      1   1  18  19        -0.0632366003
      3   2  18  19        -0.0588787537
      2   4  44  13        -0.0565751824
      1   4  27  13         0.0445366555
      5   3  18  13        -0.0427546324
      1   1  27  28        -0.0424828497
      1   2  39  19         0.0420412804
      1   3  27  19        -0.0417681226

    SCF energy       (wfn)                    = -794.728971354072996
    Reference energy (file100)                = -794.728971354073678

    Opposite-spin MP2 correlation energy      =   -0.194081947326965
    Same-spin MP2 correlation energy          =   -0.069712491936310
    MP2 correlation energy                    =   -0.263794439263276
      * MP2 total energy                      = -794.992765793336957

    Opposite-spin CCSD correlation energy     =   -0.224750477542403
    Same-spin CCSD correlation energy         =   -0.061666151411885
    CCSD correlation energy                   =   -0.286416628874449
      * CCSD total energy                     = -795.015387982948141


*** tstop() called on cqc05 at Thu Aug 20 19:55:36 2020
Module time:
	user time   =       0.42 seconds =       0.01 minutes
	system time =       0.26 seconds =       0.00 minutes
	total time  =          1 seconds =       0.02 minutes
Total time:
	user time   =       1.79 seconds =       0.03 minutes
	system time =       0.41 seconds =       0.01 minutes
	total time  =          3 seconds =       0.05 minutes

*** Psi4 exiting successfully. Buy a developer a beer!
