
    -----------------------------------------------------------------------
          Psi4: An Open-Source Ab Initio Electronic Structure Package
                               Psi4 1.2a1.dev938 

                         Git: Rev {HEAD} fc51d9a dirty


    R. M. Parrish, L. A. Burns, D. G. A. Smith, A. C. Simmonett,
    A. E. DePrince III, E. G. Hohenstein, U. Bozkaya, A. Yu. Sokolov,
    R. Di Remigio, R. M. Richard, J. F. Gonthier, A. M. James,
    H. R. McAlexander, A. Kumar, M. Saitow, X. Wang, B. P. Pritchard,
    P. Verma, H. F. Schaefer III, K. Patkowski, R. A. King, E. F. Valeev,
    F. A. Evangelista, J. M. Turney, T. D. Crawford, and C. D. Sherrill,
    J. Chem. Theory Comput. 13(7) pp 3185--3197 (2017).
    (doi: 10.1021/acs.jctc.7b00174)

    -----------------------------------------------------------------------


    Psi4 started on: Friday, 21 August 2020 06:17AM

    Process ID: 427910
    PSIDATADIR: /home/irmler/Programs/psi4/beforeGrueneis3/stage/usr/local/psi4/share/psi4
    Memory:     500.0 MiB
    Threads:    4
    
  ==> Input File <==

--------------------------------------------------------------------------
# Any line starting with the # character is a comment line
memory 250000 mb
molecule molecule{
0 2
Si         0.0000000000        0.0000000000        0.0525562661
H          0.0000000000        0.0000000000       -1.4644413475
}

set {
  reference uhf
  basis aug-cc-pv(5+d)z
  scf_type OUT_OF_CORE
  freeze_core true
}

energy('ccsd')
--------------------------------------------------------------------------

  Memory set to 232.831 GiB by Python driver.

*** tstart() called on cqc05
*** at Fri Aug 21 06:17:04 2020

   => Loading Basis Set <=

    Name: AUG-CC-PV(5+D)Z
    Role: ORBITAL
    Keyword: BASIS
    atoms 1 entry SI         line   729 file /home/irmler/Programs/psi4/beforeGrueneis3/stage/usr/local/psi4/share/psi4/basis/aug-cc-pv_5pd_z.gbs 
    atoms 2 entry H          line    56 file /home/irmler/Programs/psi4/beforeGrueneis3/stage/usr/local/psi4/share/psi4/basis/aug-cc-pv_5pd_z.gbs 


         ---------------------------------------------------------
                                   SCF
            by Justin Turney, Rob Parrish, Andy Simmonett
                             and Daniel Smith
                              UHF Reference
                        4 Threads, 238418 MiB Core
         ---------------------------------------------------------

  ==> Geometry <==

    Molecular point group: c2v
    Full point group: C_inf_v

    Geometry (in Angstrom), charge = 0, multiplicity = 2:

       Center              X                  Y                   Z               Mass       
    ------------   -----------------  -----------------  -----------------  -----------------
          SI          0.000000000000     0.000000000000     0.052747326993    27.976926532460
           H          0.000000000000     0.000000000000    -1.464250286607     1.007825032070

  Running in c2v symmetry.

  Rotational constants: A = ************  B =      7.53028  C =      7.53028 [cm^-1]
  Rotational constants: A = ************  B = 225752.12119  C = 225752.12119 [MHz]
  Nuclear repulsion =    4.883647049832115

  Charge       = 0
  Multiplicity = 2
  Electrons    = 15
  Nalpha       = 8
  Nbeta        = 7

  ==> Algorithm <==

  SCF Algorithm Type is OUT_OF_CORE.
  DIIS enabled.
  MOM disabled.
  Fractional occupation disabled.
  Guess Type is GWH.
  Energy threshold   = 1.00e-08
  Density threshold  = 1.00e-08
  Integral threshold = 0.00e+00

  ==> Primary Basis <==

  Basis Set: AUG-CC-PV(5+D)Z
    Blend: AUG-CC-PV(5+D)Z
    Number of shells: 50
    Number of basis function: 216
    Number of Cartesian functions: 297
    Spherical Harmonics?: true
    Max angular momentum: 5

  ==> Pre-Iterations <==

   -------------------------------------------------------
    Irrep   Nso     Nmo     Nalpha   Nbeta   Ndocc  Nsocc
   -------------------------------------------------------
     A1        81      81       0       0       0       0
     A2        31      31       0       0       0       0
     B1        52      52       0       0       0       0
     B2        52      52       0       0       0       0
   -------------------------------------------------------
    Total     216     216       8       7       7       1
   -------------------------------------------------------

  ==> Integral Setup <==

  ==> DiskJK: Disk-Based J/K Matrices <==

    J tasked:                  Yes
    K tasked:                  Yes
    wK tasked:                  No
    Memory (MB):            178813
    Schwarz Cutoff:          1E-12

  Minimum eigenvalue in the overlap matrix is 4.8184090013E-05.
  Using Symmetric Orthogonalization.

  SCF Guess: Generalized Wolfsberg-Helmholtz.

  ==> Iterations <==

                        Total Energy        Delta E     RMS |[F,P]|

    Occupation by irrep:
             A1    A2    B1    B2 
    DOCC [     5,    0,    1,    1 ]
    SOCC [     0,    0,    1,    0 ]

   @UHF iter   1:  -270.74434250022415   -2.70744e+02   1.51408e-01 
   @UHF iter   2:  -285.86919931682735   -1.51249e+01   5.56128e-02 DIIS
   @UHF iter   3:  -289.34144808251881   -3.47225e+00   1.07420e-02 DIIS
   @UHF iter   4:  -289.43655965063255   -9.51116e-02   1.23530e-03 DIIS
   @UHF iter   5:  -289.44224701290460   -5.68736e-03   3.52589e-04 DIIS
   @UHF iter   6:  -289.44265649228470   -4.09479e-04   1.16045e-04 DIIS
   @UHF iter   7:  -289.44275414764275   -9.76554e-05   4.39688e-05 DIIS
   @UHF iter   8:  -289.44277097561223   -1.68280e-05   1.96778e-05 DIIS
   @UHF iter   9:  -289.44277561446575   -4.63885e-06   9.56536e-06 DIIS
   @UHF iter  10:  -289.44277685510269   -1.24064e-06   4.13654e-06 DIIS
   @UHF iter  11:  -289.44277709548413   -2.40381e-07   1.19950e-06 DIIS
   @UHF iter  12:  -289.44277711125511   -1.57710e-08   2.30862e-07 DIIS
   @UHF iter  13:  -289.44277711168348   -4.28372e-10   5.01719e-08 DIIS
   @UHF iter  14:  -289.44277711170395   -2.04636e-11   1.33483e-08 DIIS
   @UHF iter  15:  -289.44277711170537   -1.42109e-12   2.67985e-09 DIIS

  ==> Post-Iterations <==

   @Spin Contamination Metric:   2.388573241E-02
   @S^2 Expected:                7.500000000E-01
   @S^2 Observed:                7.738857324E-01
   @S   Expected:                5.000000000E-01
   @S   Observed:                5.000000000E-01

    Orbital Energies (a.u.)
    -----------------------

    Alpha Occupied:                                                       

       1A1   -68.808567     2A1    -6.153422     1B1    -4.263972  
       1B2    -4.253531     3A1    -4.251794     4A1    -0.657979  
       5A1    -0.389729     2B1    -0.297409  

    Alpha Virtual:                                                        

       2B2    -0.007452     6A1     0.025741     7A1     0.043680  
       3B1     0.050707     3B2     0.058701     8A1     0.090987  
       4B2     0.104092     4B1     0.105584     9A1     0.110517  
       1A2     0.110830    10A1     0.115276    11A1     0.161273  
      12A1     0.200939     5B1     0.223951     5B2     0.224759  
       6B1     0.245570     6B2     0.261290    13A1     0.279038  
       7B1     0.282944     2A2     0.282973     7B2     0.283225  
      14A1     0.286819     8B1     0.290341     8B2     0.292145  
       3A2     0.308543    15A1     0.309636    16A1     0.324619  
      17A1     0.348285     9B1     0.398712     9B2     0.401272  
      18A1     0.422972    19A1     0.504738    10B2     0.591579  
      10B1     0.595502     4A2     0.627157    20A1     0.627239  
      21A1     0.660035     5A2     0.725379    22A1     0.725391  
      11B2     0.727463    11B1     0.727568    12B2     0.741998  
      12B1     0.744566     6A2     0.750655    23A1     0.750906  
      13B2     0.757899    13B1     0.757969    24A1     0.760386  
       7A2     0.760734    25A1     0.796988    14B2     0.808367  
      14B1     0.811061    15B2     0.843992    26A1     0.844299  
      15B1     0.850345     8A2     0.873834    27A1     0.873984  
      28A1     0.891942    16B2     0.927163    16B1     0.927495  
      29A1     0.996228    30A1     1.157327    17B2     1.220675  
      17B1     1.227469    18B2     1.377223    18B1     1.377225  
      31A1     1.386406    32A1     1.447134     9A2     1.491618  
      33A1     1.491701    19B2     1.527691    19B1     1.534712  
      34A1     1.673540    10A2     1.680324    35A1     1.680531  
      20B2     1.689595    20B1     1.689689    21B2     1.725210  
      21B1     1.736242    36A1     1.761534    11A2     1.761738  
      22B2     1.783509    37A1     1.799782    22B1     1.801669  
      23B2     1.823414    23B1     1.823414    12A2     1.826612  
      38A1     1.826634    13A2     1.842027    39A1     1.842062  
      24B2     1.852785    24B1     1.853082    14A2     1.858316  
      40A1     1.858631    25B2     1.978144    25B1     1.992647  
      41A1     1.995780    15A2     2.021673    42A1     2.026347  
      26B2     2.047276    26B1     2.047394    43A1     2.191019  
      27B2     2.259547    27B1     2.272964    44A1     2.450066  
      28B2     2.586175    28B1     2.595245    45A1     2.731927  
      16A2     2.756781    46A1     2.757007    47A1     2.808991  
      29B2     2.892244    29B1     2.905426    17A2     3.099028  
      48A1     3.099028    49A1     3.390986    30B2     3.452183  
      18A2     3.456856    50A1     3.456974    30B1     3.464282  
      31B2     3.511145    31B1     3.522432    32B2     3.543632  
      32B1     3.544033    33B2     3.617217    33B1     3.617227  
      51A1     3.664512    19A2     3.665767    52A1     3.733060  
      20A2     3.742341    53A1     3.751007    34B2     3.806536  
      34B1     3.826337    54A1     3.839204    55A1     4.029005  
      35B2     4.049968    35B1     4.060674    21A2     4.099913  
      56A1     4.100149    36B2     4.102729    36B1     4.102746  
      22A2     4.196626    57A1     4.196626    37B2     4.218936  
      37B1     4.219178    38B2     4.239101    38B1     4.239102  
      58A1     4.252470    23A2     4.252471    39B2     4.263938  
      39B1     4.283341    59A1     4.333471    60A1     4.412028  
      24A2     4.412201    61A1     4.529672    40B2     4.612375  
      40B1     4.612403    62A1     4.654561    41B2     4.723362  
      41B1     4.741247    63A1     5.398932    25A2     5.531494  
      64A1     5.531706    65A1     5.673941    26A2     5.917056  
      66A1     5.917135    42B2     6.000747    42B1     6.011524  
      43B2     6.228565    43B1     6.236481    67A1     6.839778  
      44B2     7.057163    44B1     7.066358    68A1     8.246810  
      69A1     9.768648    27A2     9.768688    45B2     9.989813  
      45B1    10.000220    70A1    10.155620    46B2    12.996049  
      46B1    12.996049    71A1    13.205621    28A2    13.205621  
      72A1    13.215505    47B2    13.223625    47B1    13.227806  
      29A2    13.266764    73A1    13.266831    48B2    13.341495  
      48B1    13.341495    74A1    13.457463    30A2    13.457473  
      49B2    13.473989    49B1    13.478345    75A1    13.522791  
      50B2    14.078395    50B1    14.082518    76A1    14.333344  
      31A2    14.464562    77A1    14.464578    51B2    14.798343  
      51B1    14.801263    78A1    15.372108    79A1    15.671063  
      52B2    17.587452    52B1    17.590388    80A1    18.676743  
      81A1    41.502908  

    Beta Occupied:                                                        

       1A1   -68.803265     2A1    -6.147443     1B2    -4.250879  
       3A1    -4.249694     1B1    -4.237476     4A1    -0.604030  
       5A1    -0.366785  

    Beta Virtual:                                                         

       2B2     0.001799     6A1     0.026959     2B1     0.028730  
       7A1     0.044186     3B2     0.061703     3B1     0.082874  
       8A1     0.093384     4B2     0.104222     4B1     0.110607  
       1A2     0.117098     9A1     0.118142    10A1     0.118461  
      11A1     0.166148    12A1     0.204876     5B2     0.225641  
       5B1     0.233993     6B2     0.265593    13A1     0.282862  
       2A2     0.285701     6B1     0.286202     7B2     0.286609  
      14A1     0.289123     7B1     0.290156     8B2     0.292019  
       8B1     0.306576    15A1     0.330443     3A2     0.343866  
      16A1     0.347631    17A1     0.353711     9B2     0.402947  
       9B1     0.419390    18A1     0.426654    19A1     0.509489  
      10B2     0.592294    10B1     0.602449     4A2     0.630259  
      20A1     0.630582    21A1     0.663584    11B2     0.732256  
      22A1     0.733106     5A2     0.733106    11B1     0.733601  
      12B2     0.741733    12B1     0.764588    23A1     0.766786  
       6A2     0.768978    13B2     0.775494    13B1     0.776158  
      24A1     0.781581     7A2     0.783421    25A1     0.807187  
      14B2     0.810466    14B1     0.831829    15B2     0.846282  
      26A1     0.846942    15B1     0.866848    27A1     0.879511  
       8A2     0.879874    28A1     0.901491    16B2     0.931151  
      16B1     0.959371    29A1     0.999660    30A1     1.162786  
      17B2     1.221050    17B1     1.235521    18B2     1.380023  
      18B1     1.380032    31A1     1.394122    32A1     1.450111  
       9A2     1.493713    33A1     1.493955    19B2     1.528025  
      19B1     1.542253    34A1     1.677490    35A1     1.692789  
      10A2     1.693793    20B2     1.709185    20B1     1.711899  
      21B2     1.730998    21B1     1.756095    36A1     1.775331  
      11A2     1.776355    22B2     1.784720    37A1     1.809438  
      22B1     1.815666    23B2     1.834597    23B1     1.834598  
      12A2     1.835939    38A1     1.836040    13A2     1.854404  
      39A1     1.854898    24B2     1.865644    24B1     1.866766  
      14A2     1.872152    40A1     1.873171    25B2     1.977335  
      41A1     1.996307    25B1     1.999694    15A2     2.027207  
      42A1     2.036006    26B2     2.053890    26B1     2.054186  
      43A1     2.193088    27B2     2.259956    27B1     2.280202  
      44A1     2.453818    28B2     2.588291    28B1     2.610788  
      45A1     2.733933    16A2     2.761044    46A1     2.761546  
      47A1     2.810515    29B2     2.893332    29B1     2.915391  
      17A2     3.101363    48A1     3.101363    49A1     3.394342  
      30B2     3.452490    18A2     3.461913    50A1     3.462333  
      30B1     3.470776    31B2     3.512002    31B1     3.534759  
      32B2     3.558483    32B1     3.559904    33B2     3.620427  
      33B1     3.620458    51A1     3.670409    19A2     3.673098  
      52A1     3.736358    20A2     3.749546    53A1     3.763603  
      34B2     3.808709    34B1     3.838476    54A1     3.845136  
      55A1     4.031703    35B2     4.049376    35B1     4.065402  
      21A2     4.105323    56A1     4.105850    36B2     4.106864  
      36B1     4.106909    22A2     4.212738    57A1     4.212740  
      37B2     4.228346    37B1     4.229479    38B2     4.253316  
      38B1     4.253323    58A1     4.263243    23A2     4.263247  
      39B2     4.265421    39B1     4.293560    59A1     4.332843  
      60A1     4.417493    24A2     4.418121    61A1     4.533854  
      40B2     4.617834    40B1     4.617927    62A1     4.659295  
      41B2     4.724865    41B1     4.751464    63A1     5.401394  
      25A2     5.535605    64A1     5.535971    65A1     5.675120  
      26A2     5.917955    66A1     5.918076    42B2     6.000816  
      42B1     6.014587    43B2     6.228659    43B1     6.238765  
      67A1     6.840492    44B2     7.057205    44B1     7.069043  
      68A1     8.248061    69A1     9.775636    27A2     9.775787  
      45B2     9.990660    45B1    10.007353    70A1    10.158582  
      46B2    12.996034    46B1    12.996034    71A1    13.205754  
      28A2    13.205754    72A1    13.215365    47B2    13.223628  
      47B1    13.230829    29A2    13.266790    73A1    13.266877  
      48B2    13.341653    48B1    13.341653    74A1    13.457591  
      30A2    13.457605    49B2    13.475357    49B1    13.490842  
      75A1    13.522852    50B2    14.078286    50B1    14.083643  
      76A1    14.332942    31A2    14.464355    77A1    14.464375  
      51B2    14.798050    51B1    14.802165    78A1    15.372019  
      79A1    15.672041    52B2    17.586885    52B1    17.590311  
      80A1    18.676411    81A1    41.506718  

    Final Occupation by Irrep:
             A1    A2    B1    B2 
    DOCC [     5,    0,    1,    1 ]
    SOCC [     0,    0,    1,    0 ]

  Energy converged.

  @UHF Final Energy:  -289.44277711170537

   => Energetics <=

    Nuclear Repulsion Energy =              4.8836470498321152
    One-Electron Energy =                -410.9168716582034335
    Two-Electron Energy =                 116.5904474966659734
    PCM Polarization Energy =               0.0000000000000000
    Total Energy =                       -289.4427771117053680

    Alert: EFP and PCM quantities not currently incorporated into SCF psivars.
  UHF NO Occupations:
  HONO-2 :    4 A1 1.9997292
  HONO-1 :    5 A1 1.9882640
  HONO-0 :    2 B1 1.0000000
  LUNO+0 :    6 A1 0.0117360
  LUNO+1 :    7 A1 0.0002708
  LUNO+2 :    3 B1 0.0000042
  LUNO+3 :    2 B2 0.0000003



Properties will be evaluated at   0.000000,   0.000000,   0.000000 Bohr

Properties computed using the SCF density matrix

  Nuclear Dipole Moment: (a.u.)
     X:     0.0000      Y:     0.0000      Z:    -1.3715

  Electronic Dipole Moment: (a.u.)
     X:     0.0000      Y:     0.0000      Z:     1.2754

  Dipole Moment: (a.u.)
     X:     0.0000      Y:     0.0000      Z:    -0.0961     Total:     0.0961

  Dipole Moment: (Debye)
     X:     0.0000      Y:     0.0000      Z:    -0.2443     Total:     0.2443


*** tstop() called on cqc05 at Fri Aug 21 06:17:57 2020
Module time:
	user time   =      50.19 seconds =       0.84 minutes
	system time =       2.89 seconds =       0.05 minutes
	total time  =         53 seconds =       0.88 minutes
Total time:
	user time   =      50.19 seconds =       0.84 minutes
	system time =       2.89 seconds =       0.05 minutes
	total time  =         53 seconds =       0.88 minutes

*** tstart() called on cqc05
*** at Fri Aug 21 06:17:57 2020


	Wfn Parameters:
	--------------------
	Wavefunction         = CCSD
	Number of irreps     = 4
	Number of MOs        = 216
	Number of active MOs = 211
	AO-Basis             = NONE
	Semicanonical        = false
	Reference            = UHF
	Print Level          = 1

	IRREP	# MOs	# FZDC	# DOCC	# SOCC	# VIRT	# FZVR
	-----	-----	------	------	------	------	------
	 A1	   81	    3	    2	    0	    76	    0
	 A2	   31	    0	    0	    0	    31	    0
	 B1	   52	    1	    0	    1	    50	    0
	 B2	   52	    1	    0	    0	    51	    0
	Transforming integrals...
	IWL integrals will be deleted.
	(OO|OO)...
	Presorting SO-basis two-electron integrals.
	Sorting File: SO Ints (nn|nn) nbuckets = 1
	Transforming the one-electron integrals and constructing Fock matrices
	Starting AA/AB first half-transformation.
	Sorting AA/AB half-transformed integrals.
	Starting BB first half-transformation.
	Sorting BB half-transformed integrals.
	First half integral transformation complete.
	Starting AA second half-transformation.
	Starting AB second half-transformation.
	Starting BB second half-transformation.
	Two-electron integral transformation complete.
	(OO|OV)...
	Starting AA second half-transformation.
	Starting AB second half-transformation.
	Starting BB second half-transformation.
	Two-electron integral transformation complete.
	(OO|VV)...
	Starting AA second half-transformation.
	Starting AB second half-transformation.
	Starting BB second half-transformation.
	Two-electron integral transformation complete.
	(OV|OO)...
	Starting AA/AB first half-transformation.
	Sorting AA/AB half-transformed integrals.
	Starting BB first half-transformation.
	Sorting BB half-transformed integrals.
	First half integral transformation complete.
	Starting AA second half-transformation.
	Starting AB second half-transformation.
	Starting BB second half-transformation.
	Two-electron integral transformation complete.
	(OV|OV)...
	Starting AA second half-transformation.
	Starting AB second half-transformation.
	Starting BB second half-transformation.
	Two-electron integral transformation complete.
	(OV|VV)...
	Starting AA second half-transformation.
	Starting AB second half-transformation.
	Starting BB second half-transformation.
	Two-electron integral transformation complete.
	(VV|OO)...
	Starting AA/AB first half-transformation.
	Sorting AA/AB half-transformed integrals.
	Starting BB first half-transformation.
	Sorting BB half-transformed integrals.
	First half integral transformation complete.
	Starting AA second half-transformation.
	Starting AB second half-transformation.
	Starting BB second half-transformation.
	Two-electron integral transformation complete.
	(VV|OV)...
	Starting AA second half-transformation.
	Starting AB second half-transformation.
	Starting BB second half-transformation.
	Two-electron integral transformation complete.
	(VV|VV)...
	Starting AA second half-transformation.
	Starting AB second half-transformation.
	Starting BB second half-transformation.
	Two-electron integral transformation complete.
	Frozen core energy     =   -288.66539506015397

	Size of irrep 0 of <AB|CD> integrals:     33.814 (MW) /    270.514 (MB)
	Size of irrep 1 of <AB|CD> integrals:     24.069 (MW) /    192.551 (MB)
	Size of irrep 2 of <AB|CD> integrals:     28.955 (MW) /    231.641 (MB)
	Size of irrep 3 of <AB|CD> integrals:     29.441 (MW) /    235.532 (MB)
	Total:                                   116.280 (MW) /    930.238 (MB)

	Size of irrep 0 of <ab|cd> integrals:     34.398 (MW) /    275.186 (MB)
	Size of irrep 1 of <ab|cd> integrals:     24.572 (MW) /    196.575 (MB)
	Size of irrep 2 of <ab|cd> integrals:     29.779 (MW) /    238.231 (MB)
	Size of irrep 3 of <ab|cd> integrals:     29.779 (MW) /    238.231 (MB)
	Total:                                   118.528 (MW) /    948.222 (MB)

	Size of irrep 0 of <Ab|Cd> integrals:    141.325 (MW) /   1130.596 (MB)
	Size of irrep 1 of <Ab|Cd> integrals:     97.279 (MW) /    778.230 (MB)
	Size of irrep 2 of <Ab|Cd> integrals:    117.462 (MW) /    939.698 (MB)
	Size of irrep 3 of <Ab|Cd> integrals:    118.440 (MW) /    947.518 (MB)
	Total:                                   474.505 (MW) /   3796.042 (MB)

	Size of irrep 0 of <IA|BC> integrals:      2.391 (MW) /     19.130 (MB)
	Size of irrep 1 of <IA|BC> integrals:      1.109 (MW) /      8.870 (MB)
	Size of irrep 2 of <IA|BC> integrals:      1.894 (MW) /     15.153 (MB)
	Size of irrep 3 of <IA|BC> integrals:      1.443 (MW) /     11.547 (MB)
	Total:                                     6.837 (MW) /     54.700 (MB)

	Size of irrep 0 of <ia|bc> integrals:      1.815 (MW) /     14.518 (MB)
	Size of irrep 1 of <ia|bc> integrals:      0.615 (MW) /      4.917 (MB)
	Size of irrep 2 of <ia|bc> integrals:      1.113 (MW) /      8.906 (MB)
	Size of irrep 3 of <ia|bc> integrals:      1.113 (MW) /      8.906 (MB)
	Total:                                     4.656 (MW) /     37.247 (MB)

	Size of irrep 0 of <Ia|Bc> integrals:      2.413 (MW) /     19.306 (MB)
	Size of irrep 1 of <Ia|Bc> integrals:      1.115 (MW) /      8.916 (MB)
	Size of irrep 2 of <Ia|Bc> integrals:      1.929 (MW) /     15.433 (MB)
	Size of irrep 3 of <Ia|Bc> integrals:      1.447 (MW) /     11.580 (MB)
	Total:                                     6.904 (MW) /     55.235 (MB)

	Size of irrep 0 of <iA|bC> integrals:      1.807 (MW) /     14.456 (MB)
	Size of irrep 1 of <iA|bC> integrals:      0.612 (MW) /      4.892 (MB)
	Size of irrep 2 of <iA|bC> integrals:      1.084 (MW) /      8.670 (MB)
	Size of irrep 3 of <iA|bC> integrals:      1.110 (MW) /      8.881 (MB)
	Total:                                     4.612 (MW) /     36.899 (MB)

	Size of irrep 0 of tIjAb amplitudes:       0.048 (MW) /      0.380 (MB)
	Size of irrep 1 of tIjAb amplitudes:       0.000 (MW) /      0.000 (MB)
	Size of irrep 2 of tIjAb amplitudes:       0.022 (MW) /      0.173 (MB)
	Size of irrep 3 of tIjAb amplitudes:       0.000 (MW) /      0.000 (MB)
	Total:                                     0.069 (MW) /      0.554 (MB)

	Nuclear Rep. energy          =      4.88364704983212
	SCF energy                   =   -289.44277711170537
	One-electron energy          =     -9.00612546281893
	Two-electron (AA) energy     =      0.84792203879554
	Two-electron (BB) energy     =      0.26823655192274
	Two-electron (AB) energy     =      2.22893777071707
	Two-electron energy          =      3.34509636143535
	Reference energy             =   -289.44277711170542

*** tstop() called on cqc05 at Fri Aug 21 06:19:07 2020
Module time:
	user time   =      43.31 seconds =       0.72 minutes
	system time =      26.56 seconds =       0.44 minutes
	total time  =         70 seconds =       1.17 minutes
Total time:
	user time   =      93.50 seconds =       1.56 minutes
	system time =      29.45 seconds =       0.49 minutes
	total time  =        123 seconds =       2.05 minutes

*** tstart() called on cqc05
*** at Fri Aug 21 06:19:07 2020

            **************************
            *                        *
            *        CCENERGY        *
            *                        *
            **************************

    Nuclear Rep. energy (wfn)     =    4.883647049832115
    SCF energy          (wfn)     = -289.442777111705368
    Reference energy    (file100) = -289.442777111705425

    Input parameters:
    -----------------
    Wave function   =     CCSD
    Reference wfn   =     UHF
    Brueckner       =     No
    Memory (Mbytes) =     250000.0
    Maxiter         =     50
    R_Convergence   =     1.0e-07
    E_Convergence   =     1.0e-06
    Restart         =     Yes
    DIIS            =     Yes
    AO Basis        =     NONE
    ABCD            =     NEW
    Cache Level     =     2
    Cache Type      =     LRU
    Print Level     =     1
    Num. of threads =     4
    # Amps to Print =     10
    Print MP2 Amps? =     No
    Analyze T2 Amps =     No
    Print Pair Ener =     No
    Local CC        =     No
    SCS-MP2         =     False
    SCSN-MP2        =     False
    SCS-CCSD        =     False

MP2 correlation energy -0.0891047930188138
                Solving CC Amplitude Equations
                ------------------------------
  Iter             Energy              RMS        T1Diag      D1Diag    New D1Diag    D2Diag
  ----     ---------------------    ---------   ----------  ----------  ----------   --------
     0        -0.089104793018815    0.000e+00    0.000000    0.000000    0.000000    0.000000
     1        -0.101631051189076    6.064e-02    0.013360    0.000000    0.000000    0.000000
     2        -0.109551987901277    2.847e-02    0.024103    0.000000    0.000000    0.000000
     3        -0.109861369530028    8.338e-03    0.027819    0.000000    0.000000    0.000000
     4        -0.109981252899111    2.835e-03    0.028810    0.000000    0.000000    0.000000
     5        -0.109999757676164    9.745e-04    0.028985    0.000000    0.000000    0.000000
     6        -0.109988611198166    3.447e-04    0.028992    0.000000    0.000000    0.000000
     7        -0.109990440381831    1.267e-04    0.028986    0.000000    0.000000    0.000000
     8        -0.109992552107745    3.594e-05    0.028989    0.000000    0.000000    0.000000
     9        -0.109991918323768    1.350e-05    0.028990    0.000000    0.000000    0.000000
    10        -0.109991941903826    5.438e-06    0.028990    0.000000    0.000000    0.000000
    11        -0.109991909116150    2.098e-06    0.028990    0.000000    0.000000    0.000000
    12        -0.109991951183525    9.432e-07    0.028990    0.000000    0.000000    0.000000
    13        -0.109991972604789    3.980e-07    0.028990    0.000000    0.000000    0.000000
    14        -0.109991976430484    1.483e-07    0.028991    0.000000    0.000000    0.000000
    15        -0.109991974779615    5.927e-08    0.028991    0.000000    0.000000    0.000000
    15        -0.109991974779615    5.927e-08    0.028991    0.000000    0.000000    0.000000

    Iterations converged.


    CCSD corr. energy   =   -0.109991974779615
    PPL corr. energy    =    0.041255459795554
    OS PPL corr. energy =    0.038487478543017
    SS PPL corr. energy =    0.002767981252536
    Largest TIA Amplitudes:
              1   9        -0.0183968592
              1   3        -0.0181572209
              0   9         0.0146587228
              1   8         0.0135605253
              1   7         0.0127166576
              1   6        -0.0117306470
              1   2        -0.0116474280
              2 109         0.0094142135
              1  17         0.0091275660
              0  10        -0.0086286215

    Largest Tia Amplitudes:
              1   5         0.0146044495
              0   6        -0.0142852612
              0   3        -0.0142677824
              1   3         0.0138133792
              0   5        -0.0104080304
              0   7         0.0100333675
              0   8         0.0095670493
              1   6         0.0095476183
              1  12        -0.0087576043
              1   8        -0.0082930859

    Largest TIJAB Amplitudes:
      2   0 157  78         0.0168601313
      2   1 109   5        -0.0137702512
      2   1 113   5        -0.0132182133
      2   1 112   8        -0.0127583372
      2   1 113   6        -0.0124147184
      2   1 112   6         0.0123408005
      2   1 112   7        -0.0121533207
      2   1 113   7         0.0119921829
      2   1 110   6         0.0114434387
      2   1 109   6        -0.0110517896

    Largest Tijab Amplitudes:
      1   0 114 108         0.0090158890
      1   0 165 158        -0.0085206913
      1   0 161 158        -0.0071442277
      1   0 114 107        -0.0069868224
      1   0 110 108         0.0064051335
      1   0 113 108        -0.0063161079
      1   0 114 112        -0.0057359932
      1   0 164 158         0.0056175738
      1   0  12   9        -0.0055382282
      1   0 117 108        -0.0055050386

    Largest TIjAb Amplitudes:
      1   1 157 158         0.0943181156
      1   1 157 159        -0.0546264649
      0   1 157 158        -0.0514811337
      0   0 157 158         0.0509576162
      2   1  78 158        -0.0451304137
      1   1 158 158         0.0450710699
      1   1 157 162         0.0399396681
      2   0  78 158         0.0387981256
      1   0 157 158        -0.0369166122
      1   1 161 158        -0.0355630574

    SCF energy       (wfn)                    = -289.442777111705368
    Reference energy (file100)                = -289.442777111705425

    Opposite-spin MP2 correlation energy      =   -0.078904138286728
    Same-spin MP2 correlation energy          =   -0.010200654732055
    MP2 correlation energy                    =   -0.089104793018814
      * MP2 total energy                      = -289.531881904724230

    Opposite-spin CCSD correlation energy     =   -0.098693244022959
    Same-spin CCSD correlation energy         =   -0.011298731065024
    CCSD correlation energy                   =   -0.109991974779615
      * CCSD total energy                     = -289.552769086485057


*** tstop() called on cqc05 at Fri Aug 21 06:20:05 2020
Module time:
	user time   =      21.44 seconds =       0.36 minutes
	system time =      31.79 seconds =       0.53 minutes
	total time  =         58 seconds =       0.97 minutes
Total time:
	user time   =     114.94 seconds =       1.92 minutes
	system time =      61.24 seconds =       1.02 minutes
	total time  =        181 seconds =       3.02 minutes

*** Psi4 exiting successfully. Buy a developer a beer!
