
    -----------------------------------------------------------------------
          Psi4: An Open-Source Ab Initio Electronic Structure Package
                               Psi4 1.4a3.dev88 

                         Git: Rev {master} 262e345 


    D. G. A. Smith, L. A. Burns, A. C. Simmonett, R. M. Parrish,
    M. C. Schieber, R. Galvelis, P. Kraus, H. Kruse, R. Di Remigio,
    A. Alenaizan, A. M. James, S. Lehtola, J. P. Misiewicz, M. Scheurer,
    R. A. Shaw, J. B. Schriber, Y. Xie, Z. L. Glick, D. A. Sirianni,
    J. S. O'Brien, J. M. Waldrop, A. Kumar, E. G. Hohenstein,
    B. P. Pritchard, B. R. Brooks, H. F. Schaefer III, A. Yu. Sokolov,
    K. Patkowski, A. E. DePrince III, U. Bozkaya, R. A. King,
    F. A. Evangelista, J. M. Turney, T. D. Crawford, C. D. Sherrill,
    J. Chem. Phys. 152(18) 184108 (2020). https://doi.org/10.1063/5.0006002

                            Additional Code Authors
    E. T. Seidl, C. L. Janssen, E. F. Valeev, M. L. Leininger,
    J. F. Gonthier, R. M. Richard, H. R. McAlexander, M. Saitow, X. Wang,
    P. Verma, and M. H. Lechner

             Previous Authors, Complete List of Code Contributors,
                       and Citations for Specific Modules
    https://github.com/psi4/psi4/blob/master/codemeta.json
    https://github.com/psi4/psi4/graphs/contributors
    http://psicode.org/psi4manual/master/introduction.html#citing-psifour

    -----------------------------------------------------------------------


    Psi4 started on: Tuesday, 26 January 2021 06:14PM

    Process ID: 404890
    Host:       n412-040.vsc4.prov
    PSIDATADIR: /home/fs71337/gallo4/psi4/eri-6/psi4/build/stage/share/psi4
    Memory:     500.0 MiB
    Threads:    48
    
  ==> Input File <==

--------------------------------------------------------------------------
# Any line starting with the # character is a comment line
memory 250000 mb
molecule molecule{
0 1
O          0.0000000000        0.0000000000       -0.0661495700
H          0.0000000000       -0.7581329363        0.5250081505
H          0.0000000000        0.7581329363        0.5250081505
}

set {
  reference rhf
  basis aug-cc-pV(t+d)Z
  scf_type OUT_OF_CORE
  freeze_core true
}

energy('ccsd(t)')
--------------------------------------------------------------------------

  Memory set to 232.831 GiB by Python driver.

Scratch directory: /binfl/lv71337/airmler/temp/

*** tstart() called on n412-040.vsc4.prov
*** at Tue Jan 26 18:14:43 2021

   => Loading Basis Set <=

    Name: AUG-CC-PV(T+D)Z
    Role: ORBITAL
    Keyword: BASIS
    atoms 1   entry O          line   359 file /home/fs71337/gallo4/psi4/eri-6/psi4/build/stage/share/psi4/basis/aug-cc-pv_tpd_z.gbs 
    atoms 2-3 entry H          line    68 file /home/fs71337/gallo4/psi4/eri-6/psi4/build/stage/share/psi4/basis/aug-cc-pv_tpd_z.gbs 


         ---------------------------------------------------------
                                   SCF
               by Justin Turney, Rob Parrish, Andy Simmonett
                          and Daniel G. A. Smith
                              RHF Reference
                       48 Threads, 238418 MiB Core
         ---------------------------------------------------------

  ==> Geometry <==

    Molecular point group: c2v
    Full point group: C2v

    Geometry (in Angstrom), charge = 0, multiplicity = 1:

       Center              X                  Y                   Z               Mass       
    ------------   -----------------  -----------------  -----------------  -----------------
         O           -0.000000000000     0.000000000000    -0.066159341383    15.994914619570
         H            0.000000000000    -0.758132936300     0.524998379117     1.007825032230
         H           -0.000000000000     0.758132936300     0.524998379117     1.007825032230

  Running in c2v symmetry.

  Rotational constants: A =     26.94760  B =     14.55093  C =      9.44883 [cm^-1]
  Rotational constants: A = 807868.61068  B = 436225.78568  C = 283268.79411 [MHz]
  Nuclear repulsion =    9.156048615399548

  Charge       = 0
  Multiplicity = 1
  Electrons    = 10
  Nalpha       = 5
  Nbeta        = 5

  ==> Algorithm <==

  SCF Algorithm Type is OUT_OF_CORE.
  DIIS enabled.
  MOM disabled.
  Fractional occupation disabled.
  Guess Type is SAD.
  Energy threshold   = 1.00e-08
  Density threshold  = 1.00e-08
  Integral threshold = 1.00e-12

  ==> Primary Basis <==

  Basis Set: AUG-CC-PV(T+D)Z
    Blend: AUG-CC-PV(T+D)Z
    Number of shells: 32
    Number of basis function: 92
    Number of Cartesian functions: 105
    Spherical Harmonics?: true
    Max angular momentum: 3

  ==> Integral Setup <==

  ==> DiskJK: Disk-Based J/K Matrices <==

    J tasked:                  Yes
    K tasked:                  Yes
    wK tasked:                  No
    Memory [MiB]:           178813
    Schwarz Cutoff:          1E-12

  Minimum eigenvalue in the overlap matrix is 3.4011021479E-04.
  Reciprocal condition number of the overlap matrix is 5.9430528550E-05.
    Using symmetric orthogonalization.

  ==> Pre-Iterations <==

  SCF Guess: Superposition of Atomic Densities via on-the-fly atomic UHF (no occupation information).


 WARNING: Atomic UHF is not converging! Try casting from a smaller basis or call Rob at CCMST.

 WARNING: Atomic UHF is not converging! Try casting from a smaller basis or call Rob at CCMST.
   -------------------------
    Irrep   Nso     Nmo    
   -------------------------
     A1        35      35 
     A2        12      12 
     B1        18      18 
     B2        27      27 
   -------------------------
    Total      92      92
   -------------------------

  ==> Iterations <==

                        Total Energy        Delta E     RMS |[F,P]|

   @RHF iter SAD:   -75.28138904317224   -7.52814e+01   0.00000e+00 
   @RHF iter   1:   -75.95817223457624   -6.76783e-01   1.05804e-02 DIIS
   @RHF iter   2:   -76.01944518004004   -6.12729e-02   7.34769e-03 DIIS
   @RHF iter   3:   -76.05993757931795   -4.04924e-02   4.12906e-04 DIIS
   @RHF iter   4:   -76.06026090603191   -3.23327e-04   9.55986e-05 DIIS
   @RHF iter   5:   -76.06028041037163   -1.95043e-05   2.08152e-05 DIIS
   @RHF iter   6:   -76.06028183550663   -1.42513e-06   5.02937e-06 DIIS
   @RHF iter   7:   -76.06028193153716   -9.60305e-08   9.46347e-07 DIIS
   @RHF iter   8:   -76.06028193466453   -3.12737e-09   1.53300e-07 DIIS
   @RHF iter   9:   -76.06028193472160   -5.70708e-11   3.19754e-08 DIIS
   @RHF iter  10:   -76.06028193472469   -3.08376e-12   5.86056e-09 DIIS
  Energy and wave function converged.


  ==> Post-Iterations <==

    Orbital Energies [Eh]
    ---------------------

    Doubly Occupied:                                                      

       1A1   -20.568100     2A1    -1.351764     1B2    -0.714798  
       3A1    -0.584947     1B1    -0.510141  

    Virtual:                                                              

       4A1     0.029366     2B2     0.047693     5A1     0.135887  
       2B1     0.158784     6A1     0.175162     3B2     0.183083  
       4B2     0.227119     7A1     0.244920     1A2     0.265392  
       3B1     0.300003     8A1     0.310128     5B2     0.365782  
       9A1     0.437322     6B2     0.466025     7B2     0.599181  
      10A1     0.658464    11A1     0.707948     2A2     0.722646  
       4B1     0.731660    12A1     0.830505     5B1     0.846323  
      13A1     0.892200     8B2     0.912466     6B1     0.918254  
       3A2     0.922357     9B2     0.930781    14A1     0.961359  
      15A1     1.020814    10B2     1.043063     7B1     1.082483  
      11B2     1.108396     4A2     1.176137    16A1     1.181783  
      12B2     1.261017     5A2     1.510028    17A1     1.535034  
       8B1     1.582526    18A1     1.805309    13B2     1.820244  
      14B2     1.983777    19A1     2.117140     9B1     2.262590  
       6A2     2.315609    20A1     2.326744    21A1     2.418182  
      10B1     2.420480    15B2     2.443031    22A1     2.479530  
      16B2     2.677294    11B1     2.698018    23A1     2.770613  
      17B2     2.815301     7A2     2.883788    18B2     3.651998  
      24A1     3.740701     8A2     4.017420    12B1     4.082433  
      25A1     4.163327    19B2     4.246716    13B1     4.286818  
      26A1     4.374090     9A2     4.376975    14B1     4.404411  
      20B2     4.516955    27A1     4.724192    21B2     4.841915  
      10A2     5.147184    22B2     5.147519    23B2     5.248961  
      28A1     5.321662    15B1     5.520124    29A1     5.661359  
      30A1     6.176696    24B2     6.513056    16B1     6.708794  
      31A1     6.896964    17B1     7.131038    18B1     7.250850  
      25B2     7.298219    11A2     7.311084    32A1     7.328204  
      12A2     7.354161    33A1     7.529878    34A1     7.895687  
      26B2     7.921091    27B2     8.798390    35A1    15.704179  

    Final Occupation by Irrep:
             A1    A2    B1    B2 
    DOCC [     3,    0,    1,    1 ]

  @RHF Final Energy:   -76.06028193472469

   => Energetics <=

    Nuclear Repulsion Energy =              9.1560486153995484
    One-Electron Energy =                -122.9731594342162282
    Two-Electron Energy =                  37.7568288840919948
    Total Energy =                        -76.0602819347246850

Computation Completed


Properties will be evaluated at   0.000000,   0.000000,   0.000000 [a0]

Properties computed using the SCF density matrix

  Nuclear Dipole Moment: [e a0]
     X:     0.0000      Y:     0.0000      Z:     0.9840

  Electronic Dipole Moment: [e a0]
     X:     0.0000      Y:     0.0000      Z:    -0.2001

  Dipole Moment: [e a0]
     X:     0.0000      Y:     0.0000      Z:     0.7840     Total:     0.7840

  Dipole Moment: [D]
     X:     0.0000      Y:     0.0000      Z:     1.9926     Total:     1.9926


*** tstop() called on n412-040.vsc4.prov at Tue Jan 26 18:14:46 2021
Module time:
	user time   =      24.40 seconds =       0.41 minutes
	system time =       1.10 seconds =       0.02 minutes
	total time  =          3 seconds =       0.05 minutes
Total time:
	user time   =      24.40 seconds =       0.41 minutes
	system time =       1.10 seconds =       0.02 minutes
	total time  =          3 seconds =       0.05 minutes

*** tstart() called on n412-040.vsc4.prov
*** at Tue Jan 26 18:14:46 2021


	Wfn Parameters:
	--------------------
	Wavefunction         = CCSD_T
	Number of irreps     = 4
	Number of MOs        = 92
	Number of active MOs = 91
	AO-Basis             = NONE
	Semicanonical        = false
	Reference            = RHF
	Print Level          = 1

	IRREP	# MOs	# FZDC	# DOCC	# SOCC	# VIRT	# FZVR
	-----	-----	------	------	------	------	------
	 A1	   35	    1	    2	    0	    32	    0
	 A2	   12	    0	    0	    0	    12	    0
	 B1	   18	    0	    1	    0	    17	    0
	 B2	   27	    0	    1	    0	    26	    0
	Transforming integrals...
	IWL integrals will be deleted.
	(OO|OO)...
	Presorting SO-basis two-electron integrals.
	Sorting File: SO Ints (nn|nn) nbuckets = 1
	Constructing frozen core operators
	Starting first half-transformation.
	Sorting half-transformed integrals.
	First half integral transformation complete.
	Starting second half-transformation.
	Two-electron integral transformation complete.
	(OO|OV)...
	Starting second half-transformation.
	Two-electron integral transformation complete.
	(OO|VV)...
	Starting second half-transformation.
	Two-electron integral transformation complete.
	(OV|OO)...
	Starting first half-transformation.
	Sorting half-transformed integrals.
	First half integral transformation complete.
	Starting second half-transformation.
	Two-electron integral transformation complete.
	(OV|OV)...
	Starting second half-transformation.
	Two-electron integral transformation complete.
	(OV|VV)...
	Starting second half-transformation.
	Two-electron integral transformation complete.
	(VV|OO)...
	Starting first half-transformation.
	Sorting half-transformed integrals.
	First half integral transformation complete.
	Starting second half-transformation.
	Two-electron integral transformation complete.
	(VV|OV)...
	Starting second half-transformation.
	Two-electron integral transformation complete.
	(VV|VV)...
	Starting second half-transformation.
	Two-electron integral transformation complete.
	Frozen core energy     =    -61.30722172973741

	Size of irrep 0 of <ab|cd> integrals:      4.550 (MW) /     36.398 (MB)
	Size of irrep 1 of <ab|cd> integrals:      2.729 (MW) /     21.833 (MB)
	Size of irrep 2 of <ab|cd> integrals:      2.931 (MW) /     23.448 (MB)
	Size of irrep 3 of <ab|cd> integrals:      4.293 (MW) /     34.345 (MB)
	Total:                                    14.503 (MW) /    116.023 (MB)

	Size of irrep 0 of <ia|bc> integrals:      0.228 (MW) /      1.826 (MB)
	Size of irrep 1 of <ia|bc> integrals:      0.111 (MW) /      0.885 (MB)
	Size of irrep 2 of <ia|bc> integrals:      0.134 (MW) /      1.068 (MB)
	Size of irrep 3 of <ia|bc> integrals:      0.199 (MW) /      1.591 (MB)
	Total:                                     0.671 (MW) /      5.371 (MB)

	Size of irrep 0 of tijab amplitudes:       0.013 (MW) /      0.102 (MB)
	Size of irrep 1 of tijab amplitudes:       0.003 (MW) /      0.026 (MB)
	Size of irrep 2 of tijab amplitudes:       0.007 (MW) /      0.055 (MB)
	Size of irrep 3 of tijab amplitudes:       0.008 (MW) /      0.066 (MB)
	Total:                                     0.031 (MW) /      0.250 (MB)

	Nuclear Rep. energy          =      9.15604861539955
	SCF energy                   =    -76.06028193472469
	One-electron energy          =    -41.49491601141423
	Two-electron energy          =     17.58580719102718
	Reference energy             =    -76.06028193472491

*** tstop() called on n412-040.vsc4.prov at Tue Jan 26 18:14:52 2021
Module time:
	user time   =       1.02 seconds =       0.02 minutes
	system time =       0.67 seconds =       0.01 minutes
	total time  =          6 seconds =       0.10 minutes
Total time:
	user time   =      25.42 seconds =       0.42 minutes
	system time =       1.77 seconds =       0.03 minutes
	total time  =          9 seconds =       0.15 minutes
            **************************
            *                        *
            *        CCENERGY        *
            *                        *
            **************************

    Nuclear Rep. energy (wfn)     =    9.156048615399548
    SCF energy          (wfn)     =  -76.060281934724685
    Reference energy    (file100) =  -76.060281934724912

    Input parameters:
    -----------------
    Wave function   =     CCSD_T
    Reference wfn   =     RHF
    Brueckner       =     No
    Memory (Mbytes) =     250000.0
    Maxiter         =     50
    R_Convergence   =     1.0e-07
    E_Convergence   =     1.0e-06
    Restart         =     Yes
    DIIS            =     Yes
    AO Basis        =     NONE
    ABCD            =     NEW
    Cache Level     =     2
    Cache Type      =     LOW
    Print Level     =     1
    Num. of threads =     48
    # Amps to Print =     10
    Print MP2 Amps? =     No
    Analyze T2 Amps =     No
    Print Pair Ener =     No
    Local CC        =     No
    SCS-MP2         =     False
    SCSN-MP2        =     False
    SCS-CCSD        =     False

MP2 correlation energy -0.2687104659146711
                Solving CC Amplitude Equations
                ------------------------------
  Iter             Energy              RMS        T1Diag      D1Diag    New D1Diag    D2Diag
  ----     ---------------------    ---------   ----------  ----------  ----------   --------
     0        -0.268710465914671    0.000e+00    0.000000    0.000000    0.000000    0.117776
     1        -0.267199932327075    3.561e-02    0.008559    0.017347    0.017347    0.120527
     2        -0.272158840042377    1.246e-02    0.008403    0.017204    0.017204    0.124991
     3        -0.273488094849208    4.894e-03    0.009757    0.020491    0.020491    0.127123
     4        -0.273357034482420    1.029e-03    0.009934    0.020967    0.020967    0.127293
     5        -0.273372386358250    3.752e-04    0.010031    0.021264    0.021264    0.127346
     6        -0.273377378574306    9.284e-05    0.010054    0.021343    0.021343    0.127340
     7        -0.273375110482048    3.128e-05    0.010059    0.021361    0.021361    0.127332
     8        -0.273374839486841    8.781e-06    0.010060    0.021367    0.021367    0.127331
     9        -0.273374923713807    2.790e-06    0.010061    0.021368    0.021368    0.127331
    10        -0.273374754791721    1.088e-06    0.010061    0.021368    0.021368    0.127331
    11        -0.273374778652847    3.537e-07    0.010061    0.021368    0.021368    0.127331
    12        -0.273374771085717    1.392e-07    0.010061    0.021368    0.021368    0.127331
    13        -0.273374772101412    4.291e-08    0.010061    0.021368    0.021368    0.127331

    Iterations converged.


    Largest TIA Amplitudes:
              2  44        -0.0151205587
              2  45        -0.0130427260
              1   1         0.0085150398
              1   4        -0.0078017633
              3  73         0.0054397409
              2  54         0.0042778762
              3  69         0.0037981539
              2  47        -0.0036751287
              3  80         0.0036079351
              1  23         0.0033955463

    Largest TIjAb Amplitudes:
      3   3  65  65        -0.0216099272
      1   1   9   9        -0.0199102837
      2   2  49  49        -0.0156578917
      3   3  65  69        -0.0155642223
      3   3  69  65        -0.0155642223
      3   3  66  66        -0.0148773301
      1   1  66  66        -0.0137806957
      2   2  48  48        -0.0134806781
      3   3  69  69        -0.0132069705
      1   3   9  65         0.0128436654

    SCF energy       (wfn)                    =  -76.060281934724685
    Reference energy (file100)                =  -76.060281934724912

    Opposite-spin MP2 correlation energy      =   -0.203490217567711
    Same-spin MP2 correlation energy          =   -0.065220248346960
    Singles MP2 correlation energy            =   -0.000000000000000
    MP2 correlation energy                    =   -0.268710465914671
      * MP2 total energy                      =  -76.328992400639578

    Opposite-spin CCSD correlation energy     =   -0.215475322240392
    Same-spin CCSD correlation energy         =   -0.057899449861019
    Singles CCSD correlation energy           =    0.000000000000000
    CCSD correlation energy                   =   -0.273374772101412
      * CCSD total energy                     =  -76.333656706826318

            **************************
            *                        *
            *        CCTRIPLES       *
            *                        *
            **************************


    Wave function   =    CCSD_T
    Reference wfn   =      RHF

    Nuclear Rep. energy (wfn)                =    9.156048615399548
    SCF energy          (wfn)                =  -76.060281934724685
    Reference energy    (file100)            =  -76.060281934724912
    CCSD energy         (file100)            =   -0.273374772101412
    Total CCSD energy   (file100)            =  -76.333656706826318

    Number of ijk index combinations:               20
    Memory available in words        :     31250000000
    ~Words needed per explicit thread:          131072
    Number of threads for explicit ijk threading:   48

    (T) energy                                =   -0.008668880590218
      * CCSD(T) total energy                  =  -76.342325587416539


    Psi4 stopped on: Tuesday, 26 January 2021 06:14PM
    Psi4 wall time for execution: 0:00:12.82

*** Psi4 exiting successfully. Buy a developer a beer!
