
    -----------------------------------------------------------------------
          Psi4: An Open-Source Ab Initio Electronic Structure Package
                               Psi4 1.4a3.dev88 

                         Git: Rev {master} 262e345 


    D. G. A. Smith, L. A. Burns, A. C. Simmonett, R. M. Parrish,
    M. C. Schieber, R. Galvelis, P. Kraus, H. Kruse, R. Di Remigio,
    A. Alenaizan, A. M. James, S. Lehtola, J. P. Misiewicz, M. Scheurer,
    R. A. Shaw, J. B. Schriber, Y. Xie, Z. L. Glick, D. A. Sirianni,
    J. S. O'Brien, J. M. Waldrop, A. Kumar, E. G. Hohenstein,
    B. P. Pritchard, B. R. Brooks, H. F. Schaefer III, A. Yu. Sokolov,
    K. Patkowski, A. E. DePrince III, U. Bozkaya, R. A. King,
    F. A. Evangelista, J. M. Turney, T. D. Crawford, C. D. Sherrill,
    J. Chem. Phys. 152(18) 184108 (2020). https://doi.org/10.1063/5.0006002

                            Additional Code Authors
    E. T. Seidl, C. L. Janssen, E. F. Valeev, M. L. Leininger,
    J. F. Gonthier, R. M. Richard, H. R. McAlexander, M. Saitow, X. Wang,
    P. Verma, and M. H. Lechner

             Previous Authors, Complete List of Code Contributors,
                       and Citations for Specific Modules
    https://github.com/psi4/psi4/blob/master/codemeta.json
    https://github.com/psi4/psi4/graphs/contributors
    http://psicode.org/psi4manual/master/introduction.html#citing-psifour

    -----------------------------------------------------------------------


    Psi4 started on: Friday, 22 January 2021 10:14AM

    Process ID: 315879
    Host:       n412-047.vsc4.prov
    PSIDATADIR: /home/fs71337/gallo4/psi4/eri-6/psi4/build/stage/share/psi4
    Memory:     500.0 MiB
    Threads:    48
    
  ==> Input File <==

--------------------------------------------------------------------------
# Any line starting with the # character is a comment line
memory 250000 mb
molecule molecule{
0 1
O          0.0000000000        0.0000000000       -0.0661495700
H          0.0000000000       -0.7581329363        0.5250081505
H          0.0000000000        0.7581329363        0.5250081505
}

set {
  reference rhf
  basis aug-cc-pV(6+d)Z
  scf_type OUT_OF_CORE
  freeze_core true
}

energy('ccsd(t)')
--------------------------------------------------------------------------

  Memory set to 232.831 GiB by Python driver.

Scratch directory: /binfl/lv71337/airmler/temp/

*** tstart() called on n412-047.vsc4.prov
*** at Fri Jan 22 10:14:38 2021

   => Loading Basis Set <=

    Name: AUG-CC-PV(6+D)Z
    Role: ORBITAL
    Keyword: BASIS
    atoms 1   entry O          line   459 file /home/fs71337/gallo4/psi4/eri-6/psi4/build/stage/share/psi4/basis/aug-cc-pv_6pd_z.gbs 
    atoms 2-3 entry H          line    51 file /home/fs71337/gallo4/psi4/eri-6/psi4/build/stage/share/psi4/basis/aug-cc-pv_6pd_z.gbs 


         ---------------------------------------------------------
                                   SCF
               by Justin Turney, Rob Parrish, Andy Simmonett
                          and Daniel G. A. Smith
                              RHF Reference
                       48 Threads, 238418 MiB Core
         ---------------------------------------------------------

  ==> Geometry <==

    Molecular point group: c2v
    Full point group: C2v

    Geometry (in Angstrom), charge = 0, multiplicity = 1:

       Center              X                  Y                   Z               Mass       
    ------------   -----------------  -----------------  -----------------  -----------------
         O           -0.000000000000     0.000000000000    -0.066159341383    15.994914619570
         H            0.000000000000    -0.758132936300     0.524998379117     1.007825032230
         H           -0.000000000000     0.758132936300     0.524998379117     1.007825032230

  Running in c2v symmetry.

  Rotational constants: A =     26.94760  B =     14.55093  C =      9.44883 [cm^-1]
  Rotational constants: A = 807868.61068  B = 436225.78568  C = 283268.79411 [MHz]
  Nuclear repulsion =    9.156048615399548

  Charge       = 0
  Multiplicity = 1
  Electrons    = 10
  Nalpha       = 5
  Nbeta        = 5

  ==> Algorithm <==

  SCF Algorithm Type is OUT_OF_CORE.
  DIIS enabled.
  MOM disabled.
  Fractional occupation disabled.
  Guess Type is SAD.
  Energy threshold   = 1.00e-08
  Density threshold  = 1.00e-08
  Integral threshold = 1.00e-12

  ==> Primary Basis <==

  Basis Set: AUG-CC-PV(6+D)Z
    Blend: AUG-CC-PV(6+D)Z
    Number of shells: 89
    Number of basis function: 443
    Number of Cartesian functions: 658
    Spherical Harmonics?: true
    Max angular momentum: 6

  ==> Integral Setup <==

  ==> DiskJK: Disk-Based J/K Matrices <==

    J tasked:                  Yes
    K tasked:                  Yes
    wK tasked:                  No
    Memory [MiB]:           178813
    Schwarz Cutoff:          1E-12

  Minimum eigenvalue in the overlap matrix is 2.6535968786E-06.
  Reciprocal condition number of the overlap matrix is 3.1035029874E-07.
    Using symmetric orthogonalization.

  ==> Pre-Iterations <==

  SCF Guess: Superposition of Atomic Densities via on-the-fly atomic UHF (no occupation information).


 WARNING: Atomic UHF is not converging! Try casting from a smaller basis or call Rob at CCMST.

 WARNING: Atomic UHF is not converging! Try casting from a smaller basis or call Rob at CCMST.
   -------------------------
    Irrep   Nso     Nmo    
   -------------------------
     A1       143     143 
     A2        81      81 
     B1        96      96 
     B2       123     123 
   -------------------------
    Total     443     443
   -------------------------

  ==> Iterations <==

                        Total Energy        Delta E     RMS |[F,P]|

   @RHF iter SAD:   -50.48993329462450   -5.04899e+01   0.00000e+00 
    Occupation by irrep:
             A1    A2    B1    B2 
    DOCC [     3,    0,    0,    2 ]

   @RHF iter   1:   -73.06678320256162   -2.25768e+01   1.39036e-02 DIIS
    Occupation by irrep:
             A1    A2    B1    B2 
    DOCC [     3,    0,    1,    1 ]

   @RHF iter   2:   -69.17016215350483    3.89662e+00   1.01809e-02 DIIS
   @RHF iter   3:   -75.34994142068939   -6.17978e+00   6.29608e-03 DIIS
   @RHF iter   4:   -75.99140880535921   -6.41467e-01   1.84827e-03 DIIS
   @RHF iter   5:   -76.06613001329839   -7.47212e-02   1.50531e-04 DIIS
   @RHF iter   6:   -76.06699907310211   -8.69060e-04   7.20078e-05 DIIS
   @RHF iter   7:   -76.06709605002763   -9.69769e-05   2.07350e-05 DIIS
   @RHF iter   8:   -76.06710640497461   -1.03549e-05   3.59436e-06 DIIS
   @RHF iter   9:   -76.06710682179462   -4.16820e-07   3.20767e-07 DIIS
   @RHF iter  10:   -76.06710682470907   -2.91445e-09   8.91078e-08 DIIS
   @RHF iter  11:   -76.06710682496868   -2.59604e-10   9.00767e-09 DIIS
  Energy and wave function converged.


  ==> Post-Iterations <==

    Orbital Energies [Eh]
    ---------------------

    Doubly Occupied:                                                      

       1A1   -20.564873     2A1    -1.350789     1B2    -0.714738  
       3A1    -0.584982     1B1    -0.510305  

    Virtual:                                                              

       4A1     0.020765     2B2     0.032315     5A1     0.067325  
       2B1     0.077915     3B2     0.105574     6A1     0.111550  
       4B2     0.140450     7A1     0.147755     1A2     0.157241  
       3B1     0.172899     8A1     0.177970     5B2     0.217349  
       9A1     0.237728     6B2     0.262416    10A1     0.328890  
       7B2     0.336754     4B1     0.370874    11A1     0.373379  
      12A1     0.385817     5B1     0.396438     8B2     0.408560  
       2A2     0.412663     3A2     0.419687     6B1     0.429758  
      13A1     0.430790    14A1     0.446999     7B1     0.454885  
       9B2     0.485083    10B2     0.518182    15A1     0.527553  
       4A2     0.530120    11B2     0.561294    16A1     0.571426  
      12B2     0.607010    17A1     0.713592    13B2     0.747126  
      18A1     0.790512     5A2     0.833038     8B1     0.858187  
      19A1     0.878255     9B1     0.904382    20A1     0.906994  
       6A2     0.928433    21A1     0.947367    10B1     0.948513  
      14B2     0.966968    15B2     0.998568    22A1     1.014448  
      11B1     1.023044     7A2     1.045932    16B2     1.046436  
      23A1     1.067436    12B1     1.075939    17B2     1.108518  
      24A1     1.130257    13B1     1.145798     8A2     1.157836  
      18B2     1.163760    19B2     1.171381    25A1     1.180837  
       9A2     1.201618    26A1     1.218936    14B1     1.249549  
      20B2     1.249566    21B2     1.288007    27A1     1.361787  
      28A1     1.437556    10A2     1.473771    15B1     1.480084  
      22B2     1.559786    29A1     1.589041    30A1     1.753784  
      23B2     1.784574    11A2     1.841294    16B1     1.845302  
      24B2     1.883128    31A1     1.937086    25B2     1.950798  
      17B1     1.990564    32A1     1.993142    26B2     2.026892  
      33A1     2.123145    12A2     2.135272    18B1     2.152872  
      27B2     2.191165    19B1     2.191650    34A1     2.202558  
      13A2     2.226423    35A1     2.269952    14A2     2.277473  
      28B2     2.335656    20B1     2.338610    36A1     2.348716  
      37A1     2.359224    21B1     2.360174    22B1     2.381265  
      29B2     2.389885    15A2     2.419096    30B2     2.450563  
      38A1     2.456239    39A1     2.469157    16A2     2.483231  
      17A2     2.497168    40A1     2.517416    31B2     2.535949  
      23B1     2.584473    18A2     2.611056    32B2     2.615242  
      41A1     2.629277    24B1     2.670943    33B2     2.691382  
      42A1     2.703393    34B2     2.768652    25B1     2.769832  
      43A1     2.776370    44A1     2.822949    35B2     2.858459  
      26B1     2.869579    19A2     2.878294    20A2     2.940276  
      36B2     2.970496    45A1     2.995448    37B2     3.119841  
      27B1     3.130636    46A1     3.158004    47A1     3.466811  
      38B2     3.515539    21A2     3.628565    48A1     3.699558  
      39B2     3.701634    28B1     3.816995    29B1     3.853036  
      49A1     4.019750    40B2     4.072479    22A2     4.112566  
      50A1     4.131462    30B1     4.213158    41B2     4.234471  
      42B2     4.352329    51A1     4.353000    31B1     4.391374  
      52A1     4.406981    43B2     4.441453    23A2     4.513425  
      53A1     4.553054    24A2     4.566648    32B1     4.639336  
      44B2     4.662526    54A1     4.666828    25A2     4.719935  
      45B2     4.722366    33B1     4.757236    46B2     4.782778  
      26A2     4.801586    55A1     4.808043    34B1     4.825626  
      56A1     4.883104    35B1     4.910913    57A1     4.930666  
      27A2     4.943612    47B2     4.977201    58A1     4.989129  
      48B2     5.040440    36B1     5.081194    59A1     5.090610  
      28A2     5.100345    29A2     5.137223    37B1     5.148384  
      49B2     5.162971    60A1     5.174648    30A2     5.175597  
      61A1     5.225996    38B1     5.230865    50B2     5.274540  
      62A1     5.300203    39B1     5.344606    31A2     5.353762  
      51B2     5.361742    52B2     5.427547    53B2     5.442361  
      32A2     5.473586    40B1     5.488016    63A1     5.537178  
      54B2     5.562273    41B1     5.619637    64A1     5.642005  
      33A2     5.666918    55B2     5.757787    34A2     5.772529  
      65A1     5.826793    42B1     5.862695    66A1     5.901228  
      56B2     6.081593    43B1     6.134666    57B2     6.148667  
      67A1     6.155897    68A1     6.222163    69A1     6.353924  
      44B1     6.427822    58B2     6.470608    59B2     6.540864  
      35A2     6.639138    70A1     6.661909    71A1     7.010341  
      72A1     7.150355    45B1     7.222750    36A2     7.320947  
      46B1     7.387596    60B2     7.497413    61B2     7.625598  
      73A1     7.681810    37A2     7.715990    74A1     7.859796  
      47B1     7.886447    62B2     7.999552    48B1     8.081761  
      75A1     8.119257    38A2     8.126774    63B2     8.210685  
      39A2     8.445869    49B1     8.475813    76A1     8.512156  
      64B2     8.605001    40A2     9.002992    77A1     9.205851  
      65B2     9.238785    66B2     9.251523    78A1     9.325310  
      50B1     9.365337    41A2     9.437421    67B2     9.522557  
      68B2     9.553815    51B1     9.564455    79A1     9.565074  
      80A1     9.638977    52B1     9.674427    42A2     9.677354  
      81A1     9.697210    53B1     9.799070    69B2     9.857727  
      82A1     9.955182    70B2    10.033495    83A1    10.071360  
      54B1    10.077285    43A2    10.085053    71B2    10.146645  
      84A1    10.234989    44A2    10.423987    72B2    10.428147  
      55B1    10.565646    73B2    10.727522    85A1    10.755119  
      56B1    10.791475    45A2    10.837728    86A1    10.870649  
      46A2    10.958391    57B1    11.083297    87A1    11.086460  
      74B2    11.106270    88A1    11.118463    58B1    11.138627  
      47A2    11.171071    75B2    11.198358    89A1    11.208310  
      48A2    11.241617    76B2    11.261434    59B1    11.265217  
      49A2    11.358101    77B2    11.446545    90A1    11.468166  
      91A1    11.669599    78B2    11.870930    60B1    11.873691  
      92A1    11.896550    61B1    12.032872    79B2    12.217742  
      93A1    12.316085    50A2    12.364679    80B2    12.490509  
      94A1    12.649324    62B1    12.688008    63B1    13.040074  
      51A2    13.192052    81B2    13.261502    95A1    13.411708  
      96A1    13.637868    64B1    13.707143    52A2    13.801461  
      97A1    13.991635    82B2    14.093121    98A1    14.180796  
      65B1    14.377191    83B2    14.386898    53A2    14.404555  
      54A2    14.665298    84B2    14.702100    66B1    14.735240  
      99A1    14.905291    85B2    14.923192   100A1    15.259828  
      55A2    15.337206    67B1    15.660108   101A1    15.716224  
      86B2    15.773758    87B2    15.981321    68B1    16.002733  
     102A1    16.144313    56A2    16.180387   103A1    16.277112  
      88B2    17.066942    69B1    17.513536   104A1    17.652910  
      89B2    17.653476    70B1    17.698364    57A2    17.707189  
     105A1    18.034661    58A2    18.139192    90B2    18.203443  
      91B2    18.358724    59A2    18.541872    71B1    18.611513  
     106A1    18.944415   107A1    19.401556    92B2    19.680667  
      60A2    19.919245    93B2    19.927182   108A1    20.099715  
     109A1    20.159848    72B1    20.399051    73B1    20.464868  
     110A1    20.514798    61A2    20.526938    94B2    20.544949  
      74B1    20.702785    95B2    20.755385   111A1    20.923753  
      96B2    20.933544    62A2    20.990763   112A1    21.210489  
      63A2    21.244084    75B1    21.258324    97B2    21.359631  
     113A1    21.430675    76B1    21.484768    64A2    21.570001  
      98B2    21.602191   114A1    21.694510    77B1    21.705213  
      65A2    21.748313    78B1    21.785672    99B2    21.825754  
      66A2    21.895774   115A1    21.958405   100B2    22.226459  
     116A1    22.423139   117A1    22.851521   101B2    22.949952  
      79B1    23.297100    67A2    23.313143   118A1    23.360268  
      80B1    23.562963   119A1    23.642374    81B1    23.657337  
     102B2    23.723922   120A1    23.933749    68A2    24.126463  
     103B2    24.291894    82B1    24.360503   121A1    24.387959  
     104B2    24.413370    69A2    24.504480   122A1    24.570216  
      83B1    24.607920   105B2    24.684938    70A2    24.696310  
     106B2    24.860425   123A1    25.185946    71A2    25.370313  
     124A1    25.390354   107B2    25.776099    84B1    25.860212  
      72A2    26.354430    85B1    26.415894   125A1    26.475181  
     108B2    26.732628   126A1    26.937503    73A2    26.964341  
      86B1    26.985837   109B2    27.121621    87B1    27.209347  
     127A1    27.301636   110B2    27.373889   128A1    27.383357  
      88B1    27.550424    74A2    27.563799   111B2    27.846046  
      89B1    28.071286   129A1    28.107721   112B2    28.114366  
      75A2    28.230032   113B2    28.441642   130A1    28.550310  
      90B1    28.640827   114B2    28.773625   131A1    28.855931  
      76A2    28.861837   132A1    29.370023   133A1    29.791965  
     115B2    30.031186    91B1    30.404174   116B2    30.518804  
     134A1    32.510522    92B1    32.588539   135A1    33.155251  
      77A2    33.222965    93B1    33.233642   136A1    33.367705  
     117B2    33.661252    78A2    33.783808   118B2    33.915228  
     137A1    34.482695    79A2    34.495980    94B1    34.520283  
     138A1    35.252698   119B2    35.596572   120B2    35.884172  
      80A2    36.115719    95B1    36.155828   139A1    36.808685  
     140A1    38.488959    96B1    39.017739   121B2    39.056647  
      81A2    39.693657   141A1    40.269641   122B2    40.570862  
     142A1    41.336504   123B2    42.445727   143A1   108.816859  

    Final Occupation by Irrep:
             A1    A2    B1    B2 
    DOCC [     3,    0,    1,    1 ]

  @RHF Final Energy:   -76.06710682496868

   => Energetics <=

    Nuclear Repulsion Energy =              9.1560486153995484
    One-Electron Energy =                -122.9949370747706325
    Two-Electron Energy =                  37.7717816344023944
    Total Energy =                        -76.0671068249686755

Computation Completed


Properties will be evaluated at   0.000000,   0.000000,   0.000000 [a0]

Properties computed using the SCF density matrix

  Nuclear Dipole Moment: [e a0]
     X:     0.0000      Y:     0.0000      Z:     0.9840

  Electronic Dipole Moment: [e a0]
     X:     0.0000      Y:     0.0000      Z:    -0.2009

  Dipole Moment: [e a0]
     X:     0.0000      Y:     0.0000      Z:     0.7831     Total:     0.7831

  Dipole Moment: [D]
     X:     0.0000      Y:     0.0000      Z:     1.9905     Total:     1.9905


*** tstop() called on n412-047.vsc4.prov at Fri Jan 22 10:37:50 2021
Module time:
	user time   =     848.44 seconds =      14.14 minutes
	system time =     173.94 seconds =       2.90 minutes
	total time  =       1392 seconds =      23.20 minutes
Total time:
	user time   =     848.44 seconds =      14.14 minutes
	system time =     173.94 seconds =       2.90 minutes
	total time  =       1392 seconds =      23.20 minutes

*** tstart() called on n412-047.vsc4.prov
*** at Fri Jan 22 10:37:50 2021


	Wfn Parameters:
	--------------------
	Wavefunction         = CCSD_T
	Number of irreps     = 4
	Number of MOs        = 443
	Number of active MOs = 442
	AO-Basis             = NONE
	Semicanonical        = false
	Reference            = RHF
	Print Level          = 1

	IRREP	# MOs	# FZDC	# DOCC	# SOCC	# VIRT	# FZVR
	-----	-----	------	------	------	------	------
	 A1	   143	    1	    2	    0	    140	    0
	 A2	   81	    0	    0	    0	    81	    0
	 B1	   96	    0	    1	    0	    95	    0
	 B2	   123	    0	    1	    0	    122	    0
	Transforming integrals...
	IWL integrals will be deleted.
	(OO|OO)...
	Presorting SO-basis two-electron integrals.
	Sorting File: SO Ints (nn|nn) nbuckets = 1
	Constructing frozen core operators
	Starting first half-transformation.
	Sorting half-transformed integrals.
	First half integral transformation complete.
	Starting second half-transformation.
	Two-electron integral transformation complete.
	(OO|OV)...
	Starting second half-transformation.
	Two-electron integral transformation complete.
	(OO|VV)...
	Starting second half-transformation.
	Two-electron integral transformation complete.
	(OV|OO)...
	Starting first half-transformation.
	Sorting half-transformed integrals.
	First half integral transformation complete.
	Starting second half-transformation.
	Two-electron integral transformation complete.
	(OV|OV)...
	Starting second half-transformation.
	Two-electron integral transformation complete.
	(OV|VV)...
	Starting second half-transformation.
	Two-electron integral transformation complete.
	(VV|OO)...
	Starting first half-transformation.
	Sorting half-transformed integrals.
	First half integral transformation complete.
	Starting second half-transformation.
	Two-electron integral transformation complete.
	(VV|OV)...
	Starting second half-transformation.
	Two-electron integral transformation complete.
	(VV|VV)...
	Starting second half-transformation.
	Two-electron integral transformation complete.
	Frozen core energy     =    -61.30861365378209

	Size of irrep 0 of <ab|cd> integrals:   2507.005 (MW) /  20056.039 (MB)
	Size of irrep 1 of <ab|cd> integrals:   2103.140 (MW) /  16825.117 (MB)
	Size of irrep 2 of <ab|cd> integrals:   2149.620 (MW) /  17196.964 (MB)
	Size of irrep 3 of <ab|cd> integrals:   2455.202 (MW) /  19641.620 (MB)
	Total:                                  9214.967 (MW) /  73719.740 (MB)

	Size of irrep 0 of <ia|bc> integrals:     24.885 (MW) /    199.078 (MB)
	Size of irrep 1 of <ia|bc> integrals:     17.381 (MW) /    139.048 (MB)
	Size of irrep 2 of <ia|bc> integrals:     19.056 (MW) /    152.445 (MB)
	Size of irrep 3 of <ia|bc> integrals:     23.041 (MW) /    184.326 (MB)
	Total:                                    84.362 (MW) /    674.897 (MB)

	Size of irrep 0 of tijab amplitudes:       0.300 (MW) /      2.403 (MB)
	Size of irrep 1 of tijab amplitudes:       0.092 (MW) /      0.734 (MB)
	Size of irrep 2 of tijab amplitudes:       0.185 (MW) /      1.484 (MB)
	Size of irrep 3 of tijab amplitudes:       0.198 (MW) /      1.586 (MB)
	Total:                                     0.776 (MW) /      6.206 (MB)

	Nuclear Rep. energy          =      9.15604861539955
	SCF energy                   =    -76.06710682496868
	One-electron energy          =    -41.50745304809386
	Two-electron energy          =     17.59291126150169
	Reference energy             =    -76.06710682497472

*** tstop() called on n412-047.vsc4.prov at Fri Jan 22 11:00:34 2021
Module time:
	user time   =     552.47 seconds =       9.21 minutes
	system time =     304.78 seconds =       5.08 minutes
	total time  =       1364 seconds =      22.73 minutes
Total time:
	user time   =    1400.91 seconds =      23.35 minutes
	system time =     478.72 seconds =       7.98 minutes
	total time  =       2756 seconds =      45.93 minutes
            **************************
            *                        *
            *        CCENERGY        *
            *                        *
            **************************

    Nuclear Rep. energy (wfn)     =    9.156048615399548
    SCF energy          (wfn)     =  -76.067106824968675
    Reference energy    (file100) =  -76.067106824974715

    Input parameters:
    -----------------
    Wave function   =     CCSD_T
    Reference wfn   =     RHF
    Brueckner       =     No
    Memory (Mbytes) =     250000.0
    Maxiter         =     50
    R_Convergence   =     1.0e-07
    E_Convergence   =     1.0e-06
    Restart         =     Yes
    DIIS            =     Yes
    AO Basis        =     NONE
    ABCD            =     NEW
    Cache Level     =     2
    Cache Type      =     LOW
    Print Level     =     1
    Num. of threads =     48
    # Amps to Print =     10
    Print MP2 Amps? =     No
    Analyze T2 Amps =     No
    Print Pair Ener =     No
    Local CC        =     No
    SCS-MP2         =     False
    SCSN-MP2        =     False
    SCS-CCSD        =     False

MP2 correlation energy -0.2962960637916747
                Solving CC Amplitude Equations
                ------------------------------
  Iter             Energy              RMS        T1Diag      D1Diag    New D1Diag    D2Diag
  ----     ---------------------    ---------   ----------  ----------  ----------   --------
     0        -0.296296063791675    0.000e+00    0.000000    0.000000    0.000000    0.119157
     1        -0.289107619792262    3.423e-02    0.007799    0.015130    0.015130    0.120238
     2        -0.294417228781686    1.240e-02    0.007588    0.014868    0.014868    0.124648
     3        -0.295758760587094    4.658e-03    0.008761    0.017770    0.017770    0.126769
     4        -0.295626819730967    1.078e-03    0.008918    0.018159    0.018159    0.126946
     5        -0.295636710663199    3.980e-04    0.009009    0.018445    0.018445    0.126998
     6        -0.295645342428861    1.022e-04    0.009033    0.018524    0.018524    0.126998
     7        -0.295643769598719    3.588e-05    0.009040    0.018547    0.018547    0.126990
     8        -0.295643034314936    1.011e-05    0.009041    0.018553    0.018553    0.126988
     9        -0.295643151807359    3.286e-06    0.009042    0.018555    0.018555    0.126988
    10        -0.295642963786940    1.202e-06    0.009042    0.018555    0.018555    0.126988
    11        -0.295642966523159    3.480e-07    0.009042    0.018555    0.018555    0.126988
    12        -0.295642960171352    1.478e-07    0.009042    0.018555    0.018555    0.126988
    13        -0.295642958016132    5.334e-08    0.009042    0.018555    0.018555    0.126988

    Iterations converged.


    Largest TIA Amplitudes:
              2 222        -0.0097675499
              2 221        -0.0088060692
              2 225        -0.0078472786
              2 224        -0.0059052587
              1   5         0.0046556996
              1   1        -0.0045210764
              2 226        -0.0041086544
              2 227        -0.0040693344
              1   4        -0.0039674296
              1   8         0.0039020827

    Largest TIjAb Amplitudes:
      3   3 326 326        -0.0185799435
      3   3 321 326        -0.0169888470
      3   3 326 321        -0.0169888470
      3   3 321 321        -0.0164023393
      2   2 232 232        -0.0138896503
      1   1  12  12        -0.0118495191
      3   3  13  13        -0.0106622033
      3   3 326 331        -0.0101546688
      3   3 331 326        -0.0101546688
      1   3  12 326        -0.0100049923

    SCF energy       (wfn)                    =  -76.067106824968675
    Reference energy (file100)                =  -76.067106824974715

    Opposite-spin MP2 correlation energy      =   -0.228201812347274
    Same-spin MP2 correlation energy          =   -0.068094251444401
    Singles MP2 correlation energy            =   -0.000000000000000
    MP2 correlation energy                    =   -0.296296063791675
      * MP2 total energy                      =  -76.363402888766387

    Opposite-spin CCSD correlation energy     =   -0.235276244455306
    Same-spin CCSD correlation energy         =   -0.060366713560944
    Singles CCSD correlation energy           =    0.000000000000000
    CCSD correlation energy                   =   -0.295642958016132
      * CCSD total energy                     =  -76.362749782990846

            **************************
            *                        *
            *        CCTRIPLES       *
            *                        *
            **************************


    Wave function   =    CCSD_T
    Reference wfn   =      RHF

    Nuclear Rep. energy (wfn)                =    9.156048615399548
    SCF energy          (wfn)                =  -76.067106824968675
    Reference energy    (file100)            =  -76.067106824974715
    CCSD energy         (file100)            =   -0.295642958016132
    Total CCSD energy   (file100)            =  -76.362749782990846

    Number of ijk index combinations:               20
    Memory available in words        :     31250000000
    ~Words needed per explicit thread:        10976000
    Number of threads for explicit ijk threading:   48

    (T) energy                                =   -0.009790646122806
      * CCSD(T) total energy                  =  -76.372540429113656


    Psi4 stopped on: Friday, 22 January 2021 11:13AM
    Psi4 wall time for execution: 0:59:12.48

*** Psi4 exiting successfully. Buy a developer a beer!
