
    -----------------------------------------------------------------------
          Psi4: An Open-Source Ab Initio Electronic Structure Package
                               Psi4 1.4a3.dev88 

                         Git: Rev {master} 262e345 


    D. G. A. Smith, L. A. Burns, A. C. Simmonett, R. M. Parrish,
    M. C. Schieber, R. Galvelis, P. Kraus, H. Kruse, R. Di Remigio,
    A. Alenaizan, A. M. James, S. Lehtola, J. P. Misiewicz, M. Scheurer,
    R. A. Shaw, J. B. Schriber, Y. Xie, Z. L. Glick, D. A. Sirianni,
    J. S. O'Brien, J. M. Waldrop, A. Kumar, E. G. Hohenstein,
    B. P. Pritchard, B. R. Brooks, H. F. Schaefer III, A. Yu. Sokolov,
    K. Patkowski, A. E. DePrince III, U. Bozkaya, R. A. King,
    F. A. Evangelista, J. M. Turney, T. D. Crawford, C. D. Sherrill,
    J. Chem. Phys. 152(18) 184108 (2020). https://doi.org/10.1063/5.0006002

                            Additional Code Authors
    E. T. Seidl, C. L. Janssen, E. F. Valeev, M. L. Leininger,
    J. F. Gonthier, R. M. Richard, H. R. McAlexander, M. Saitow, X. Wang,
    P. Verma, and M. H. Lechner

             Previous Authors, Complete List of Code Contributors,
                       and Citations for Specific Modules
    https://github.com/psi4/psi4/blob/master/codemeta.json
    https://github.com/psi4/psi4/graphs/contributors
    http://psicode.org/psi4manual/master/introduction.html#citing-psifour

    -----------------------------------------------------------------------


    Psi4 started on: Tuesday, 26 January 2021 06:18PM

    Process ID: 403498
    Host:       n412-039.vsc4.prov
    PSIDATADIR: /home/fs71337/gallo4/psi4/eri-6/psi4/build/stage/share/psi4
    Memory:     500.0 MiB
    Threads:    48
    
  ==> Input File <==

--------------------------------------------------------------------------
# Any line starting with the # character is a comment line
memory 250000 mb
molecule molecule{
0 1
O          0.0000000000        0.0000000000       -0.0661495700
H          0.0000000000       -0.7581329363        0.5250081505
H          0.0000000000        0.7581329363        0.5250081505
}

set {
  reference rhf
  basis aug-cc-pV(d+d)Z
  scf_type OUT_OF_CORE
  freeze_core true
}

energy('ccsd(t)')
--------------------------------------------------------------------------

  Memory set to 232.831 GiB by Python driver.

Scratch directory: /binfl/lv71337/airmler/temp/

*** tstart() called on n412-039.vsc4.prov
*** at Tue Jan 26 18:18:29 2021

   => Loading Basis Set <=

    Name: AUG-CC-PV(D+D)Z
    Role: ORBITAL
    Keyword: BASIS
    atoms 1   entry O          line   282 file /home/fs71337/gallo4/psi4/eri-6/psi4/build/stage/share/psi4/basis/aug-cc-pv_dpd_z.gbs 
    atoms 2-3 entry H          line    68 file /home/fs71337/gallo4/psi4/eri-6/psi4/build/stage/share/psi4/basis/aug-cc-pv_dpd_z.gbs 


         ---------------------------------------------------------
                                   SCF
               by Justin Turney, Rob Parrish, Andy Simmonett
                          and Daniel G. A. Smith
                              RHF Reference
                       48 Threads, 238418 MiB Core
         ---------------------------------------------------------

  ==> Geometry <==

    Molecular point group: c2v
    Full point group: C2v

    Geometry (in Angstrom), charge = 0, multiplicity = 1:

       Center              X                  Y                   Z               Mass       
    ------------   -----------------  -----------------  -----------------  -----------------
         O           -0.000000000000     0.000000000000    -0.066159341383    15.994914619570
         H            0.000000000000    -0.758132936300     0.524998379117     1.007825032230
         H           -0.000000000000     0.758132936300     0.524998379117     1.007825032230

  Running in c2v symmetry.

  Rotational constants: A =     26.94760  B =     14.55093  C =      9.44883 [cm^-1]
  Rotational constants: A = 807868.61068  B = 436225.78568  C = 283268.79411 [MHz]
  Nuclear repulsion =    9.156048615399548

  Charge       = 0
  Multiplicity = 1
  Electrons    = 10
  Nalpha       = 5
  Nbeta        = 5

  ==> Algorithm <==

  SCF Algorithm Type is OUT_OF_CORE.
  DIIS enabled.
  MOM disabled.
  Fractional occupation disabled.
  Guess Type is SAD.
  Energy threshold   = 1.00e-08
  Density threshold  = 1.00e-08
  Integral threshold = 1.00e-12

  ==> Primary Basis <==

  Basis Set: AUG-CC-PV(D+D)Z
    Blend: AUG-CC-PV(D+D)Z
    Number of shells: 19
    Number of basis function: 41
    Number of Cartesian functions: 43
    Spherical Harmonics?: true
    Max angular momentum: 2

  ==> Integral Setup <==

  ==> DiskJK: Disk-Based J/K Matrices <==

    J tasked:                  Yes
    K tasked:                  Yes
    wK tasked:                  No
    Memory [MiB]:           178813
    Schwarz Cutoff:          1E-12

  Minimum eigenvalue in the overlap matrix is 2.4858702477E-03.
  Reciprocal condition number of the overlap matrix is 5.4148787501E-04.
    Using symmetric orthogonalization.

  ==> Pre-Iterations <==

  SCF Guess: Superposition of Atomic Densities via on-the-fly atomic UHF (no occupation information).


 WARNING: Atomic UHF is not converging! Try casting from a smaller basis or call Rob at CCMST.

 WARNING: Atomic UHF is not converging! Try casting from a smaller basis or call Rob at CCMST.
   -------------------------
    Irrep   Nso     Nmo    
   -------------------------
     A1        18      18 
     A2         4       4 
     B1         7       7 
     B2        12      12 
   -------------------------
    Total      41      41
   -------------------------

  ==> Iterations <==

                        Total Energy        Delta E     RMS |[F,P]|

   @RHF iter SAD:   -73.39092915342643   -7.33909e+01   0.00000e+00 
   @RHF iter   1:   -75.72693060928982   -2.33600e+00   3.82643e-02 DIIS
   @RHF iter   2:   -75.90321888558147   -1.76288e-01   2.65214e-02 DIIS
   @RHF iter   3:   -76.04028163636681   -1.37063e-01   1.31643e-03 DIIS
   @RHF iter   4:   -76.04103424682276   -7.52610e-04   3.96607e-04 DIIS
   @RHF iter   5:   -76.04113663811343   -1.02391e-04   7.56544e-05 DIIS
   @RHF iter   6:   -76.04114079869083   -4.16058e-06   1.55071e-05 DIIS
   @RHF iter   7:   -76.04114095057989   -1.51889e-07   2.64194e-06 DIIS
   @RHF iter   8:   -76.04114095544810   -4.86821e-09   4.67146e-07 DIIS
   @RHF iter   9:   -76.04114095562315   -1.75049e-10   8.47554e-08 DIIS
   @RHF iter  10:   -76.04114095562799   -4.84590e-12   1.57825e-08 DIIS
   @RHF iter  11:   -76.04114095562824   -2.41585e-13   1.66176e-09 DIIS
  Energy and wave function converged.


  ==> Post-Iterations <==

    Orbital Energies [Eh]
    ---------------------

    Doubly Occupied:                                                      

       1A1   -20.578140     2A1    -1.354796     1B2    -0.716242  
       3A1    -0.585647     1B1    -0.509216  

    Virtual:                                                              

       4A1     0.035333     2B2     0.057942     5A1     0.174024  
       2B1     0.196925     6A1     0.222405     3B2     0.231690  
       4B2     0.289396     7A1     0.331518     1A2     0.385726  
       8A1     0.402712     3B1     0.432601     5B2     0.539000  
       9A1     0.647473     6B2     0.658121     7B2     0.808900  
      10A1     0.929809     4B1     1.101794    11A1     1.116058  
       2A2     1.148501    12A1     1.304399     8B2     1.465241  
       5B1     1.481451    13A1     1.582887     9B2     2.001503  
       3A2     2.008123     6B1     2.107690    14A1     2.362028  
      10B2     2.475334    15A1     2.620006    11B2     2.712716  
      16A1     2.968966     7B1     3.673074    17A1     3.689925  
       4A2     3.701970    18A1     4.019538    12B2     4.301260  

    Final Occupation by Irrep:
             A1    A2    B1    B2 
    DOCC [     3,    0,    1,    1 ]

  @RHF Final Energy:   -76.04114095562824

   => Energetics <=

    Nuclear Repulsion Energy =              9.1560486153995484
    One-Electron Energy =                -122.9062978198315648
    Two-Electron Energy =                  37.7091082488037870
    Total Energy =                        -76.0411409556282223

Computation Completed


Properties will be evaluated at   0.000000,   0.000000,   0.000000 [a0]

Properties computed using the SCF density matrix

  Nuclear Dipole Moment: [e a0]
     X:     0.0000      Y:     0.0000      Z:     0.9840

  Electronic Dipole Moment: [e a0]
     X:     0.0000      Y:     0.0000      Z:    -0.1938

  Dipole Moment: [e a0]
     X:     0.0000      Y:     0.0000      Z:     0.7902     Total:     0.7902

  Dipole Moment: [D]
     X:     0.0000      Y:     0.0000      Z:     2.0085     Total:     2.0085


*** tstop() called on n412-039.vsc4.prov at Tue Jan 26 18:18:30 2021
Module time:
	user time   =      14.89 seconds =       0.25 minutes
	system time =       0.86 seconds =       0.01 minutes
	total time  =          1 seconds =       0.02 minutes
Total time:
	user time   =      14.89 seconds =       0.25 minutes
	system time =       0.86 seconds =       0.01 minutes
	total time  =          1 seconds =       0.02 minutes

*** tstart() called on n412-039.vsc4.prov
*** at Tue Jan 26 18:18:30 2021


	Wfn Parameters:
	--------------------
	Wavefunction         = CCSD_T
	Number of irreps     = 4
	Number of MOs        = 41
	Number of active MOs = 40
	AO-Basis             = NONE
	Semicanonical        = false
	Reference            = RHF
	Print Level          = 1

	IRREP	# MOs	# FZDC	# DOCC	# SOCC	# VIRT	# FZVR
	-----	-----	------	------	------	------	------
	 A1	   18	    1	    2	    0	    15	    0
	 A2	   4	    0	    0	    0	    4	    0
	 B1	   7	    0	    1	    0	    6	    0
	 B2	   12	    0	    1	    0	    11	    0
	Transforming integrals...
	IWL integrals will be deleted.
	(OO|OO)...
	Presorting SO-basis two-electron integrals.
	Sorting File: SO Ints (nn|nn) nbuckets = 1
	Constructing frozen core operators
	Starting first half-transformation.
	Sorting half-transformed integrals.
	First half integral transformation complete.
	Starting second half-transformation.
	Two-electron integral transformation complete.
	(OO|OV)...
	Starting second half-transformation.
	Two-electron integral transformation complete.
	(OO|VV)...
	Starting second half-transformation.
	Two-electron integral transformation complete.
	(OV|OO)...
	Starting first half-transformation.
	Sorting half-transformed integrals.
	First half integral transformation complete.
	Starting second half-transformation.
	Two-electron integral transformation complete.
	(OV|OV)...
	Starting second half-transformation.
	Two-electron integral transformation complete.
	(OV|VV)...
	Starting second half-transformation.
	Two-electron integral transformation complete.
	(VV|OO)...
	Starting first half-transformation.
	Sorting half-transformed integrals.
	First half integral transformation complete.
	Starting second half-transformation.
	Two-electron integral transformation complete.
	(VV|OV)...
	Starting second half-transformation.
	Two-electron integral transformation complete.
	(VV|VV)...
	Starting second half-transformation.
	Two-electron integral transformation complete.
	Frozen core energy     =    -61.30678868253014

	Size of irrep 0 of <ab|cd> integrals:      0.158 (MW) /      1.267 (MB)
	Size of irrep 1 of <ab|cd> integrals:      0.064 (MW) /      0.508 (MB)
	Size of irrep 2 of <ab|cd> integrals:      0.072 (MW) /      0.575 (MB)
	Size of irrep 3 of <ab|cd> integrals:      0.143 (MW) /      1.143 (MB)
	Total:                                     0.437 (MW) /      3.493 (MB)

	Size of irrep 0 of <ia|bc> integrals:      0.019 (MW) /      0.150 (MB)
	Size of irrep 1 of <ia|bc> integrals:      0.006 (MW) /      0.050 (MB)
	Size of irrep 2 of <ia|bc> integrals:      0.008 (MW) /      0.066 (MB)
	Size of irrep 3 of <ia|bc> integrals:      0.015 (MW) /      0.124 (MB)
	Total:                                     0.049 (MW) /      0.390 (MB)

	Size of irrep 0 of tijab amplitudes:       0.002 (MW) /      0.019 (MB)
	Size of irrep 1 of tijab amplitudes:       0.001 (MW) /      0.004 (MB)
	Size of irrep 2 of tijab amplitudes:       0.001 (MW) /      0.009 (MB)
	Size of irrep 3 of tijab amplitudes:       0.002 (MW) /      0.012 (MB)
	Total:                                     0.005 (MW) /      0.044 (MB)

	Nuclear Rep. energy          =      9.15604861539955
	SCF energy                   =    -76.04114095562824
	One-electron energy          =    -41.44899943310160
	Two-electron energy          =     17.55859854460404
	Reference energy             =    -76.04114095562815

*** tstop() called on n412-039.vsc4.prov at Tue Jan 26 18:18:31 2021
Module time:
	user time   =       0.03 seconds =       0.00 minutes
	system time =       0.13 seconds =       0.00 minutes
	total time  =          1 seconds =       0.02 minutes
Total time:
	user time   =      14.92 seconds =       0.25 minutes
	system time =       0.99 seconds =       0.02 minutes
	total time  =          2 seconds =       0.03 minutes
            **************************
            *                        *
            *        CCENERGY        *
            *                        *
            **************************

    Nuclear Rep. energy (wfn)     =    9.156048615399548
    SCF energy          (wfn)     =  -76.041140955628236
    Reference energy    (file100) =  -76.041140955628151

    Input parameters:
    -----------------
    Wave function   =     CCSD_T
    Reference wfn   =     RHF
    Brueckner       =     No
    Memory (Mbytes) =     250000.0
    Maxiter         =     50
    R_Convergence   =     1.0e-07
    E_Convergence   =     1.0e-06
    Restart         =     Yes
    DIIS            =     Yes
    AO Basis        =     NONE
    ABCD            =     NEW
    Cache Level     =     2
    Cache Type      =     LOW
    Print Level     =     1
    Num. of threads =     48
    # Amps to Print =     10
    Print MP2 Amps? =     No
    Analyze T2 Amps =     No
    Print Pair Ener =     No
    Local CC        =     No
    SCS-MP2         =     False
    SCSN-MP2        =     False
    SCS-CCSD        =     False

MP2 correlation energy -0.2197300573437810
                Solving CC Amplitude Equations
                ------------------------------
  Iter             Energy              RMS        T1Diag      D1Diag    New D1Diag    D2Diag
  ----     ---------------------    ---------   ----------  ----------  ----------   --------
     0        -0.219730057343781    0.000e+00    0.000000    0.000000    0.000000    0.114366
     1        -0.221839755944997    3.846e-02    0.010207    0.021140    0.021140    0.119265
     2        -0.226186962178922    1.291e-02    0.010295    0.021593    0.021593    0.123895
     3        -0.227536556682584    5.457e-03    0.012025    0.025688    0.025688    0.126181
     4        -0.227465865665036    1.007e-03    0.012232    0.026313    0.026313    0.126333
     5        -0.227471430165255    3.338e-04    0.012300    0.026550    0.026550    0.126361
     6        -0.227476182462008    8.987e-05    0.012322    0.026630    0.026630    0.126357
     7        -0.227474478290704    2.765e-05    0.012325    0.026645    0.026645    0.126350
     8        -0.227474157517260    8.024e-06    0.012326    0.026649    0.026649    0.126349
     9        -0.227474249410248    2.744e-06    0.012326    0.026651    0.026651    0.126349
    10        -0.227474121030639    9.410e-07    0.012326    0.026651    0.026651    0.126349
    11        -0.227474131217428    3.136e-07    0.012326    0.026651    0.026651    0.126349
    12        -0.227474125725246    1.247e-07    0.012326    0.026651    0.026651    0.126349
    13        -0.227474127874825    3.390e-08    0.012326    0.026651    0.026651    0.126349

    Iterations converged.


    Largest TIA Amplitudes:
              2  19        -0.0215795261
              2  20        -0.0155765859
              1   1         0.0121498032
              1   4        -0.0116863618
              3  33         0.0076143419
              0   2         0.0044476525
              3  27        -0.0043206481
              1   0        -0.0043068573
              1  11        -0.0040131401
              0  11        -0.0036350535

    Largest TIjAb Amplitudes:
      2   2  22  22        -0.0347345306
      3   3  30  30        -0.0258796962
      1   1  30  30        -0.0209204307
      1   1   9   9        -0.0204323864
      3   3  27  27        -0.0199637729
      3   3  27  30        -0.0190043289
      3   3  30  27        -0.0190043289
      2   2  19  22        -0.0184859538
      2   2  22  19        -0.0184859538
      2   2  19  19        -0.0182102285

    SCF energy       (wfn)                    =  -76.041140955628236
    Reference energy (file100)                =  -76.041140955628151

    Opposite-spin MP2 correlation energy      =   -0.163822184812117
    Same-spin MP2 correlation energy          =   -0.055907872531664
    Singles MP2 correlation energy            =   -0.000000000000000
    MP2 correlation energy                    =   -0.219730057343781
      * MP2 total energy                      =  -76.260871012971933

    Opposite-spin CCSD correlation energy     =   -0.178051412617062
    Same-spin CCSD correlation energy         =   -0.049422715257763
    Singles CCSD correlation energy           =    0.000000000000000
    CCSD correlation energy                   =   -0.227474127874825
      * CCSD total energy                     =  -76.268615083502979

            **************************
            *                        *
            *        CCTRIPLES       *
            *                        *
            **************************


    Wave function   =    CCSD_T
    Reference wfn   =      RHF

    Nuclear Rep. energy (wfn)                =    9.156048615399548
    SCF energy          (wfn)                =  -76.041140955628236
    Reference energy    (file100)            =  -76.041140955628151
    CCSD energy         (file100)            =   -0.227474127874825
    Total CCSD energy   (file100)            =  -76.268615083502979

    Number of ijk index combinations:               20
    Memory available in words        :     31250000000
    ~Words needed per explicit thread:           13500
    Number of threads for explicit ijk threading:   48

    (T) energy                                =   -0.005239607823665
      * CCSD(T) total energy                  =  -76.273854691326648


    Psi4 stopped on: Tuesday, 26 January 2021 06:18PM
    Psi4 wall time for execution: 0:00:04.15

*** Psi4 exiting successfully. Buy a developer a beer!
