
    -----------------------------------------------------------------------
          Psi4: An Open-Source Ab Initio Electronic Structure Package
                               Psi4 1.2a1.dev939 

                         Git: Rev {HEAD} fa1ec19 dirty


    R. M. Parrish, L. A. Burns, D. G. A. Smith, A. C. Simmonett,
    A. E. DePrince III, E. G. Hohenstein, U. Bozkaya, A. Yu. Sokolov,
    R. Di Remigio, R. M. Richard, J. F. Gonthier, A. M. James,
    H. R. McAlexander, A. Kumar, M. Saitow, X. Wang, B. P. Pritchard,
    P. Verma, H. F. Schaefer III, K. Patkowski, R. A. King, E. F. Valeev,
    F. A. Evangelista, J. M. Turney, T. D. Crawford, and C. D. Sherrill,
    J. Chem. Theory Comput. 13(7) pp 3185--3197 (2017).
    (doi: 10.1021/acs.jctc.7b00174)

    -----------------------------------------------------------------------


    Psi4 started on: Monday, 10 August 2020 03:12PM

    Process ID: 421543
    PSIDATADIR: /home/fs71337/airmler/src/psi4new/build/stage/usr/local/psi4/share/psi4
    Memory:     500.0 MiB
    Threads:    48
    
  ==> Input File <==

--------------------------------------------------------------------------
# Any line starting with the # character is a comment line
memory 250000 mb
molecule molecule{
1 1
Al          0.0000000000        0.0000000000        0.0000000000

}

set {
  reference rhf
  basis aug-cc-pv(6+d)z
  scf_type OUT_OF_CORE
  freeze_core true
}

energy('ccsd')
--------------------------------------------------------------------------

  Memory set to 232.831 GiB by Python driver.

*** tstart() called on n411-070.vsc4.prov
*** at Mon Aug 10 15:12:37 2020

   => Loading Basis Set <=

    Name: AUG-CC-PV(6+D)Z
    Role: ORBITAL
    Keyword: BASIS
    atoms 1 entry AL         line   747 file /home/fs71337/airmler/src/psi4new/build/stage/usr/local/psi4/share/psi4/basis/aug-cc-pv_6pd_z.gbs 


         ---------------------------------------------------------
                                   SCF
            by Justin Turney, Rob Parrish, Andy Simmonett
                             and Daniel Smith
                              RHF Reference
                       48 Threads, 238418 MiB Core
         ---------------------------------------------------------

  ==> Geometry <==

    Molecular point group: d2h
    Geometry (in Angstrom), charge = 1, multiplicity = 1:

       Center              X                  Y                   Z               Mass       
    ------------   -----------------  -----------------  -----------------  -----------------
          AL          0.000000000000     0.000000000000     0.000000000000    26.981538627000

  Running in d2h symmetry.

  Rotational constants: A = ************  B = ************  C = ************ [cm^-1]
  Rotational constants: A = ************  B = ************  C = ************ [MHz]
  Nuclear repulsion =    0.000000000000000

  Charge       = 1
  Multiplicity = 1
  Electrons    = 12
  Nalpha       = 6
  Nbeta        = 6

  ==> Algorithm <==

  SCF Algorithm Type is OUT_OF_CORE.
  DIIS enabled.
  MOM disabled.
  Fractional occupation disabled.
  Guess Type is CORE.
  Energy threshold   = 1.00e-08
  Density threshold  = 1.00e-08
  Integral threshold = 0.00e+00

  ==> Primary Basis <==

  Basis Set: AUG-CC-PV(6+D)Z
    Blend: AUG-CC-PV(6+D)Z
    Number of shells: 38
    Number of basis function: 198
    Number of Cartesian functions: 304
    Spherical Harmonics?: true
    Max angular momentum: 6

  ==> Pre-Iterations <==

   -------------------------------------------------------
    Irrep   Nso     Nmo     Nalpha   Nbeta   Ndocc  Nsocc
   -------------------------------------------------------
     Ag        43      43       0       0       0       0
     B1g       21      21       0       0       0       0
     B2g       21      21       0       0       0       0
     B3g       21      21       0       0       0       0
     Au        11      11       0       0       0       0
     B1u       27      27       0       0       0       0
     B2u       27      27       0       0       0       0
     B3u       27      27       0       0       0       0
   -------------------------------------------------------
    Total     198     198       6       6       6       0
   -------------------------------------------------------

  ==> Integral Setup <==

  ==> DiskJK: Disk-Based J/K Matrices <==

    J tasked:                  Yes
    K tasked:                  Yes
    wK tasked:                  No
    Memory (MB):            178813
    Schwarz Cutoff:          1E-12

  Minimum eigenvalue in the overlap matrix is 1.8849444626E-05.
  Using Symmetric Orthogonalization.

  SCF Guess: Core (One-Electron) Hamiltonian.

  ==> Iterations <==

                        Total Energy        Delta E     RMS |[F,P]|

    Occupation by irrep:
             Ag   B1g   B2g   B3g    Au   B1u   B2u   B3u 
    DOCC [     3,    0,    0,    0,    0,    1,    1,    1 ]

   @RHF iter   1:  -222.25424798406948   -2.22254e+02   3.95529e-01 
   @RHF iter   2:  -237.16471572647268   -1.49105e+01   2.04291e-01 DIIS
   @RHF iter   3:  -241.62603631564963   -4.46132e+00   2.30325e-02 DIIS
   @RHF iter   4:  -241.67345456529756   -4.74182e-02   2.63371e-03 DIIS
   @RHF iter   5:  -241.67463765080780   -1.18309e-03   1.77800e-04 DIIS
   @RHF iter   6:  -241.67465400801299   -1.63572e-05   1.28903e-05 DIIS
   @RHF iter   7:  -241.67465416100137   -1.52988e-07   1.70126e-06 DIIS
   @RHF iter   8:  -241.67465416315142   -2.15005e-09   1.62236e-07 DIIS
   @RHF iter   9:  -241.67465416317648   -2.50679e-11   8.50664e-09 DIIS

  ==> Post-Iterations <==

    Orbital Energies (a.u.)
    -----------------------

    Doubly Occupied:                                                      

       1Ag   -58.812349     2Ag    -5.217594     1B3u   -3.522690  
       1B2u   -3.522690     1B1u   -3.522690     3Ag    -0.652302  

    Virtual:                                                              

       2B1u   -0.195095     2B2u   -0.195095     2B3u   -0.195095  
       4Ag    -0.096163     3B3u   -0.065359     3B2u   -0.065359  
       3B1u   -0.065359     5Ag    -0.053231     1B2g   -0.053231  
       1B1g   -0.053231     1B3g   -0.053231     6Ag    -0.053231  
       4B3u    0.002991     4B1u    0.002991     4B2u    0.002991  
       7Ag     0.027075     8Ag     0.042596     2B2g    0.042596  
       2B1g    0.042596     2B3g    0.042596     9Ag     0.042596  
       5B3u    0.044032     5B2u    0.044032     5B1u    0.044032  
       6B3u    0.044032     1Au     0.044032     6B2u    0.044032  
       6B1u    0.044032    10Ag     0.255236     3B1g    0.255236  
       3B2g    0.255236     3B3g    0.255236    11Ag     0.255236  
       4B1g    0.255236     4B2g    0.255236     4B3g    0.255236  
      12Ag     0.255236     7B3u    0.261154     7B1u    0.261154  
       7B2u    0.261154    13Ag     0.301219     5B1g    0.301219  
       5B2g    0.301219     5B3g    0.301219    14Ag     0.301219  
       8B3u    0.321416     8B2u    0.321416     8B1u    0.321416  
       9B3u    0.321416     2Au     0.321416     9B1u    0.321416  
       9B2u    0.321416    15Ag     0.467698    10B3u    0.754130  
      10B2u    0.754130    10B1u    0.754130    11B3u    0.754130  
       3Au     0.754130    11B1u    0.754130    11B2u    0.754130  
      12B3u    0.754130     4Au     0.754130    12B1u    0.754130  
      12B2u    0.754130    16Ag     0.881201     6B1g    0.881201  
       6B2g    0.881201    17Ag     0.881201     6B3g    0.881201  
       7B1g    0.881201     7B2g    0.881201     7B3g    0.881201  
      18Ag     0.881201    19Ag     0.903459     8B1g    0.903459  
       8B2g    0.903459     8B3g    0.903459    20Ag     0.903459  
      13B3u    0.906197    13B2u    0.906197    13B1u    0.906197  
      14B3u    0.906197     5Au     0.906197    14B1u    0.906197  
      14B2u    0.906197    15B3u    1.075865    15B1u    1.075865  
      15B2u    1.075865    21Ag     1.765889     9B2g    1.765889  
       9B1g    1.765889     9B3g    1.765889    22Ag     1.765889  
      10B2g    1.765889    10B1g    1.765889    23Ag     1.765889  
      10B3g    1.765889    11B2g    1.765889    11B1g    1.765889  
      24Ag     1.765889    11B3g    1.765889    25Ag     1.992631  
      16B3u    2.021124    16B2u    2.021124    16B1u    2.021124  
      17B3u    2.021124     6Au     2.021124    17B2u    2.021124  
      17B1u    2.021124    18B3u    2.021124     7Au     2.021124  
      18B1u    2.021124    18B2u    2.021124    26Ag     2.096050  
      12B1g    2.096050    12B2g    2.096050    27Ag     2.096050  
      12B3g    2.096050    13B1g    2.096050    13B2g    2.096050  
      28Ag     2.096050    13B3g    2.096050    19B3u    2.104664  
      19B1u    2.104664    19B2u    2.104664    20B3u    2.104664  
       8Au     2.104664    20B1u    2.104664    20B2u    2.104664  
      29Ag     2.228858    14B2g    2.228858    14B1g    2.228858  
      14B3g    2.228858    30Ag     2.228858    21B3u    3.351266  
      21B1u    3.351266    21B2u    3.351266    31Ag     4.222635  
      15B2g    4.222635    15B1g    4.222635    32Ag     4.222635  
      15B3g    4.222635    16B2g    4.222635    16B1g    4.222635  
      33Ag     4.222635    16B3g    4.222635    17B2g    4.222635  
      17B1g    4.222635    34Ag     4.222635    17B3g    4.222635  
      35Ag     4.470100    18B2g    4.470100    18B1g    4.470100  
      36Ag     4.470100    18B3g    4.470100    19B1g    4.470100  
      19B2g    4.470100    37Ag     4.470100    19B3g    4.470100  
      22B3u    4.536511    22B1u    4.536511    22B2u    4.536511  
      23B3u    4.536511     9Au     4.536511    23B1u    4.536511  
      23B2u    4.536511    38Ag     4.540456    20B2g    4.540456  
      20B1g    4.540456    20B3g    4.540456    39Ag     4.540456  
      24B3u    4.611740    24B1u    4.611740    24B2u    4.611740  
      10Au     4.611740    25B3u    4.611740    25B1u    4.611740  
      25B2u    4.611740    26B3u    4.611740    11Au     4.611740  
      26B2u    4.611740    26B1u    4.611740    40Ag     7.094601  
      27B3u   10.262089    27B1u   10.262089    27B2u   10.262089  
      41Ag    11.672016    21B2g   11.672016    21B1g   11.672016  
      21B3g   11.672016    42Ag    11.672016    43Ag   153.868319  

    Final Occupation by Irrep:
             Ag   B1g   B2g   B3g    Au   B1u   B2u   B3u 
    DOCC [     3,    0,    0,    0,    0,    1,    1,    1 ]

  Energy converged.

  @RHF Final Energy:  -241.67465416317648

   => Energetics <=

    Nuclear Repulsion Energy =              0.0000000000000000
    One-Electron Energy =                -332.8486797203191827
    Two-Electron Energy =                  91.1740255571426843
    Total Energy =                       -241.6746541631765126



Properties will be evaluated at   0.000000,   0.000000,   0.000000 Bohr

Properties computed using the SCF density matrix

  Nuclear Dipole Moment: (a.u.)
     X:     0.0000      Y:     0.0000      Z:     0.0000

  Electronic Dipole Moment: (a.u.)
     X:     0.0000      Y:     0.0000      Z:     0.0000

  Dipole Moment: (a.u.)
     X:     0.0000      Y:     0.0000      Z:     0.0000     Total:     0.0000

  Dipole Moment: (Debye)
     X:     0.0000      Y:     0.0000      Z:     0.0000     Total:     0.0000


*** tstop() called on n411-070.vsc4.prov at Mon Aug 10 15:13:44 2020
Module time:
	user time   =     235.93 seconds =       3.93 minutes
	system time =       4.80 seconds =       0.08 minutes
	total time  =         67 seconds =       1.12 minutes
Total time:
	user time   =     235.93 seconds =       3.93 minutes
	system time =       4.80 seconds =       0.08 minutes
	total time  =         67 seconds =       1.12 minutes

*** tstart() called on n411-070.vsc4.prov
*** at Mon Aug 10 15:13:44 2020


	Wfn Parameters:
	--------------------
	Wavefunction         = CCSD
	Number of irreps     = 8
	Number of MOs        = 198
	Number of active MOs = 193
	AO-Basis             = NONE
	Semicanonical        = false
	Reference            = RHF
	Print Level          = 1

	IRREP	# MOs	# FZDC	# DOCC	# SOCC	# VIRT	# FZVR
	-----	-----	------	------	------	------	------
	 Ag	   43	    2	    1	    0	    40	    0
	 B1g	   21	    0	    0	    0	    21	    0
	 B2g	   21	    0	    0	    0	    21	    0
	 B3g	   21	    0	    0	    0	    21	    0
	 Au	   11	    0	    0	    0	    11	    0
	 B1u	   27	    1	    0	    0	    26	    0
	 B2u	   27	    1	    0	    0	    26	    0
	 B3u	   27	    1	    0	    0	    26	    0
	Transforming integrals...
	IWL integrals will be deleted.
	(OO|OO)...
	Presorting SO-basis two-electron integrals.
	Sorting File: SO Ints (nn|nn) nbuckets = 1
	Transforming the one-electron integrals and constructing Fock matrices
	Starting first half-transformation.
	Sorting half-transformed integrals.
	First half integral transformation complete.
	Starting second half-transformation.
	Two-electron integral transformation complete.
	(OO|OV)...
	Starting second half-transformation.
	Two-electron integral transformation complete.
	(OO|VV)...
	Starting second half-transformation.
	Two-electron integral transformation complete.
	(OV|OO)...
	Starting first half-transformation.
	Sorting half-transformed integrals.
	First half integral transformation complete.
	Starting second half-transformation.
	Two-electron integral transformation complete.
	(OV|OV)...
	Starting second half-transformation.
	Two-electron integral transformation complete.
	(OV|VV)...
	Starting second half-transformation.
	Two-electron integral transformation complete.
	(VV|OO)...
	Starting first half-transformation.
	Sorting half-transformed integrals.
	First half integral transformation complete.
	Starting second half-transformation.
	Two-electron integral transformation complete.
	(VV|OV)...
	Starting second half-transformation.
	Two-electron integral transformation complete.
	(VV|VV)...
	Starting second half-transformation.
	Two-electron integral transformation complete.
	Frozen core energy     =   -239.99843924417624

	Size of irrep 0 of <ab|cd> integrals:     25.725 (MW) /    205.801 (MB)
	Size of irrep 1 of <ab|cd> integrals:     20.124 (MW) /    160.994 (MB)
	Size of irrep 2 of <ab|cd> integrals:     20.124 (MW) /    160.994 (MB)
	Size of irrep 3 of <ab|cd> integrals:     20.124 (MW) /    160.994 (MB)
	Size of irrep 4 of <ab|cd> integrals:     17.272 (MW) /    138.179 (MB)
	Size of irrep 5 of <ab|cd> integrals:     22.335 (MW) /    178.681 (MB)
	Size of irrep 6 of <ab|cd> integrals:     22.335 (MW) /    178.681 (MB)
	Size of irrep 7 of <ab|cd> integrals:     22.335 (MW) /    178.681 (MB)
	Total:                                   170.375 (MW) /   1363.003 (MB)

	Size of irrep 0 of <ia|bc> integrals:      0.203 (MW) /      1.623 (MB)
	Size of irrep 1 of <ia|bc> integrals:      0.094 (MW) /      0.754 (MB)
	Size of irrep 2 of <ia|bc> integrals:      0.094 (MW) /      0.754 (MB)
	Size of irrep 3 of <ia|bc> integrals:      0.094 (MW) /      0.754 (MB)
	Size of irrep 4 of <ia|bc> integrals:      0.046 (MW) /      0.366 (MB)
	Size of irrep 5 of <ia|bc> integrals:      0.123 (MW) /      0.983 (MB)
	Size of irrep 6 of <ia|bc> integrals:      0.123 (MW) /      0.983 (MB)
	Size of irrep 7 of <ia|bc> integrals:      0.123 (MW) /      0.983 (MB)
	Total:                                     0.900 (MW) /      7.199 (MB)

	Size of irrep 0 of tijab amplitudes:       0.005 (MW) /      0.041 (MB)
	Size of irrep 1 of tijab amplitudes:       0.000 (MW) /      0.000 (MB)
	Size of irrep 2 of tijab amplitudes:       0.000 (MW) /      0.000 (MB)
	Size of irrep 3 of tijab amplitudes:       0.000 (MW) /      0.000 (MB)
	Size of irrep 4 of tijab amplitudes:       0.000 (MW) /      0.000 (MB)
	Size of irrep 5 of tijab amplitudes:       0.000 (MW) /      0.000 (MB)
	Size of irrep 6 of tijab amplitudes:       0.000 (MW) /      0.000 (MB)
	Size of irrep 7 of tijab amplitudes:       0.000 (MW) /      0.000 (MB)
	Total:                                     0.005 (MW) /      0.041 (MB)

	Nuclear Rep. energy          =      0.00000000000000
	SCF energy                   =   -241.67465416317648
	One-electron energy          =     -2.04782594640008
	Two-electron energy          =      0.37161102739949
	Reference energy             =   -241.67465416317683

*** tstop() called on n411-070.vsc4.prov at Mon Aug 10 15:13:56 2020
Module time:
	user time   =      37.44 seconds =       0.62 minutes
	system time =       3.82 seconds =       0.06 minutes
	total time  =         12 seconds =       0.20 minutes
Total time:
	user time   =     273.37 seconds =       4.56 minutes
	system time =       8.62 seconds =       0.14 minutes
	total time  =         79 seconds =       1.32 minutes

*** tstart() called on n411-070.vsc4.prov
*** at Mon Aug 10 15:13:56 2020

            **************************
            *                        *
            *        CCENERGY        *
            *                        *
            **************************

    Nuclear Rep. energy (wfn)     =    0.000000000000000
    SCF energy          (wfn)     = -241.674654163176484
    Reference energy    (file100) = -241.674654163176825

    Input parameters:
    -----------------
    Wave function   =     CCSD
    Reference wfn   =     RHF
    Brueckner       =     No
    Memory (Mbytes) =     250000.0
    Maxiter         =     50
    R_Convergence   =     1.0e-07
    E_Convergence   =     1.0e-06
    Restart         =     Yes
    DIIS            =     Yes
    AO Basis        =     NONE
    ABCD            =     NEW
    Cache Level     =     2
    Cache Type      =     LOW
    Print Level     =     1
    Num. of threads =     48
    # Amps to Print =     10
    Print MP2 Amps? =     No
    Analyze T2 Amps =     No
    Print Pair Ener =     No
    Local CC        =     No
    SCS-MP2         =     False
    SCSN-MP2        =     False
    SCS-CCSD        =     False

MP2 correlation energy -0.0301384101202710
                Solving CC Amplitude Equations
                ------------------------------
  Iter             Energy              RMS        T1Diag      D1Diag    New D1Diag    D2Diag
  ----     ---------------------    ---------   ----------  ----------  ----------   --------
     0        -0.030138410120260    0.000e+00    0.000000    0.000000    0.000000    0.154435
     1        -0.042085680093223    9.157e-02    0.011584    0.016382    0.016382    0.253094
     2        -0.041432557696224    1.247e-02    0.010084    0.014262    0.014262    0.245400
     3        -0.040491612479016    4.251e-03    0.009806    0.013867    0.013867    0.240269
     4        -0.040549667298805    5.496e-04    0.009728    0.013757    0.013757    0.240267
     5        -0.040514312591524    2.395e-04    0.009704    0.013723    0.013723    0.240020
     6        -0.040492839244940    9.252e-05    0.009693    0.013708    0.013708    0.239857
     7        -0.040495676256015    9.333e-06    0.009695    0.013710    0.013710    0.239873
     8        -0.040494345938847    5.350e-06    0.009694    0.013710    0.013710    0.239864
     9        -0.040494417970609    3.407e-07    0.009694    0.013710    0.013710    0.239865
    10        -0.040494418701011    4.295e-08    0.009694    0.013710    0.013710    0.239865
    10        -0.040494418701011    4.295e-08    0.009694    0.013710    0.013710    0.239865

    Iterations converged.


    CCSD corr. energy   =   -0.040494418701011
    PPL corr. energy    =    0.022285248763927
    OS PPL corr. energy =    0.022285248763927
    SS PPL corr. energy =   -0.000000000000000
    Largest TIA Amplitudes:
              0   0         0.0092611225
              0   3        -0.0092488427
              0  11         0.0037894312
              0  21         0.0014754810
              0  36        -0.0003383235
              0  39        -0.0000010195
              0   4         0.0000000881
              0   1         0.0000000728
              0   9         0.0000000443

    Largest TIjAb Amplitudes:
      0   0 114 114        -0.1606373777
      0   0 140 140        -0.1606373777
      0   0 166 166        -0.1606373101
      0   0 114 116        -0.0487578460
      0   0 116 114        -0.0487578460
      0   0 140 142        -0.0487578460
      0   0 142 140        -0.0487578460
      0   0 166 168        -0.0487578308
      0   0 168 166        -0.0487578308
      0   0 114 119         0.0456696207

    SCF energy       (wfn)                    = -241.674654163176484
    Reference energy (file100)                = -241.674654163176825

    Opposite-spin MP2 correlation energy      =   -0.030138410120260
    Same-spin MP2 correlation energy          =    0.000000000000000
    MP2 correlation energy                    =   -0.030138410120271
      * MP2 total energy                      = -241.704792573297084

    Opposite-spin CCSD correlation energy     =   -0.040494418689977
    Same-spin CCSD correlation energy         =    0.000000000000000
    CCSD correlation energy                   =   -0.040494418701011
      * CCSD total energy                     = -241.715148581877827


*** tstop() called on n411-070.vsc4.prov at Mon Aug 10 15:14:00 2020
Module time:
	user time   =     162.58 seconds =       2.71 minutes
	system time =       3.62 seconds =       0.06 minutes
	total time  =          4 seconds =       0.07 minutes
Total time:
	user time   =     435.95 seconds =       7.27 minutes
	system time =      12.24 seconds =       0.20 minutes
	total time  =         83 seconds =       1.38 minutes

*** Psi4 exiting successfully. Buy a developer a beer!
