
    -----------------------------------------------------------------------
          Psi4: An Open-Source Ab Initio Electronic Structure Package
                               Psi4 1.2a1.dev939 

                         Git: Rev {HEAD} fa1ec19 


    R. M. Parrish, L. A. Burns, D. G. A. Smith, A. C. Simmonett,
    A. E. DePrince III, E. G. Hohenstein, U. Bozkaya, A. Yu. Sokolov,
    R. Di Remigio, R. M. Richard, J. F. Gonthier, A. M. James,
    H. R. McAlexander, A. Kumar, M. Saitow, X. Wang, B. P. Pritchard,
    P. Verma, H. F. Schaefer III, K. Patkowski, R. A. King, E. F. Valeev,
    F. A. Evangelista, J. M. Turney, T. D. Crawford, and C. D. Sherrill,
    J. Chem. Theory Comput. 13(7) pp 3185--3197 (2017).
    (doi: 10.1021/acs.jctc.7b00174)

    -----------------------------------------------------------------------


    Psi4 started on: Friday, 03 May 2019 11:24AM

    Process ID:   6143
    PSIDATADIR: /home/grueneis/src/psi4/objdir/stage/usr/local/psi4/share/psi4
    Memory:     500.0 MiB
    Threads:    1
    
  ==> Input File <==

--------------------------------------------------------------------------
# Any line starting with the # character is a comment line

memory 32000 mb

molecule molecule {
1 1
Al          0.0000000000        0.0000000000        0.0000000000
}

set {
  reference rhf


  basis aug-cc-pv(5+d)z
  scf_type OUT_OF_CORE
  freeze_core true
}

energy('ccsd')
--------------------------------------------------------------------------

  Memory set to  29.802 GiB by Python driver.

*** tstart() called on cqc03
*** at Fri May  3 11:24:31 2019

   => Loading Basis Set <=

    Name: AUG-CC-PV(5+D)Z
    Role: ORBITAL
    Keyword: BASIS
    atoms 1 entry AL         line   608 file /home/grueneis/src/psi4/objdir/stage/usr/local/psi4/share/psi4/basis/aug-cc-pv_5pd_z.gbs 


         ---------------------------------------------------------
                                   SCF
            by Justin Turney, Rob Parrish, Andy Simmonett
                             and Daniel Smith
                              RHF Reference
                        1 Threads,  30517 MiB Core
         ---------------------------------------------------------

  ==> Geometry <==

    Molecular point group: d2h
    Geometry (in Angstrom), charge = 1, multiplicity = 1:

       Center              X                  Y                   Z               Mass       
    ------------   -----------------  -----------------  -----------------  -----------------
          AL          0.000000000000     0.000000000000     0.000000000000    26.981538627000

  Running in d2h symmetry.

  Rotational constants: A = ************  B = ************  C = ************ [cm^-1]
  Rotational constants: A = ************  B = ************  C = ************ [MHz]
  Nuclear repulsion =    0.000000000000000

  Charge       = 1
  Multiplicity = 1
  Electrons    = 12
  Nalpha       = 6
  Nbeta        = 6

  ==> Algorithm <==

  SCF Algorithm Type is OUT_OF_CORE.
  DIIS enabled.
  MOM disabled.
  Fractional occupation disabled.
  Guess Type is CORE.
  Energy threshold   = 1.00e-08
  Density threshold  = 1.00e-08
  Integral threshold = 0.00e+00

  ==> Primary Basis <==

  Basis Set: AUG-CC-PV(5+D)Z
    Blend: AUG-CC-PV(5+D)Z
    Number of shells: 30
    Number of basis function: 136
    Number of Cartesian functions: 192
    Spherical Harmonics?: true
    Max angular momentum: 5

  ==> Pre-Iterations <==

   -------------------------------------------------------
    Irrep   Nso     Nmo     Nalpha   Nbeta   Ndocc  Nsocc
   -------------------------------------------------------
     Ag        29      29       0       0       0       0
     B1g       12      12       0       0       0       0
     B2g       12      12       0       0       0       0
     B3g       12      12       0       0       0       0
     Au         8       8       0       0       0       0
     B1u       21      21       0       0       0       0
     B2u       21      21       0       0       0       0
     B3u       21      21       0       0       0       0
   -------------------------------------------------------
    Total     136     136       6       6       6       0
   -------------------------------------------------------

  ==> Integral Setup <==

  ==> DiskJK: Disk-Based J/K Matrices <==

    J tasked:                  Yes
    K tasked:                  Yes
    wK tasked:                  No
    Memory (MB):             22888
    Schwarz Cutoff:          1E-12

  Minimum eigenvalue in the overlap matrix is 1.6988824165E-04.
  Using Symmetric Orthogonalization.

  SCF Guess: Core (One-Electron) Hamiltonian.

  ==> Iterations <==

                        Total Energy        Delta E     RMS |[F,P]|

    Occupation by irrep:
             Ag   B1g   B2g   B3g    Au   B1u   B2u   B3u 
    DOCC [     3,    0,    0,    0,    0,    1,    1,    1 ]

   @RHF iter   1:  -221.75364496554309   -2.21754e+02   2.30579e-01 
   @RHF iter   2:  -237.02250232343215   -1.52689e+01   1.05201e-01 DIIS
   @RHF iter   3:  -241.63031325758001   -4.60781e+00   1.26218e-02 DIIS
   @RHF iter   4:  -241.67323187097503   -4.29186e-02   1.72317e-03 DIIS
   @RHF iter   5:  -241.67459935774090   -1.36749e-03   8.62610e-05 DIIS
   @RHF iter   6:  -241.67461417983384   -1.48221e-05   8.25100e-06 DIIS
   @RHF iter   7:  -241.67461434185441   -1.62021e-07   9.59567e-07 DIIS
   @RHF iter   8:  -241.67461434384273   -1.98833e-09   1.14944e-07 DIIS
   @RHF iter   9:  -241.67461434389767   -5.49392e-11   9.70385e-09 DIIS

  ==> Post-Iterations <==

    Orbital Energies (a.u.)
    -----------------------

    Doubly Occupied:                                                      

       1Ag   -58.812520     2Ag    -5.217593     1B1u   -3.522712  
       1B3u   -3.522712     1B2u   -3.522712     3Ag    -0.652303  

    Virtual:                                                              

       2B3u   -0.195099     2B1u   -0.195099     2B2u   -0.195099  
       4Ag    -0.096033     3B2u   -0.065075     3B3u   -0.065075  
       3B1u   -0.065075     5Ag    -0.052118     1B3g   -0.052118  
       1B1g   -0.052118     1B2g   -0.052118     6Ag    -0.052118  
       4B2u    0.027459     4B1u    0.027459     4B3u    0.027459  
       7Ag     0.034911     8Ag     0.054087     2B3g    0.054087  
       2B1g    0.054087     9Ag     0.054087     2B2g    0.054087  
       5B2u    0.056522     5B1u    0.056522     5B3u    0.056522  
       6B2u    0.056522     1Au     0.056522     6B1u    0.056522  
       6B3u    0.056522    10Ag     0.344421     3B3g    0.344421  
       3B1g    0.344421    11Ag     0.344421     3B2g    0.344421  
      12Ag     0.346415     4B3g    0.346415     4B1g    0.346415  
      13Ag     0.346415     4B2g    0.346415     5B1g    0.346415  
       5B3g    0.346415     5B2g    0.346415    14Ag     0.346415  
       7B2u    0.371515     7B3u    0.371515     7B1u    0.371515  
       8B2u    0.371515     2Au     0.371515     8B1u    0.371515  
       8B3u    0.371515     9B2u    0.455622     9B3u    0.455622  
       9B1u    0.455622    15Ag     0.538164    16Ag     1.052048  
       6B3g    1.052048     6B1g    1.052048    17Ag     1.052048  
       6B2g    1.052048    10B2u    1.059439    10B3u    1.059439  
      10B1u    1.059439    11B2u    1.059439     3Au     1.059439  
      11B3u    1.059439    11B1u    1.059439    12B2u    1.093154  
      12B1u    1.093154    12B3u    1.093154    13B2u    1.093154  
       4Au     1.093154    13B3u    1.093154    13B1u    1.093154  
      14B2u    1.093154     5Au     1.093154    14B1u    1.093154  
      14B3u    1.093154    18Ag     1.175963     7B1g    1.175963  
       7B3g    1.175963     7B2g    1.175963    19Ag     1.175963  
       8B1g    1.175963     8B3g    1.175963     8B2g    1.175963  
      20Ag     1.175963    15B2u    2.177556    15B3u    2.177556  
      15B1u    2.177556    21Ag     2.389704     9B3g    2.389704  
       9B1g    2.389704    22Ag     2.389704     9B2g    2.389704  
      16B2u    2.476097    16B3u    2.476097    16B1u    2.476097  
      17B2u    2.476097     6Au     2.476097    17B3u    2.476097  
      17B1u    2.476097    23Ag     2.735784    18B2u    2.925696  
      18B1u    2.925696    18B3u    2.925696     7Au     2.925696  
      19B2u    2.925696    19B3u    2.925696    19B1u    2.925696  
      20B2u    2.925696     8Au     2.925696    20B1u    2.925696  
      20B3u    2.925696    24Ag     3.018193    10B1g    3.018193  
      10B3g    3.018193    25Ag     3.018193    10B2g    3.018193  
      11B1g    3.018193    11B3g    3.018193    26Ag     3.018193  
      11B2g    3.018193    27Ag     6.700569    12B3g    6.700569  
      12B1g    6.700569    28Ag     6.700569    12B2g    6.700569  
      21B3u    9.483807    21B1u    9.483807    21B2u    9.483807  
      29Ag    24.522856  

    Final Occupation by Irrep:
             Ag   B1g   B2g   B3g    Au   B1u   B2u   B3u 
    DOCC [     3,    0,    0,    0,    0,    1,    1,    1 ]

  Energy converged.

  @RHF Final Energy:  -241.67461434389767

   => Energetics <=

    Nuclear Repulsion Energy =              0.0000000000000000
    One-Electron Energy =                -332.8481234155203197
    Two-Electron Energy =                  91.1735090716226466
    Total Energy =                       -241.6746143438976731



Properties will be evaluated at   0.000000,   0.000000,   0.000000 Bohr

Properties computed using the SCF density matrix

  Nuclear Dipole Moment: (a.u.)
     X:     0.0000      Y:     0.0000      Z:     0.0000

  Electronic Dipole Moment: (a.u.)
     X:     0.0000      Y:     0.0000      Z:     0.0000

  Dipole Moment: (a.u.)
     X:     0.0000      Y:     0.0000      Z:     0.0000     Total:     0.0000

  Dipole Moment: (Debye)
     X:     0.0000      Y:     0.0000      Z:     0.0000     Total:     0.0000


*** tstop() called on cqc03 at Fri May  3 11:24:37 2019
Module time:
	user time   =       5.57 seconds =       0.09 minutes
	system time =       0.21 seconds =       0.00 minutes
	total time  =          6 seconds =       0.10 minutes
Total time:
	user time   =       5.57 seconds =       0.09 minutes
	system time =       0.21 seconds =       0.00 minutes
	total time  =          6 seconds =       0.10 minutes

*** tstart() called on cqc03
*** at Fri May  3 11:24:37 2019


	Wfn Parameters:
	--------------------
	Wavefunction         = CCSD
	Number of irreps     = 8
	Number of MOs        = 136
	Number of active MOs = 131
	AO-Basis             = NONE
	Semicanonical        = false
	Reference            = RHF
	Print Level          = 1

	IRREP	# MOs	# FZDC	# DOCC	# SOCC	# VIRT	# FZVR
	-----	-----	------	------	------	------	------
	 Ag	   29	    2	    1	    0	    26	    0
	 B1g	   12	    0	    0	    0	    12	    0
	 B2g	   12	    0	    0	    0	    12	    0
	 B3g	   12	    0	    0	    0	    12	    0
	 Au	   8	    0	    0	    0	    8	    0
	 B1u	   21	    1	    0	    0	    20	    0
	 B2u	   21	    1	    0	    0	    20	    0
	 B3u	   21	    1	    0	    0	    20	    0
	Transforming integrals...
	IWL integrals will be deleted.
	(OO|OO)...
	Presorting SO-basis two-electron integrals.
	Sorting File: SO Ints (nn|nn) nbuckets = 1
	Transforming the one-electron integrals and constructing Fock matrices
	Starting first half-transformation.
	Sorting half-transformed integrals.
	First half integral transformation complete.
	Starting second half-transformation.
	Two-electron integral transformation complete.
	(OO|OV)...
	Starting second half-transformation.
	Two-electron integral transformation complete.
	(OO|VV)...
	Starting second half-transformation.
	Two-electron integral transformation complete.
	(OV|OO)...
	Starting first half-transformation.
	Sorting half-transformed integrals.
	First half integral transformation complete.
	Starting second half-transformation.
	Two-electron integral transformation complete.
	(OV|OV)...
	Starting second half-transformation.
	Two-electron integral transformation complete.
	(OV|VV)...
	Starting second half-transformation.
	Two-electron integral transformation complete.
	(VV|OO)...
	Starting first half-transformation.
	Sorting half-transformed integrals.
	First half integral transformation complete.
	Starting second half-transformation.
	Two-electron integral transformation complete.
	(VV|OV)...
	Starting second half-transformation.
	Two-electron integral transformation complete.
	(VV|VV)...
	Starting second half-transformation.
	Two-electron integral transformation complete.
	Frozen core energy     =   -239.99840530323871

	Size of irrep 0 of <ab|cd> integrals:      5.626 (MW) /     45.011 (MB)
	Size of irrep 1 of <ab|cd> integrals:      4.129 (MW) /     33.032 (MB)
	Size of irrep 2 of <ab|cd> integrals:      4.129 (MW) /     33.032 (MB)
	Size of irrep 3 of <ab|cd> integrals:      4.129 (MW) /     33.032 (MB)
	Size of irrep 4 of <ab|cd> integrals:      3.445 (MW) /     27.558 (MB)
	Size of irrep 5 of <ab|cd> integrals:      4.805 (MW) /     38.439 (MB)
	Size of irrep 6 of <ab|cd> integrals:      4.805 (MW) /     38.439 (MB)
	Size of irrep 7 of <ab|cd> integrals:      4.805 (MW) /     38.439 (MB)
	Total:                                    35.873 (MW) /    286.982 (MB)

	Size of irrep 0 of <ia|bc> integrals:      0.062 (MW) /      0.493 (MB)
	Size of irrep 1 of <ia|bc> integrals:      0.024 (MW) /      0.195 (MB)
	Size of irrep 2 of <ia|bc> integrals:      0.024 (MW) /      0.195 (MB)
	Size of irrep 3 of <ia|bc> integrals:      0.024 (MW) /      0.195 (MB)
	Size of irrep 4 of <ia|bc> integrals:      0.015 (MW) /      0.119 (MB)
	Size of irrep 5 of <ia|bc> integrals:      0.044 (MW) /      0.351 (MB)
	Size of irrep 6 of <ia|bc> integrals:      0.044 (MW) /      0.351 (MB)
	Size of irrep 7 of <ia|bc> integrals:      0.044 (MW) /      0.351 (MB)
	Total:                                     0.281 (MW) /      2.250 (MB)

	Size of irrep 0 of tijab amplitudes:       0.002 (MW) /      0.019 (MB)
	Size of irrep 1 of tijab amplitudes:       0.000 (MW) /      0.000 (MB)
	Size of irrep 2 of tijab amplitudes:       0.000 (MW) /      0.000 (MB)
	Size of irrep 3 of tijab amplitudes:       0.000 (MW) /      0.000 (MB)
	Size of irrep 4 of tijab amplitudes:       0.000 (MW) /      0.000 (MB)
	Size of irrep 5 of tijab amplitudes:       0.000 (MW) /      0.000 (MB)
	Size of irrep 6 of tijab amplitudes:       0.000 (MW) /      0.000 (MB)
	Size of irrep 7 of tijab amplitudes:       0.000 (MW) /      0.000 (MB)
	Total:                                     0.002 (MW) /      0.019 (MB)

	Nuclear Rep. energy          =      0.00000000000000
	SCF energy                   =   -241.67461434389767
	One-electron energy          =     -2.04781257232504
	Two-electron energy          =      0.37160353166623
	Reference energy             =   -241.67461434389750

*** tstop() called on cqc03 at Fri May  3 11:24:40 2019
Module time:
	user time   =       1.38 seconds =       0.02 minutes
	system time =       0.75 seconds =       0.01 minutes
	total time  =          3 seconds =       0.05 minutes
Total time:
	user time   =       6.95 seconds =       0.12 minutes
	system time =       0.96 seconds =       0.02 minutes
	total time  =          9 seconds =       0.15 minutes

*** tstart() called on cqc03
*** at Fri May  3 11:24:40 2019

            **************************
            *                        *
            *        CCENERGY        *
            *                        *
            **************************

    Nuclear Rep. energy (wfn)     =    0.000000000000000
    SCF energy          (wfn)     = -241.674614343897673
    Reference energy    (file100) = -241.674614343897503

    Input parameters:
    -----------------
    Wave function   =     CCSD
    Reference wfn   =     RHF
    Brueckner       =     No
    Memory (Mbytes) =     32000.0
    Maxiter         =     50
    R_Convergence   =     1.0e-07
    E_Convergence   =     1.0e-06
    Restart         =     Yes
    DIIS            =     Yes
    AO Basis        =     NONE
    ABCD            =     NEW
    Cache Level     =     2
    Cache Type      =     LOW
    Print Level     =     1
    Num. of threads =     1
    # Amps to Print =     10
    Print MP2 Amps? =     No
    Analyze T2 Amps =     No
    Print Pair Ener =     No
    Local CC        =     No
    SCS-MP2         =     False
    SCSN-MP2        =     False
    SCS-CCSD        =     False

MP2 correlation energy -0.0298497604778846
                Solving CC Amplitude Equations
                ------------------------------
  Iter             Energy              RMS        T1Diag      D1Diag    New D1Diag    D2Diag
  ----     ---------------------    ---------   ----------  ----------  ----------   --------
     0        -0.029849760477873    0.000e+00    0.000000    0.000000    0.000000    0.154277
     1        -0.042387962487590    8.945e-02    0.011337    0.016033    0.016033    0.253977
     2        -0.041223094360366    1.245e-02    0.010038    0.014196    0.014196    0.244987
     3        -0.040451229994107    3.725e-03    0.009718    0.013744    0.013744    0.240522
     4        -0.040463663846423    4.574e-04    0.009643    0.013637    0.013637    0.240328
     5        -0.040432033722356    1.852e-04    0.009621    0.013606    0.013606    0.240100
     6        -0.040421474573371    5.755e-05    0.009616    0.013599    0.013599    0.240008
     7        -0.040423001485409    5.954e-06    0.009617    0.013601    0.013601    0.240017
     8        -0.040422311623058    2.755e-06    0.009617    0.013601    0.013601    0.240012
     9        -0.040422371037182    2.766e-07    0.009617    0.013601    0.013601    0.240013
    10        -0.040422371488087    3.457e-08    0.009617    0.013601    0.013601    0.240013
    10        -0.040422371488087    3.457e-08    0.009617    0.013601    0.013601    0.240013

    Iterations converged.


    CCSD corr. energy   =   -0.040422371488087
    PPL corr. energy    =    0.022066654461188
    OS PPL corr. energy =    0.022066654461188
    SS PPL corr. energy =    0.000000000000000
    Largest TIA Amplitudes:
              0   3         0.0093734753
              0   0        -0.0092610364
              0  11        -0.0030505609
              0  19        -0.0014321626
              0  25         0.0000273017
              0   4         0.0000000912
              0   1         0.0000000773
              0   6         0.0000000390

    Largest TIjAb Amplitudes:
      0   0  70  70        -0.1607284832
      0   0 110 110        -0.1607284832
      0   0  90  90        -0.1607284160
      0   0  70  72        -0.0558052146
      0   0  72  70        -0.0558052146
      0   0 110 112        -0.0558052146
      0   0 112 110        -0.0558052146
      0   0  90  92        -0.0558051978
      0   0  92  90        -0.0558051978
      0   0  70  71        -0.0391973356

    SCF energy       (wfn)                    = -241.674614343897673
    Reference energy (file100)                = -241.674614343897503

    Opposite-spin MP2 correlation energy      =   -0.029849760477873
    Same-spin MP2 correlation energy          =   -0.000000000000000
    MP2 correlation energy                    =   -0.029849760477885
      * MP2 total energy                      = -241.704464104375376

    Opposite-spin CCSD correlation energy     =   -0.040422371496968
    Same-spin CCSD correlation energy         =    0.000000000000000
    CCSD correlation energy                   =   -0.040422371488087
      * CCSD total energy                     = -241.715036715385594


*** tstop() called on cqc03 at Fri May  3 11:24:42 2019
Module time:
	user time   =       0.47 seconds =       0.01 minutes
	system time =       0.54 seconds =       0.01 minutes
	total time  =          2 seconds =       0.03 minutes
Total time:
	user time   =       7.42 seconds =       0.12 minutes
	system time =       1.50 seconds =       0.03 minutes
	total time  =         11 seconds =       0.18 minutes

*** Psi4 exiting successfully. Buy a developer a beer!
