
    -----------------------------------------------------------------------
          Psi4: An Open-Source Ab Initio Electronic Structure Package
                               Psi4 1.2a1.dev939 

                         Git: Rev {HEAD} fa1ec19 


    R. M. Parrish, L. A. Burns, D. G. A. Smith, A. C. Simmonett,
    A. E. DePrince III, E. G. Hohenstein, U. Bozkaya, A. Yu. Sokolov,
    R. Di Remigio, R. M. Richard, J. F. Gonthier, A. M. James,
    H. R. McAlexander, A. Kumar, M. Saitow, X. Wang, B. P. Pritchard,
    P. Verma, H. F. Schaefer III, K. Patkowski, R. A. King, E. F. Valeev,
    F. A. Evangelista, J. M. Turney, T. D. Crawford, and C. D. Sherrill,
    J. Chem. Theory Comput. 13(7) pp 3185--3197 (2017).
    (doi: 10.1021/acs.jctc.7b00174)

    -----------------------------------------------------------------------


    Psi4 started on: Monday, 29 April 2019 05:46PM

    Process ID:  19392
    PSIDATADIR: /home/grueneis/src/psi4/objdir/stage/usr/local/psi4/share/psi4
    Memory:     500.0 MiB
    Threads:    1
    
  ==> Input File <==

--------------------------------------------------------------------------
# Any line starting with the # character is a comment line

memory 32000 mb

molecule molecule {
1 1
Al          0.0000000000        0.0000000000        0.0000000000
}

set {
  reference rhf
  basis aug-cc-pv(Q+d)z
  scf_type OUT_OF_CORE
  freeze_core true
}

energy('ccsd')
--------------------------------------------------------------------------

  Memory set to  29.802 GiB by Python driver.

*** tstart() called on cqc01
*** at Mon Apr 29 17:46:01 2019

   => Loading Basis Set <=

    Name: AUG-CC-PV(Q+D)Z
    Role: ORBITAL
    Keyword: BASIS
    atoms 1 entry AL         line   854 file /home/grueneis/src/psi4/objdir/stage/usr/local/psi4/share/psi4/basis/aug-cc-pv_qpd_z.gbs 


         ---------------------------------------------------------
                                   SCF
            by Justin Turney, Rob Parrish, Andy Simmonett
                             and Daniel Smith
                              RHF Reference
                        1 Threads,  30517 MiB Core
         ---------------------------------------------------------

  ==> Geometry <==

    Molecular point group: d2h
    Geometry (in Angstrom), charge = 1, multiplicity = 1:

       Center              X                  Y                   Z               Mass       
    ------------   -----------------  -----------------  -----------------  -----------------
          AL          0.000000000000     0.000000000000     0.000000000000    26.981538627000

  Running in d2h symmetry.

  Rotational constants: A = ************  B = ************  C = ************ [cm^-1]
  Rotational constants: A = ************  B = ************  C = ************ [MHz]
  Nuclear repulsion =    0.000000000000000

  Charge       = 1
  Multiplicity = 1
  Electrons    = 12
  Nalpha       = 6
  Nbeta        = 6

  ==> Algorithm <==

  SCF Algorithm Type is OUT_OF_CORE.
  DIIS enabled.
  MOM disabled.
  Fractional occupation disabled.
  Guess Type is CORE.
  Energy threshold   = 1.00e-08
  Density threshold  = 1.00e-08
  Integral threshold = 0.00e+00

  ==> Primary Basis <==

  Basis Set: AUG-CC-PV(Q+D)Z
    Blend: AUG-CC-PV(Q+D)Z
    Number of shells: 23
    Number of basis function: 89
    Number of Cartesian functions: 115
    Spherical Harmonics?: true
    Max angular momentum: 4

  ==> Pre-Iterations <==

   -------------------------------------------------------
    Irrep   Nso     Nmo     Nalpha   Nbeta   Ndocc  Nsocc
   -------------------------------------------------------
     Ag        23      23       0       0       0       0
     B1g        9       9       0       0       0       0
     B2g        9       9       0       0       0       0
     B3g        9       9       0       0       0       0
     Au         3       3       0       0       0       0
     B1u       12      12       0       0       0       0
     B2u       12      12       0       0       0       0
     B3u       12      12       0       0       0       0
   -------------------------------------------------------
    Total      89      89       6       6       6       0
   -------------------------------------------------------

  ==> Integral Setup <==

  ==> DiskJK: Disk-Based J/K Matrices <==

    J tasked:                  Yes
    K tasked:                  Yes
    wK tasked:                  No
    Memory (MB):             22888
    Schwarz Cutoff:          1E-12

  Minimum eigenvalue in the overlap matrix is 1.3189554212E-04.
  Using Symmetric Orthogonalization.

  SCF Guess: Core (One-Electron) Hamiltonian.

  ==> Iterations <==

                        Total Energy        Delta E     RMS |[F,P]|

   @RHF iter   1:  -235.66080425476858   -2.35661e+02   1.27808e-01 
   @RHF iter   2:  -241.52134268934347   -5.86054e+00   2.24169e-02 DIIS
   @RHF iter   3:  -241.67207318578875   -1.50730e-01   2.15753e-03 DIIS
   @RHF iter   4:  -241.67424060415800   -2.16742e-03   2.55718e-04 DIIS
   @RHF iter   5:  -241.67435201295157   -1.11409e-04   4.00833e-05 DIIS
   @RHF iter   6:  -241.67435615332170   -4.14037e-06   2.39544e-06 DIIS
   @RHF iter   7:  -241.67435616017642   -6.85472e-09   1.50568e-07 DIIS
   @RHF iter   8:  -241.67435616019478   -1.83604e-11   6.62716e-09 DIIS

  ==> Post-Iterations <==

    Orbital Energies (a.u.)
    -----------------------

    Doubly Occupied:                                                      

       1Ag   -58.813559     2Ag    -5.217878     1B1u   -3.522973  
       1B3u   -3.522973     1B2u   -3.522973     3Ag    -0.652304  

    Virtual:                                                              

       2B1u   -0.195086     2B3u   -0.195086     2B2u   -0.195086  
       4Ag    -0.095761     3B3u   -0.064863     3B2u   -0.064863  
       3B1u   -0.064863     5Ag    -0.050630     1B2g   -0.050630  
       1B3g   -0.050630     1B1g   -0.050630     6Ag    -0.050630  
       4B3u    0.041589     4B1u    0.041589     4B2u    0.041589  
       7Ag     0.048437     8Ag     0.067023     2B3g    0.067023  
       2B1g    0.067023     2B2g    0.067023     9Ag     0.067023  
       5B3u    0.078460     5B2u    0.078460     6B3u    0.078460  
       6B2u    0.078460     5B1u    0.078460     6B1u    0.078460  
       1Au     0.078460     3B1g    0.408022     3B3g    0.408022  
      10Ag     0.408022     3B2g    0.408022    11Ag     0.408022  
       7B1u    0.479537     7B3u    0.479537     7B2u    0.479537  
       8B3u    0.479537     8B2u    0.479537     8B1u    0.479537  
       2Au     0.479537     4B1g    0.545723     4B2g    0.545723  
      12Ag     0.545723     4B3g    0.545723     5B2g    0.545723  
      13Ag     0.545723     5B1g    0.545723    14Ag     0.545723  
       5B3g    0.545723     9B3u    0.579057     9B1u    0.579057  
       9B2u    0.579057    15Ag     0.626811    16Ag     1.229825  
       6B1g    1.229825     6B3g    1.229825    17Ag     1.229825  
       6B2g    1.229825    10B3u    1.540639    10B2u    1.540639  
      10B1u    1.540639    11B3u    1.540639    11B2u    1.540639  
      11B1u    1.540639     3Au     1.540639     7B3g    1.787704  
      18Ag     1.787704     7B2g    1.787704    19Ag     1.787704  
       8B2g    1.787704     7B1g    1.787704    20Ag     1.787704  
       8B1g    1.787704     8B3g    1.787704     9B1g    4.405986  
      21Ag     4.405986     9B3g    4.405986     9B2g    4.405986  
      22Ag     4.405986    23Ag     5.825116    12B1u    7.617889  
      12B3u    7.617889    12B2u    7.617889  

    Final Occupation by Irrep:
             Ag   B1g   B2g   B3g    Au   B1u   B2u   B3u 
    DOCC [     3,    0,    0,    0,    0,    1,    1,    1 ]

  Energy converged.

  @RHF Final Energy:  -241.67435616019478

   => Energetics <=

    Nuclear Repulsion Energy =              0.0000000000000000
    One-Electron Energy =                -332.8433934445619116
    Two-Electron Energy =                  91.1690372843671355
    Total Energy =                       -241.6743561601947761



Properties will be evaluated at   0.000000,   0.000000,   0.000000 Bohr

Properties computed using the SCF density matrix

  Nuclear Dipole Moment: (a.u.)
     X:     0.0000      Y:     0.0000      Z:     0.0000

  Electronic Dipole Moment: (a.u.)
     X:     0.0000      Y:     0.0000      Z:     0.0000

  Dipole Moment: (a.u.)
     X:     0.0000      Y:     0.0000      Z:     0.0000     Total:     0.0000

  Dipole Moment: (Debye)
     X:     0.0000      Y:     0.0000      Z:     0.0000     Total:     0.0000


*** tstop() called on cqc01 at Mon Apr 29 17:46:16 2019
Module time:
	user time   =       1.57 seconds =       0.03 minutes
	system time =       1.30 seconds =       0.02 minutes
	total time  =         15 seconds =       0.25 minutes
Total time:
	user time   =       1.57 seconds =       0.03 minutes
	system time =       1.30 seconds =       0.02 minutes
	total time  =         15 seconds =       0.25 minutes

*** tstart() called on cqc01
*** at Mon Apr 29 17:46:16 2019


	Wfn Parameters:
	--------------------
	Wavefunction         = CCSD
	Number of irreps     = 8
	Number of MOs        = 89
	Number of active MOs = 84
	AO-Basis             = NONE
	Semicanonical        = false
	Reference            = RHF
	Print Level          = 1

	IRREP	# MOs	# FZDC	# DOCC	# SOCC	# VIRT	# FZVR
	-----	-----	------	------	------	------	------
	 Ag	   23	    2	    1	    0	    20	    0
	 B1g	   9	    0	    0	    0	    9	    0
	 B2g	   9	    0	    0	    0	    9	    0
	 B3g	   9	    0	    0	    0	    9	    0
	 Au	   3	    0	    0	    0	    3	    0
	 B1u	   12	    1	    0	    0	    11	    0
	 B2u	   12	    1	    0	    0	    11	    0
	 B3u	   12	    1	    0	    0	    11	    0
	Transforming integrals...
	IWL integrals will be deleted.
	(OO|OO)...
	Presorting SO-basis two-electron integrals.
	Sorting File: SO Ints (nn|nn) nbuckets = 1
	Transforming the one-electron integrals and constructing Fock matrices
	Starting first half-transformation.
	Sorting half-transformed integrals.
	First half integral transformation complete.
	Starting second half-transformation.
	Two-electron integral transformation complete.
	(OO|OV)...
	Starting second half-transformation.
	Two-electron integral transformation complete.
	(OO|VV)...
	Starting second half-transformation.
	Two-electron integral transformation complete.
	(OV|OO)...
	Starting first half-transformation.
	Sorting half-transformed integrals.
	First half integral transformation complete.
	Starting second half-transformation.
	Two-electron integral transformation complete.
	(OV|OV)...
	Starting second half-transformation.
	Two-electron integral transformation complete.
	(OV|VV)...
	Starting second half-transformation.
	Two-electron integral transformation complete.
	(VV|OO)...
	Starting first half-transformation.
	Sorting half-transformed integrals.
	First half integral transformation complete.
	Starting second half-transformation.
	Two-electron integral transformation complete.
	(VV|OV)...
	Starting second half-transformation.
	Two-electron integral transformation complete.
	(VV|VV)...
	Starting second half-transformation.
	Two-electron integral transformation complete.
	Frozen core energy     =   -239.99812843683392

	Size of irrep 0 of <ab|cd> integrals:      1.030 (MW) /      8.242 (MB)
	Size of irrep 1 of <ab|cd> integrals:      0.689 (MW) /      5.511 (MB)
	Size of irrep 2 of <ab|cd> integrals:      0.689 (MW) /      5.511 (MB)
	Size of irrep 3 of <ab|cd> integrals:      0.689 (MW) /      5.511 (MB)
	Size of irrep 4 of <ab|cd> integrals:      0.510 (MW) /      4.078 (MB)
	Size of irrep 5 of <ab|cd> integrals:      0.792 (MW) /      6.337 (MB)
	Size of irrep 6 of <ab|cd> integrals:      0.792 (MW) /      6.337 (MB)
	Size of irrep 7 of <ab|cd> integrals:      0.792 (MW) /      6.337 (MB)
	Total:                                     5.983 (MW) /     47.864 (MB)

	Size of irrep 0 of <ia|bc> integrals:      0.020 (MW) /      0.162 (MB)
	Size of irrep 1 of <ia|bc> integrals:      0.007 (MW) /      0.060 (MB)
	Size of irrep 2 of <ia|bc> integrals:      0.007 (MW) /      0.060 (MB)
	Size of irrep 3 of <ia|bc> integrals:      0.007 (MW) /      0.060 (MB)
	Size of irrep 4 of <ia|bc> integrals:      0.002 (MW) /      0.017 (MB)
	Size of irrep 5 of <ia|bc> integrals:      0.010 (MW) /      0.078 (MB)
	Size of irrep 6 of <ia|bc> integrals:      0.010 (MW) /      0.078 (MB)
	Size of irrep 7 of <ia|bc> integrals:      0.010 (MW) /      0.078 (MB)
	Total:                                     0.074 (MW) /      0.594 (MB)

	Size of irrep 0 of tijab amplitudes:       0.001 (MW) /      0.008 (MB)
	Size of irrep 1 of tijab amplitudes:       0.000 (MW) /      0.000 (MB)
	Size of irrep 2 of tijab amplitudes:       0.000 (MW) /      0.000 (MB)
	Size of irrep 3 of tijab amplitudes:       0.000 (MW) /      0.000 (MB)
	Size of irrep 4 of tijab amplitudes:       0.000 (MW) /      0.000 (MB)
	Size of irrep 5 of tijab amplitudes:       0.000 (MW) /      0.000 (MB)
	Size of irrep 6 of tijab amplitudes:       0.000 (MW) /      0.000 (MB)
	Size of irrep 7 of tijab amplitudes:       0.000 (MW) /      0.000 (MB)
	Total:                                     0.001 (MW) /      0.008 (MB)

	Nuclear Rep. energy          =      0.00000000000000
	SCF energy                   =   -241.67435616019478
	One-electron energy          =     -2.04784759373691
	Two-electron energy          =      0.37161987037593
	Reference energy             =   -241.67435616019489

*** tstop() called on cqc01 at Mon Apr 29 17:47:30 2019
Module time:
	user time   =       0.46 seconds =       0.01 minutes
	system time =       0.30 seconds =       0.01 minutes
	total time  =         74 seconds =       1.23 minutes
Total time:
	user time   =       2.03 seconds =       0.03 minutes
	system time =       1.61 seconds =       0.03 minutes
	total time  =         89 seconds =       1.48 minutes

*** tstart() called on cqc01
*** at Mon Apr 29 17:47:30 2019

            **************************
            *                        *
            *        CCENERGY        *
            *                        *
            **************************

    Nuclear Rep. energy (wfn)     =    0.000000000000000
    SCF energy          (wfn)     = -241.674356160194776
    Reference energy    (file100) = -241.674356160194890

    Input parameters:
    -----------------
    Wave function   =     CCSD
    Reference wfn   =     RHF
    Brueckner       =     No
    Memory (Mbytes) =     32000.0
    Maxiter         =     50
    R_Convergence   =     1.0e-07
    E_Convergence   =     1.0e-06
    Restart         =     Yes
    DIIS            =     Yes
    AO Basis        =     NONE
    ABCD            =     NEW
    Cache Level     =     2
    Cache Type      =     LOW
    Print Level     =     1
    Num. of threads =     1
    # Amps to Print =     10
    Print MP2 Amps? =     No
    Analyze T2 Amps =     No
    Print Pair Ener =     No
    Local CC        =     No
    SCS-MP2         =     False
    SCSN-MP2        =     False
    SCS-CCSD        =     False

MP2 correlation energy -0.0291309329679828
                Solving CC Amplitude Equations
                ------------------------------
  Iter             Energy              RMS        T1Diag      D1Diag    New D1Diag    D2Diag
  ----     ---------------------    ---------   ----------  ----------  ----------   --------
     0        -0.029130932967981    0.000e+00    0.000000    0.000000    0.000000    0.153704
     1        -0.042795011851637    8.446e-02    0.010689    0.015116    0.015116    0.255990
     2        -0.040736630232085    1.338e-02    0.009864    0.013950    0.013950    0.244404
     3        -0.040272913700144    2.891e-03    0.009474    0.013398    0.013398    0.241288
     4        -0.040191667446935    4.760e-04    0.009402    0.013296    0.013296    0.240681
     5        -0.040181886822334    1.291e-04    0.009385    0.013272    0.013272    0.240556
     6        -0.040176816173090    3.547e-05    0.009383    0.013270    0.013270    0.240509
     7        -0.040176020153304    4.515e-06    0.009383    0.013270    0.013270    0.240502
     8        -0.040176114619270    7.008e-07    0.009384    0.013270    0.013270    0.240503
     9        -0.040176106090678    1.390e-07    0.009384    0.013270    0.013270    0.240503
    10        -0.040176106463283    2.567e-08    0.009384    0.013270    0.013270    0.240503
    10        -0.040176106463283    2.567e-08    0.009384    0.013270    0.013270    0.240503

    Iterations converged.


    CCSD corr. energy   =   -0.040176106463283
    PPL corr. energy    =    0.021593047054655
    OS PPL corr. energy =    0.021593047054656
    SS PPL corr. energy =   -0.000000000000000
    Largest TIA Amplitudes:
              0   3        -0.0093253988
              0   0         0.0091914409
              0  11         0.0020515030
              0  19         0.0006701037

    Largest TIjAb Amplitudes:
      0   0  50  50        -0.1610267028
      0   0  61  61        -0.1610267028
      0   0  72  72        -0.1610267028
      0   0  50  52        -0.0586984464
      0   0  52  50        -0.0586984464
      0   0  61  63        -0.0586984464
      0   0  63  61        -0.0586984464
      0   0  72  74        -0.0586984464
      0   0  74  72        -0.0586984464
      0   0  50  51        -0.0398752904

    SCF energy       (wfn)                    = -241.674356160194776
    Reference energy (file100)                = -241.674356160194890

    Opposite-spin MP2 correlation energy      =   -0.029130932967981
    Same-spin MP2 correlation energy          =    0.000000000000000
    MP2 correlation energy                    =   -0.029130932967983
      * MP2 total energy                      = -241.703487093162863

    Opposite-spin CCSD correlation energy     =   -0.040176106932845
    Same-spin CCSD correlation energy         =   -0.000000000000000
    CCSD correlation energy                   =   -0.040176106463283
      * CCSD total energy                     = -241.714532266658182


*** tstop() called on cqc01 at Mon Apr 29 17:48:30 2019
Module time:
	user time   =       0.49 seconds =       0.01 minutes
	system time =       1.27 seconds =       0.02 minutes
	total time  =         60 seconds =       1.00 minutes
Total time:
	user time   =       2.52 seconds =       0.04 minutes
	system time =       2.88 seconds =       0.05 minutes
	total time  =        149 seconds =       2.48 minutes

*** Psi4 exiting successfully. Buy a developer a beer!
