
    -----------------------------------------------------------------------
          Psi4: An Open-Source Ab Initio Electronic Structure Package
                               Psi4 1.2a1.dev939 

                         Git: Rev {HEAD} fa1ec19 


    R. M. Parrish, L. A. Burns, D. G. A. Smith, A. C. Simmonett,
    A. E. DePrince III, E. G. Hohenstein, U. Bozkaya, A. Yu. Sokolov,
    R. Di Remigio, R. M. Richard, J. F. Gonthier, A. M. James,
    H. R. McAlexander, A. Kumar, M. Saitow, X. Wang, B. P. Pritchard,
    P. Verma, H. F. Schaefer III, K. Patkowski, R. A. King, E. F. Valeev,
    F. A. Evangelista, J. M. Turney, T. D. Crawford, and C. D. Sherrill,
    J. Chem. Theory Comput. 13(7) pp 3185--3197 (2017).
    (doi: 10.1021/acs.jctc.7b00174)

    -----------------------------------------------------------------------


    Psi4 started on: Friday, 26 April 2019 05:13PM

    Process ID:  11992
    PSIDATADIR: /home/grueneis/src/psi4/objdir/stage/usr/local/psi4/share/psi4
    Memory:     500.0 MiB
    Threads:    1
    
  ==> Input File <==

--------------------------------------------------------------------------
# Any line starting with the # character is a comment line

memory 32000 mb

molecule molecule {
1 1
Al          0.0000000000        0.0000000000        0.0000000000
}

set {
  reference rhf
  basis aug-cc-pv(D+d)z
  scf_type OUT_OF_CORE
  freeze_core true
}

energy('ccsd')
--------------------------------------------------------------------------

  Memory set to  29.802 GiB by Python driver.

*** tstart() called on cqc01
*** at Fri Apr 26 17:13:03 2019

   => Loading Basis Set <=

    Name: AUG-CC-PV(D+D)Z
    Role: ORBITAL
    Keyword: BASIS
    atoms 1 entry AL         line   520 file /home/grueneis/src/psi4/objdir/stage/usr/local/psi4/share/psi4/basis/aug-cc-pv_dpd_z.gbs 


         ---------------------------------------------------------
                                   SCF
            by Justin Turney, Rob Parrish, Andy Simmonett
                             and Daniel Smith
                              RHF Reference
                        1 Threads,  30517 MiB Core
         ---------------------------------------------------------

  ==> Geometry <==

    Molecular point group: d2h
    Geometry (in Angstrom), charge = 1, multiplicity = 1:

       Center              X                  Y                   Z               Mass       
    ------------   -----------------  -----------------  -----------------  -----------------
          AL          0.000000000000     0.000000000000     0.000000000000    26.981538627000

  Running in d2h symmetry.

  Rotational constants: A = ************  B = ************  C = ************ [cm^-1]
  Rotational constants: A = ************  B = ************  C = ************ [MHz]
  Nuclear repulsion =    0.000000000000000

  Charge       = 1
  Multiplicity = 1
  Electrons    = 12
  Nalpha       = 6
  Nbeta        = 6

  ==> Algorithm <==

  SCF Algorithm Type is OUT_OF_CORE.
  DIIS enabled.
  MOM disabled.
  Fractional occupation disabled.
  Guess Type is CORE.
  Energy threshold   = 1.00e-08
  Density threshold  = 1.00e-08
  Integral threshold = 0.00e+00

  ==> Primary Basis <==

  Basis Set: AUG-CC-PV(D+D)Z
    Blend: AUG-CC-PV(D+D)Z
    Number of shells: 12
    Number of basis function: 32
    Number of Cartesian functions: 35
    Spherical Harmonics?: true
    Max angular momentum: 2

  ==> Pre-Iterations <==

   -------------------------------------------------------
    Irrep   Nso     Nmo     Nalpha   Nbeta   Ndocc  Nsocc
   -------------------------------------------------------
     Ag        11      11       0       0       0       0
     B1g        3       3       0       0       0       0
     B2g        3       3       0       0       0       0
     B3g        3       3       0       0       0       0
     Au         0       0       0       0       0       0
     B1u        4       4       0       0       0       0
     B2u        4       4       0       0       0       0
     B3u        4       4       0       0       0       0
   -------------------------------------------------------
    Total      32      32       6       6       6       0
   -------------------------------------------------------

  ==> Integral Setup <==

  ==> DiskJK: Disk-Based J/K Matrices <==

    J tasked:                  Yes
    K tasked:                  Yes
    wK tasked:                  No
    Memory (MB):             22888
    Schwarz Cutoff:          1E-12

  Minimum eigenvalue in the overlap matrix is 4.3336883501E-02.
  Using Symmetric Orthogonalization.

  SCF Guess: Core (One-Electron) Hamiltonian.

  ==> Iterations <==

                        Total Energy        Delta E     RMS |[F,P]|

   @RHF iter   1:  -236.58860927512086   -2.36589e+02   1.22526e-01 
   @RHF iter   2:  -241.39749723362766   -4.80889e+00   2.79701e-02 DIIS
   @RHF iter   3:  -241.65356607820235   -2.56069e-01   6.23924e-03 DIIS
   @RHF iter   4:  -241.66842171189120   -1.48556e-02   6.67912e-04 DIIS
   @RHF iter   5:  -241.66853158905485   -1.09877e-04   3.61241e-05 DIIS
   @RHF iter   6:  -241.66853182411396   -2.35059e-07   4.03275e-06 DIIS
   @RHF iter   7:  -241.66853182995533   -5.84137e-09   4.63089e-07 DIIS
   @RHF iter   8:  -241.66853183003630   -8.09735e-11   5.73230e-08 DIIS
   @RHF iter   9:  -241.66853183003764   -1.33582e-12   1.71550e-09 DIIS

  ==> Post-Iterations <==

    Orbital Energies (a.u.)
    -----------------------

    Doubly Occupied:                                                      

       1Ag   -58.820228     2Ag    -5.220841     1B2u   -3.526763  
       1B3u   -3.526763     1B1u   -3.526763     3Ag    -0.652482  

    Virtual:                                                              

       2B2u   -0.195243     2B3u   -0.195243     2B1u   -0.195243  
       4Ag    -0.092374     3B1u   -0.062526     3B3u   -0.062526  
       3B2u   -0.062526     1B2g   -0.021365     1B3g   -0.021365  
       1B1g   -0.021365     5Ag    -0.021365     6Ag    -0.021365  
       4B1u    0.179179     4B3u    0.179179     4B2u    0.179179  
       7Ag     0.185212     2B2g    0.271656     8Ag     0.271656  
       2B3g    0.271656     2B1g    0.271656     9Ag     0.271656  
       3B1g    2.135652     3B3g    2.135652     3B2g    2.135652  
      10Ag     2.135652    11Ag     2.135652  

    Final Occupation by Irrep:
             Ag   B1g   B2g   B3g    Au   B1u   B2u   B3u 
    DOCC [     3,    0,    0,    0,    0,    1,    1,    1 ]

  Energy converged.

  @RHF Final Energy:  -241.66853183003764

   => Energetics <=

    Nuclear Repulsion Energy =              0.0000000000000000
    One-Electron Energy =                -332.7893833841548030
    Two-Electron Energy =                  91.1208515541171664
    Total Energy =                       -241.6685318300376366



Properties will be evaluated at   0.000000,   0.000000,   0.000000 Bohr

Properties computed using the SCF density matrix

  Nuclear Dipole Moment: (a.u.)
     X:     0.0000      Y:     0.0000      Z:     0.0000

  Electronic Dipole Moment: (a.u.)
     X:     0.0000      Y:     0.0000      Z:     0.0000

  Dipole Moment: (a.u.)
     X:     0.0000      Y:     0.0000      Z:     0.0000     Total:     0.0000

  Dipole Moment: (Debye)
     X:     0.0000      Y:     0.0000      Z:     0.0000     Total:     0.0000


*** tstop() called on cqc01 at Fri Apr 26 17:13:03 2019
Module time:
	user time   =       0.18 seconds =       0.00 minutes
	system time =       0.14 seconds =       0.00 minutes
	total time  =          0 seconds =       0.00 minutes
Total time:
	user time   =       0.18 seconds =       0.00 minutes
	system time =       0.14 seconds =       0.00 minutes
	total time  =          0 seconds =       0.00 minutes

*** tstart() called on cqc01
*** at Fri Apr 26 17:13:03 2019


	Wfn Parameters:
	--------------------
	Wavefunction         = CCSD
	Number of irreps     = 8
	Number of MOs        = 32
	Number of active MOs = 27
	AO-Basis             = NONE
	Semicanonical        = false
	Reference            = RHF
	Print Level          = 1

	IRREP	# MOs	# FZDC	# DOCC	# SOCC	# VIRT	# FZVR
	-----	-----	------	------	------	------	------
	 Ag	   11	    2	    1	    0	    8	    0
	 B1g	   3	    0	    0	    0	    3	    0
	 B2g	   3	    0	    0	    0	    3	    0
	 B3g	   3	    0	    0	    0	    3	    0
	 Au	   0	    0	    0	    0	    0	    0
	 B1u	   4	    1	    0	    0	    3	    0
	 B2u	   4	    1	    0	    0	    3	    0
	 B3u	   4	    1	    0	    0	    3	    0
	Transforming integrals...
	IWL integrals will be deleted.
	(OO|OO)...
	Presorting SO-basis two-electron integrals.
	Sorting File: SO Ints (nn|nn) nbuckets = 1
	Transforming the one-electron integrals and constructing Fock matrices
	Starting first half-transformation.
	Sorting half-transformed integrals.
	First half integral transformation complete.
	Starting second half-transformation.
	Two-electron integral transformation complete.
	(OO|OV)...
	Starting second half-transformation.
	Two-electron integral transformation complete.
	(OO|VV)...
	Starting second half-transformation.
	Two-electron integral transformation complete.
	(OV|OO)...
	Starting first half-transformation.
	Sorting half-transformed integrals.
	First half integral transformation complete.
	Starting second half-transformation.
	Two-electron integral transformation complete.
	(OV|OV)...
	Starting second half-transformation.
	Two-electron integral transformation complete.
	(OV|VV)...
	Starting second half-transformation.
	Two-electron integral transformation complete.
	(VV|OO)...
	Starting first half-transformation.
	Sorting half-transformed integrals.
	First half integral transformation complete.
	Starting second half-transformation.
	Two-electron integral transformation complete.
	(VV|OV)...
	Starting second half-transformation.
	Two-electron integral transformation complete.
	(VV|VV)...
	Starting second half-transformation.
	Two-electron integral transformation complete.
	Frozen core energy     =   -239.99283341115321

	Size of irrep 0 of <ab|cd> integrals:      0.014 (MW) /      0.111 (MB)
	Size of irrep 1 of <ab|cd> integrals:      0.007 (MW) /      0.056 (MB)
	Size of irrep 2 of <ab|cd> integrals:      0.007 (MW) /      0.056 (MB)
	Size of irrep 3 of <ab|cd> integrals:      0.007 (MW) /      0.056 (MB)
	Size of irrep 4 of <ab|cd> integrals:      0.003 (MW) /      0.023 (MB)
	Size of irrep 5 of <ab|cd> integrals:      0.007 (MW) /      0.056 (MB)
	Size of irrep 6 of <ab|cd> integrals:      0.007 (MW) /      0.056 (MB)
	Size of irrep 7 of <ab|cd> integrals:      0.007 (MW) /      0.056 (MB)
	Total:                                     0.059 (MW) /      0.473 (MB)

	Size of irrep 0 of <ia|bc> integrals:      0.001 (MW) /      0.008 (MB)
	Size of irrep 1 of <ia|bc> integrals:      0.000 (MW) /      0.002 (MB)
	Size of irrep 2 of <ia|bc> integrals:      0.000 (MW) /      0.002 (MB)
	Size of irrep 3 of <ia|bc> integrals:      0.000 (MW) /      0.002 (MB)
	Size of irrep 4 of <ia|bc> integrals:      0.000 (MW) /      0.000 (MB)
	Size of irrep 5 of <ia|bc> integrals:      0.000 (MW) /      0.002 (MB)
	Size of irrep 6 of <ia|bc> integrals:      0.000 (MW) /      0.002 (MB)
	Size of irrep 7 of <ia|bc> integrals:      0.000 (MW) /      0.002 (MB)
	Total:                                     0.002 (MW) /      0.020 (MB)

	Size of irrep 0 of tijab amplitudes:       0.000 (MW) /      0.001 (MB)
	Size of irrep 1 of tijab amplitudes:       0.000 (MW) /      0.000 (MB)
	Size of irrep 2 of tijab amplitudes:       0.000 (MW) /      0.000 (MB)
	Size of irrep 3 of tijab amplitudes:       0.000 (MW) /      0.000 (MB)
	Size of irrep 4 of tijab amplitudes:       0.000 (MW) /      0.000 (MB)
	Size of irrep 5 of tijab amplitudes:       0.000 (MW) /      0.000 (MB)
	Size of irrep 6 of tijab amplitudes:       0.000 (MW) /      0.000 (MB)
	Size of irrep 7 of tijab amplitudes:       0.000 (MW) /      0.000 (MB)
	Total:                                     0.000 (MW) /      0.001 (MB)

	Nuclear Rep. energy          =      0.00000000000000
	SCF energy                   =   -241.66853183003764
	One-electron energy          =     -2.04643240764555
	Two-electron energy          =      0.37073398876131
	Reference energy             =   -241.66853183003747

*** tstop() called on cqc01 at Fri Apr 26 17:13:04 2019
Module time:
	user time   =       0.05 seconds =       0.00 minutes
	system time =       0.08 seconds =       0.00 minutes
	total time  =          1 seconds =       0.02 minutes
Total time:
	user time   =       0.24 seconds =       0.00 minutes
	system time =       0.22 seconds =       0.00 minutes
	total time  =          1 seconds =       0.02 minutes

*** tstart() called on cqc01
*** at Fri Apr 26 17:13:04 2019

            **************************
            *                        *
            *        CCENERGY        *
            *                        *
            **************************

    Nuclear Rep. energy (wfn)     =    0.000000000000000
    SCF energy          (wfn)     = -241.668531830037637
    Reference energy    (file100) = -241.668531830037466

    Input parameters:
    -----------------
    Wave function   =     CCSD
    Reference wfn   =     RHF
    Brueckner       =     No
    Memory (Mbytes) =     32000.0
    Maxiter         =     50
    R_Convergence   =     1.0e-07
    E_Convergence   =     1.0e-06
    Restart         =     Yes
    DIIS            =     Yes
    AO Basis        =     NONE
    ABCD            =     NEW
    Cache Level     =     2
    Cache Type      =     LOW
    Print Level     =     1
    Num. of threads =     1
    # Amps to Print =     10
    Print MP2 Amps? =     No
    Analyze T2 Amps =     No
    Print Pair Ener =     No
    Local CC        =     No
    SCS-MP2         =     False
    SCSN-MP2        =     False
    SCS-CCSD        =     False

MP2 correlation energy -0.0255169229216219
                Solving CC Amplitude Equations
                ------------------------------
  Iter             Energy              RMS        T1Diag      D1Diag    New D1Diag    D2Diag
  ----     ---------------------    ---------   ----------  ----------  ----------   --------
     0        -0.025516922921622    0.000e+00    0.000000    0.000000    0.000000    0.150453
     1        -0.043152414708783    5.764e-02    0.007660    0.010832    0.010832    0.267170
     2        -0.038517218722507    2.051e-02    0.008803    0.012449    0.012449    0.243900
     3        -0.038986530436151    2.447e-03    0.008256    0.011676    0.011676    0.245779
     4        -0.038860486731475    8.155e-04    0.008161    0.011542    0.011542    0.244982
     5        -0.038808177038427    2.945e-04    0.008127    0.011494    0.011494    0.244614
     6        -0.038792262398350    7.669e-05    0.008122    0.011486    0.011486    0.244503
     7        -0.038790364658224    1.031e-05    0.008121    0.011485    0.011485    0.244489
     8        -0.038789892246428    2.195e-06    0.008121    0.011485    0.011485    0.244486
     9        -0.038789879062146    9.869e-08    0.008121    0.011485    0.011485    0.244486
     9        -0.038789879062146    9.869e-08    0.008121    0.011485    0.011485    0.244486

    Iterations converged.


    CCSD corr. energy   =   -0.038789879062146
    PPL corr. energy    =    0.019036040721417
    OS PPL corr. energy =    0.019036040721417
    SS PPL corr. energy =    0.000000000000000
    Largest TIA Amplitudes:
              0   0         0.0091039027
              0   3         0.0070024983

    Largest TIjAb Amplitudes:
      0   0  17  17        -0.1624384035
      0   0  23  23        -0.1624384011
      0   0  20  20        -0.1624384009
      0   0  17  19         0.0649053538
      0   0  19  17         0.0649053538
      0   0  23  25         0.0649053532
      0   0  25  23         0.0649053532
      0   0  20  22         0.0649053531
      0   0  22  20         0.0649053531
      0   0  17  18         0.0450275694

    SCF energy       (wfn)                    = -241.668531830037637
    Reference energy (file100)                = -241.668531830037466

    Opposite-spin MP2 correlation energy      =   -0.025516922921622
    Same-spin MP2 correlation energy          =    0.000000000000000
    MP2 correlation energy                    =   -0.025516922921622
      * MP2 total energy                      = -241.694048752959077

    Opposite-spin CCSD correlation energy     =   -0.038789879148396
    Same-spin CCSD correlation energy         =    0.000000000000000
    CCSD correlation energy                   =   -0.038789879062146
      * CCSD total energy                     = -241.707321709099602


*** tstop() called on cqc01 at Fri Apr 26 17:13:05 2019
Module time:
	user time   =       0.18 seconds =       0.00 minutes
	system time =       0.53 seconds =       0.01 minutes
	total time  =          1 seconds =       0.02 minutes
Total time:
	user time   =       0.42 seconds =       0.01 minutes
	system time =       0.75 seconds =       0.01 minutes
	total time  =          2 seconds =       0.03 minutes

*** Psi4 exiting successfully. Buy a developer a beer!
