
    -----------------------------------------------------------------------
          Psi4: An Open-Source Ab Initio Electronic Structure Package
                               Psi4 1.4a3.dev88 

                         Git: Rev {master} 262e345 


    D. G. A. Smith, L. A. Burns, A. C. Simmonett, R. M. Parrish,
    M. C. Schieber, R. Galvelis, P. Kraus, H. Kruse, R. Di Remigio,
    A. Alenaizan, A. M. James, S. Lehtola, J. P. Misiewicz, M. Scheurer,
    R. A. Shaw, J. B. Schriber, Y. Xie, Z. L. Glick, D. A. Sirianni,
    J. S. O'Brien, J. M. Waldrop, A. Kumar, E. G. Hohenstein,
    B. P. Pritchard, B. R. Brooks, H. F. Schaefer III, A. Yu. Sokolov,
    K. Patkowski, A. E. DePrince III, U. Bozkaya, R. A. King,
    F. A. Evangelista, J. M. Turney, T. D. Crawford, C. D. Sherrill,
    J. Chem. Phys. 152(18) 184108 (2020). https://doi.org/10.1063/5.0006002

                            Additional Code Authors
    E. T. Seidl, C. L. Janssen, E. F. Valeev, M. L. Leininger,
    J. F. Gonthier, R. M. Richard, H. R. McAlexander, M. Saitow, X. Wang,
    P. Verma, and M. H. Lechner

             Previous Authors, Complete List of Code Contributors,
                       and Citations for Specific Modules
    https://github.com/psi4/psi4/blob/master/codemeta.json
    https://github.com/psi4/psi4/graphs/contributors
    http://psicode.org/psi4manual/master/introduction.html#citing-psifour

    -----------------------------------------------------------------------


    Psi4 started on: Wednesday, 20 January 2021 08:01PM

    Process ID: 185867
    Host:       n412-037.vsc4.prov
    PSIDATADIR: /home/fs71337/gallo4/psi4/psi4/build/stage/share/psi4
    Memory:     500.0 MiB
    Threads:    48
    
  ==> Input File <==

--------------------------------------------------------------------------
# Any line starting with the # character is a comment line
memory 250000 mb
molecule molecule{
0 1
N          0.7147735098        0.0593513937        0.0430540470
N         -0.7147735098       -0.0593513937        0.0430540470
H          1.0693082921        0.3150198703       -0.8714981971
H          1.0889697597       -0.8506903245        0.2732035372
H         -1.0889697597        0.8506903245        0.2732035372
H         -1.0693082921       -0.3150198703       -0.8714981971
}

set {
  reference rhf
  basis aug-cc-pv(q+d)z
  scf_type OUT_OF_CORE
  freeze_core true
}

energy('ccsd(t)')
--------------------------------------------------------------------------

  Memory set to 232.831 GiB by Python driver.

Scratch directory: /binfl/lv71337/airmler/temp/

*** tstart() called on n412-037.vsc4.prov
*** at Wed Jan 20 20:01:33 2021

   => Loading Basis Set <=

    Name: AUG-CC-PV(Q+D)Z
    Role: ORBITAL
    Keyword: BASIS
    atoms 1-2 entry N          line   391 file /home/fs71337/gallo4/psi4/psi4/build/stage/share/psi4/basis/aug-cc-pv_qpd_z.gbs 
    atoms 3-6 entry H          line    68 file /home/fs71337/gallo4/psi4/psi4/build/stage/share/psi4/basis/aug-cc-pv_qpd_z.gbs 


         ---------------------------------------------------------
                                   SCF
               by Justin Turney, Rob Parrish, Andy Simmonett
                          and Daniel G. A. Smith
                              RHF Reference
                       48 Threads, 238418 MiB Core
         ---------------------------------------------------------

  ==> Geometry <==

    Molecular point group: c2
    Full point group: C2

    Geometry (in Angstrom), charge = 0, multiplicity = 1:

       Center              X                  Y                   Z               Mass       
    ------------   -----------------  -----------------  -----------------  -----------------
         N            0.714773509800     0.059351393700     0.043059498656    14.003074004430
         N           -0.714773509800    -0.059351393700     0.043059498656    14.003074004430
         H            1.069308292100     0.315019870300    -0.871492745444     1.007825032230
         H            1.088969759700    -0.850690324500     0.273208988856     1.007825032230
         H           -1.088969759700     0.850690324500     0.273208988856     1.007825032230
         H           -1.069308292100    -0.315019870300    -0.871492745444     1.007825032230

  Running in c2 symmetry.

  Rotational constants: A =      4.82940  B =      0.81294  C =      0.81200 [cm^-1]
  Rotational constants: A = 144781.91453  B =  24371.30119  C =  24343.02261 [MHz]
  Nuclear repulsion =   41.584330038609806

  Charge       = 0
  Multiplicity = 1
  Electrons    = 18
  Nalpha       = 9
  Nbeta        = 9

  ==> Algorithm <==

  SCF Algorithm Type is OUT_OF_CORE.
  DIIS enabled.
  MOM disabled.
  Fractional occupation disabled.
  Guess Type is SAD.
  Energy threshold   = 1.00e-08
  Density threshold  = 1.00e-08
  Integral threshold = 1.00e-12

  ==> Primary Basis <==

  Basis Set: AUG-CC-PV(Q+D)Z
    Blend: AUG-CC-PV(Q+D)Z
    Number of shells: 96
    Number of basis function: 344
    Number of Cartesian functions: 430
    Spherical Harmonics?: true
    Max angular momentum: 4

  ==> Integral Setup <==

  ==> DiskJK: Disk-Based J/K Matrices <==

    J tasked:                  Yes
    K tasked:                  Yes
    wK tasked:                  No
    Memory [MiB]:           178813
    Schwarz Cutoff:          1E-12

  Minimum eigenvalue in the overlap matrix is 3.0541426321E-05.
  Reciprocal condition number of the overlap matrix is 2.8244258330E-06.
    Using symmetric orthogonalization.

  ==> Pre-Iterations <==

  SCF Guess: Superposition of Atomic Densities via on-the-fly atomic UHF (no occupation information).


 WARNING: Atomic UHF is not converging! Try casting from a smaller basis or call Rob at CCMST.

 WARNING: Atomic UHF is not converging! Try casting from a smaller basis or call Rob at CCMST.
   -------------------------
    Irrep   Nso     Nmo    
   -------------------------
     A        172     172 
     B        172     172 
   -------------------------
    Total     344     344
   -------------------------

  ==> Iterations <==

                        Total Energy        Delta E     RMS |[F,P]|

   @RHF iter SAD:  -104.26182701503265   -1.04262e+02   0.00000e+00 
   @RHF iter   1:  -110.40372968241766   -6.14190e+00   5.73347e-03 DIIS
   @RHF iter   2:  -110.86982864413051   -4.66099e-01   3.72593e-03 DIIS
   @RHF iter   3:  -111.23106042594829   -3.61232e-01   2.61121e-04 DIIS
   @RHF iter   4:  -111.23435202493539   -3.29160e-03   6.33679e-05 DIIS
   @RHF iter   5:  -111.23470372228255   -3.51697e-04   1.69925e-05 DIIS
   @RHF iter   6:  -111.23473382809672   -3.01058e-05   4.15424e-06 DIIS
   @RHF iter   7:  -111.23473545011369   -1.62202e-06   8.46153e-07 DIIS
   @RHF iter   8:  -111.23473551203101   -6.19173e-08   1.68741e-07 DIIS
   @RHF iter   9:  -111.23473551462830   -2.59729e-09   3.57098e-08 DIIS
   @RHF iter  10:  -111.23473551472512   -9.68186e-11   9.05102e-09 DIIS
  Energy and wave function converged.


  ==> Post-Iterations <==

    Orbital Energies [Eh]
    ---------------------

    Doubly Occupied:                                                      

       1A    -15.568910     1B    -15.568450     2A     -1.255483  
       2B     -1.011189     3A     -0.678043     3B     -0.668401  
       4A     -0.606644     4B     -0.417736     5A     -0.410731  

    Virtual:                                                              

       6A      0.026211     5B      0.038220     6B      0.043918  
       7A      0.046481     7B      0.109563     8A      0.113129  
       9A      0.115764     8B      0.128463    10A      0.132493  
      11A      0.146634     9B      0.151205    12A      0.169703  
      10B      0.172375    11B      0.208225    12B      0.224232  
      13A      0.241907    14A      0.247676    13B      0.250251  
      14B      0.288082    15A      0.288117    16A      0.301223  
      15B      0.301412    16B      0.314179    17A      0.317175  
      18A      0.357567    17B      0.362522    19A      0.384947  
      18B      0.386163    20A      0.390254    19B      0.407909  
      21A      0.438102    20B      0.456067    22A      0.457346  
      21B      0.470084    22B      0.496421    23A      0.513257  
      23B      0.518447    24B      0.533442    24A      0.533946  
      25A      0.589818    26A      0.600128    25B      0.633956  
      26B      0.675499    27A      0.677055    28A      0.692925  
      27B      0.697581    28B      0.720630    29A      0.726864  
      29B      0.730908    30A      0.753797    30B      0.764016  
      31A      0.764620    31B      0.784796    32B      0.794821  
      32A      0.794852    33A      0.800664    33B      0.807075  
      34B      0.823594    34A      0.844220    35A      0.850332  
      35B      0.878984    36A      0.879563    36B      0.889103  
      37B      0.927921    37A      0.931049    38B      0.944181  
      38A      0.945662    39A      0.994583    39B      1.015603  
      40A      1.030348    40B      1.044554    41B      1.064793  
      41A      1.067133    42A      1.194339    42B      1.196217  
      43B      1.253850    43A      1.264883    44A      1.285860  
      45A      1.289434    44B      1.342195    46A      1.366177  
      45B      1.397548    47A      1.429112    46B      1.444660  
      47B      1.453735    48A      1.463770    48B      1.500866  
      49A      1.508432    49B      1.517511    50A      1.547398  
      50B      1.562190    51A      1.565775    51B      1.577291  
      52A      1.589988    52B      1.593301    53A      1.612316  
      53B      1.618510    54A      1.666431    54B      1.674206  
      55A      1.711035    55B      1.722322    56A      1.728489  
      56B      1.757939    57A      1.762335    57B      1.783798  
      58A      1.788988    58B      1.803849    59A      1.835623  
      59B      1.846564    60A      1.871619    60B      1.873478  
      61B      1.921226    61A      1.938423    62B      1.990555  
      62A      1.991839    63B      2.037283    63A      2.042111  
      64A      2.060465    64B      2.067821    65B      2.088551  
      65A      2.102003    66B      2.121396    66A      2.132798  
      67B      2.136067    67A      2.144239    68B      2.170623  
      68A      2.198737    69A      2.218435    69B      2.234527  
      70B      2.313385    70A      2.314636    71B      2.340738  
      71A      2.369443    72B      2.399466    72A      2.404732  
      73A      2.552546    73B      2.599390    74A      2.610103  
      75A      2.628732    74B      2.681918    76A      2.798103  
      75B      2.884082    77A      2.889375    76B      2.934541  
      78A      2.942079    77B      2.954340    79A      2.962311  
      78B      2.974276    80A      2.979107    79B      2.989873  
      81A      3.033950    80B      3.039525    81B      3.055287  
      82A      3.089058    82B      3.090354    83B      3.152212  
      83A      3.160999    84A      3.194418    84B      3.204507  
      85A      3.217747    86A      3.239890    85B      3.271283  
      86B      3.297530    87A      3.320034    87B      3.346555  
      88A      3.357523    89A      3.387925    88B      3.429192  
      89B      3.433712    90A      3.459680    90B      3.511943  
      91A      3.530516    91B      3.555872    92A      3.585276  
      92B      3.633096    93A      3.670544    93B      3.695763  
      94A      3.703327    95A      3.846940    94B      3.854575  
      95B      3.908557    96A      3.941858    96B      4.005091  
      97B      4.052962    97A      4.055380    98B      4.112977  
      98A      4.155780    99A      4.210127    99B      4.290261  
     100A      4.295020   100B      4.301374   101A      4.379692  
     102A      4.403241   101B      4.418715   103A      4.447743  
     102B      4.479445   103B      4.518966   104A      4.555755  
     104B      4.614203   105A      4.687798   105B      4.689575  
     106A      4.715243   107A      4.766661   108A      4.834958  
     106B      4.919502   107B      4.960499   108B      5.006907  
     109A      5.034997   110A      5.100757   109B      5.149278  
     110B      5.216946   111A      5.224383   111B      5.316942  
     112A      5.356773   112B      5.414240   113A      5.432843  
     114A      5.590142   113B      5.615071   115A      5.716602  
     114B      5.844788   115B      6.333006   116A      6.894526  
     116B      6.903334   117B      6.936064   118B      6.972010  
     117A      6.985049   118A      7.056063   119B      7.086020  
     119A      7.298446   120B      7.420533   120A      7.431557  
     121A      7.497386   121B      7.522435   122A      7.582391  
     122B      7.630076   123A      7.652337   123B      7.705427  
     124A      7.726953   125A      7.769310   124B      7.786915  
     126A      7.820905   125B      7.823143   126B      7.870821  
     127A      7.940655   127B      7.967752   128A      7.997755  
     128B      8.079339   129A      8.201469   130A      8.271639  
     131A      8.298290   129B      8.305894   130B      8.335018  
     132A      8.420684   131B      8.462933   133A      8.496594  
     132B      8.506479   134A      8.582875   135A      8.599747  
     133B      8.613407   134B      8.631442   135B      8.656194  
     136A      8.734909   136B      8.746759   137B      8.804791  
     137A      8.912290   138B      8.938725   138A      8.945292  
     139B      8.957528   139A      8.964650   140A      9.029469  
     140B      9.036215   141B      9.058392   141A      9.123531  
     142B      9.131295   142A      9.203961   143A      9.239901  
     143B      9.299208   144B      9.379821   144A      9.394408  
     145B      9.427066   145A      9.443251   146A      9.507786  
     146B      9.517014   147A      9.547220   147B      9.615548  
     148A      9.670808   149A      9.713574   148B      9.736293  
     149B      9.847310   150A      9.851081   151A      9.912836  
     152A      9.926875   150B      9.931659   151B      9.951774  
     153A     10.009504   154A     10.058214   152B     10.064523  
     153B     10.171429   155A     10.208194   154B     10.263820  
     155B     10.284545   156A     10.468762   156B     10.487521  
     157A     10.597472   157B     10.601984   158A     10.612332  
     158B     10.695966   159A     10.857977   160A     10.868269  
     159B     10.927863   161A     11.034244   160B     11.047968  
     161B     11.208363   162A     11.539780   162B     11.677113  
     163A     11.798870   163B     11.893472   164A     12.108796  
     164B     12.233651   165A     12.336633   165B     12.351157  
     166B     12.390958   166A     12.410836   167A     12.448950  
     168A     12.700832   167B     12.758848   169A     13.100456  
     168B     13.259316   169B     13.347985   170A     14.913818  
     170B     14.970519   171A     15.124510   171B     15.145072  
     172A     35.603576   172B     36.977970  

    Final Occupation by Irrep:
              A     B 
    DOCC [     5,    4 ]

  @RHF Final Energy:  -111.23473551472512

   => Energetics <=

    Nuclear Repulsion Energy =             41.5843300386098065
    One-Electron Energy =                -233.2669546240619525
    Two-Electron Energy =                  80.4478890707270295
    Total Energy =                       -111.2347355147251164

Computation Completed


Properties will be evaluated at   0.000000,   0.000000,   0.000000 [a0]

Properties computed using the SCF density matrix

  Nuclear Dipole Moment: [e a0]
     X:     0.0000      Y:     0.0000      Z:    -1.1220

  Electronic Dipole Moment: [e a0]
     X:     0.0000      Y:     0.0000      Z:     0.3170

  Dipole Moment: [e a0]
     X:     0.0000      Y:     0.0000      Z:    -0.8050     Total:     0.8050

  Dipole Moment: [D]
     X:     0.0000      Y:     0.0000      Z:    -2.0461     Total:     2.0461


*** tstop() called on n412-037.vsc4.prov at Wed Jan 20 20:13:16 2021
Module time:
	user time   =     370.15 seconds =       6.17 minutes
	system time =      82.68 seconds =       1.38 minutes
	total time  =        703 seconds =      11.72 minutes
Total time:
	user time   =     370.15 seconds =       6.17 minutes
	system time =      82.68 seconds =       1.38 minutes
	total time  =        703 seconds =      11.72 minutes

*** tstart() called on n412-037.vsc4.prov
*** at Wed Jan 20 20:13:16 2021


	Wfn Parameters:
	--------------------
	Wavefunction         = CCSD_T
	Number of irreps     = 2
	Number of MOs        = 344
	Number of active MOs = 342
	AO-Basis             = NONE
	Semicanonical        = false
	Reference            = RHF
	Print Level          = 1

	IRREP	# MOs	# FZDC	# DOCC	# SOCC	# VIRT	# FZVR
	-----	-----	------	------	------	------	------
	 A	   172	    1	    4	    0	    167	    0
	 B	   172	    1	    3	    0	    168	    0
	Transforming integrals...
	IWL integrals will be deleted.
	(OO|OO)...
	Presorting SO-basis two-electron integrals.
	Sorting File: SO Ints (nn|nn) nbuckets = 1
	Constructing frozen core operators
	Starting first half-transformation.
	Sorting half-transformed integrals.
	First half integral transformation complete.
	Starting second half-transformation.
	Two-electron integral transformation complete.
	(OO|OV)...
	Starting second half-transformation.
	Two-electron integral transformation complete.
	(OO|VV)...
	Starting second half-transformation.
	Two-electron integral transformation complete.
	(OV|OO)...
	Starting first half-transformation.
	Sorting half-transformed integrals.
	First half integral transformation complete.
	Starting second half-transformation.
	Two-electron integral transformation complete.
	(OV|OV)...
	Starting second half-transformation.
	Two-electron integral transformation complete.
	(OV|VV)...
	Starting second half-transformation.
	Two-electron integral transformation complete.
	(VV|OO)...
	Starting first half-transformation.
	Sorting half-transformed integrals.
	First half integral transformation complete.
	Starting second half-transformation.
	Two-electron integral transformation complete.
	(VV|OV)...
	Starting second half-transformation.
	Two-electron integral transformation complete.
	(VV|VV)...
	Starting second half-transformation.
	Two-electron integral transformation complete.
	Frozen core energy     =   -104.60902069967308

	Size of irrep 0 of <ab|cd> integrals:   3148.669 (MW) /  25189.350 (MB)
	Size of irrep 1 of <ab|cd> integrals:   3148.557 (MW) /  25188.452 (MB)
	Total:                                  6297.225 (MW) /  50377.803 (MB)

	Size of irrep 0 of <ia|bc> integrals:     65.764 (MW) /    526.115 (MB)
	Size of irrep 1 of <ia|bc> integrals:     65.819 (MW) /    526.555 (MB)
	Total:                                   131.584 (MW) /   1052.670 (MB)

	Size of irrep 0 of tijab amplitudes:       1.403 (MW) /     11.223 (MB)
	Size of irrep 1 of tijab amplitudes:       1.347 (MW) /     10.774 (MB)
	Total:                                     2.750 (MW) /     21.996 (MB)

	Nuclear Rep. energy          =     41.58433003860981
	SCF energy                   =   -111.23473551472512
	One-electron energy          =    -86.32363286268128
	Two-electron energy          =     38.11358800901006
	Reference energy             =   -111.23473551473450

*** tstop() called on n412-037.vsc4.prov at Wed Jan 20 20:29:19 2021
Module time:
	user time   =     434.19 seconds =       7.24 minutes
	system time =     186.87 seconds =       3.11 minutes
	total time  =        963 seconds =      16.05 minutes
Total time:
	user time   =     804.34 seconds =      13.41 minutes
	system time =     269.55 seconds =       4.49 minutes
	total time  =       1666 seconds =      27.77 minutes
            **************************
            *                        *
            *        CCENERGY        *
            *                        *
            **************************

    Nuclear Rep. energy (wfn)     =   41.584330038609806
    SCF energy          (wfn)     = -111.234735514725116
    Reference energy    (file100) = -111.234735514734496

    Input parameters:
    -----------------
    Wave function   =     CCSD_T
    Reference wfn   =     RHF
    Brueckner       =     No
    Memory (Mbytes) =     250000.0
    Maxiter         =     50
    R_Convergence   =     1.0e-07
    E_Convergence   =     1.0e-06
    Restart         =     Yes
    DIIS            =     Yes
    AO Basis        =     NONE
    ABCD            =     NEW
    Cache Level     =     2
    Cache Type      =     LOW
    Print Level     =     1
    Num. of threads =     48
    # Amps to Print =     10
    Print MP2 Amps? =     No
    Analyze T2 Amps =     No
    Print Pair Ener =     No
    Local CC        =     No
    SCS-MP2         =     False
    SCSN-MP2        =     False
    SCS-CCSD        =     False

MP2 correlation energy -0.4750889253487024
                Solving CC Amplitude Equations
                ------------------------------
  Iter             Energy              RMS        T1Diag      D1Diag    New D1Diag    D2Diag
  ----     ---------------------    ---------   ----------  ----------  ----------   --------
     0        -0.475088925348702    0.000e+00    0.000000    0.000000    0.000000    0.137077
     1        -0.475219422539316    4.775e-02    0.007383    0.014017    0.014017    0.137227
     2        -0.485425295035395    1.657e-02    0.007646    0.015139    0.015139    0.143169
     3        -0.487129887714880    6.067e-03    0.008718    0.018031    0.018031    0.145003
     4        -0.487038239771764    1.554e-03    0.008893    0.018555    0.018555    0.145278
     5        -0.487078856971833    6.756e-04    0.008997    0.018932    0.018932    0.145405
     6        -0.487089087670359    2.197e-04    0.009032    0.019055    0.019055    0.145412
     7        -0.487083731869931    9.317e-05    0.009043    0.019092    0.019092    0.145403
     8        -0.487082485236630    3.647e-05    0.009046    0.019104    0.019104    0.145402
     9        -0.487083424037749    1.425e-05    0.009047    0.019107    0.019107    0.145402
    10        -0.487082563618365    5.969e-06    0.009047    0.019106    0.019106    0.145402
    11        -0.487082750766530    2.119e-06    0.009047    0.019106    0.019106    0.145402
    12        -0.487082719462053    8.089e-07    0.009047    0.019106    0.019106    0.145402
    13        -0.487082717894962    2.827e-07    0.009047    0.019106    0.019106    0.145402
    14        -0.487082723037391    1.082e-07    0.009047    0.019106    0.019106    0.145402
    15        -0.487082721722703    4.504e-08    0.009047    0.019106    0.019106    0.145402

    Iterations converged.


    Largest TIA Amplitudes:
              3   2        -0.0076985859
              6 169         0.0068730791
              3  11         0.0059074774
              6 178        -0.0055399999
              6 170         0.0054232787
              3   8        -0.0053489016
              3  17         0.0042917472
              6 181         0.0041231260
              2  69        -0.0040633421
              6 176        -0.0040169220

    Largest TIjAb Amplitudes:
      2   2 181 181        -0.0121793336
      2   2 186 186        -0.0107875012
      2   2 185 185        -0.0103993146
      6   6 183 183        -0.0099758801
      2   2 181 186         0.0094993644
      2   2 186 181         0.0094993644
      3   3 186 186        -0.0092307051
      2   2 185 186         0.0089945703
      2   2 186 185         0.0089945703
      2   2 177 185        -0.0086360048

    SCF energy       (wfn)                    = -111.234735514725116
    Reference energy (file100)                = -111.234735514734496

    Opposite-spin MP2 correlation energy      =   -0.367372965201050
    Same-spin MP2 correlation energy          =   -0.107715960147653
    Singles MP2 correlation energy            =   -0.000000000000000
    MP2 correlation energy                    =   -0.475088925348702
      * MP2 total energy                      = -111.709824440083196

    Opposite-spin CCSD correlation energy     =   -0.389982051729965
    Same-spin CCSD correlation energy         =   -0.097100669992725
    Singles CCSD correlation energy           =    0.000000000000000
    CCSD correlation energy                   =   -0.487082721722703
      * CCSD total energy                     = -111.721818236457196

            **************************
            *                        *
            *        CCTRIPLES       *
            *                        *
            **************************


    Wave function   =    CCSD_T
    Reference wfn   =      RHF

    Nuclear Rep. energy (wfn)                =   41.584330038609806
    SCF energy          (wfn)                = -111.234735514725116
    Reference energy    (file100)            = -111.234735514734496
    CCSD energy         (file100)            =   -0.487082721722703
    Total CCSD energy   (file100)            = -111.721818236457196

    Number of ijk index combinations:               84
    Memory available in words        :     31250000000
    ~Words needed per explicit thread:        18966528
    Number of threads for explicit ijk threading:   48

    (T) energy                                =   -0.018895595860601
      * CCSD(T) total energy                  = -111.740713832317795


    Psi4 stopped on: Wednesday, 20 January 2021 08:43PM
    Psi4 wall time for execution: 0:41:32.52

*** Psi4 exiting successfully. Buy a developer a beer!
