
    -----------------------------------------------------------------------
          Psi4: An Open-Source Ab Initio Electronic Structure Package
                               Psi4 1.4a3.dev88 

                         Git: Rev {master} 262e345 


    D. G. A. Smith, L. A. Burns, A. C. Simmonett, R. M. Parrish,
    M. C. Schieber, R. Galvelis, P. Kraus, H. Kruse, R. Di Remigio,
    A. Alenaizan, A. M. James, S. Lehtola, J. P. Misiewicz, M. Scheurer,
    R. A. Shaw, J. B. Schriber, Y. Xie, Z. L. Glick, D. A. Sirianni,
    J. S. O'Brien, J. M. Waldrop, A. Kumar, E. G. Hohenstein,
    B. P. Pritchard, B. R. Brooks, H. F. Schaefer III, A. Yu. Sokolov,
    K. Patkowski, A. E. DePrince III, U. Bozkaya, R. A. King,
    F. A. Evangelista, J. M. Turney, T. D. Crawford, C. D. Sherrill,
    J. Chem. Phys. 152(18) 184108 (2020). https://doi.org/10.1063/5.0006002

                            Additional Code Authors
    E. T. Seidl, C. L. Janssen, E. F. Valeev, M. L. Leininger,
    J. F. Gonthier, R. M. Richard, H. R. McAlexander, M. Saitow, X. Wang,
    P. Verma, and M. H. Lechner

             Previous Authors, Complete List of Code Contributors,
                       and Citations for Specific Modules
    https://github.com/psi4/psi4/blob/master/codemeta.json
    https://github.com/psi4/psi4/graphs/contributors
    http://psicode.org/psi4manual/master/introduction.html#citing-psifour

    -----------------------------------------------------------------------


    Psi4 started on: Friday, 29 January 2021 04:00PM

    Process ID: 269448
    Host:       l48
    PSIDATADIR: /home/fs71337/gallo4/psi4/eri-6/psi4/build/stage/share/psi4
    Memory:     500.0 MiB
    Threads:    1
    
  ==> Input File <==

--------------------------------------------------------------------------
# Any line starting with the # character is a comment line
memory 250000 mb
molecule molecule{
0 1
N          0.7147735098        0.0593513937        0.0430540470
N         -0.7147735098       -0.0593513937        0.0430540470
H          1.0693082921        0.3150198703       -0.8714981971
H          1.0889697597       -0.8506903245        0.2732035372
H         -1.0889697597        0.8506903245        0.2732035372
H         -1.0693082921       -0.3150198703       -0.8714981971
}

set {
  reference rhf
  basis aug-cc-pV(d+d)Z
  scf_type OUT_OF_CORE
  freeze_core true
}

energy('ccsd(t)')
--------------------------------------------------------------------------

  Memory set to 232.831 GiB by Python driver.

Scratch directory: /tmp/

*** tstart() called on l48
*** at Fri Jan 29 16:00:28 2021

   => Loading Basis Set <=

    Name: AUG-CC-PV(D+D)Z
    Role: ORBITAL
    Keyword: BASIS
    atoms 1-2 entry N          line   246 file /home/fs71337/gallo4/psi4/eri-6/psi4/build/stage/share/psi4/basis/aug-cc-pv_dpd_z.gbs 
    atoms 3-6 entry H          line    68 file /home/fs71337/gallo4/psi4/eri-6/psi4/build/stage/share/psi4/basis/aug-cc-pv_dpd_z.gbs 


         ---------------------------------------------------------
                                   SCF
               by Justin Turney, Rob Parrish, Andy Simmonett
                          and Daniel G. A. Smith
                              RHF Reference
                        1 Threads, 238418 MiB Core
         ---------------------------------------------------------

  ==> Geometry <==

    Molecular point group: c2
    Full point group: C2

    Geometry (in Angstrom), charge = 0, multiplicity = 1:

       Center              X                  Y                   Z               Mass       
    ------------   -----------------  -----------------  -----------------  -----------------
         N            0.714773509800     0.059351393700     0.043059498656    14.003074004430
         N           -0.714773509800    -0.059351393700     0.043059498656    14.003074004430
         H            1.069308292100     0.315019870300    -0.871492745444     1.007825032230
         H            1.088969759700    -0.850690324500     0.273208988856     1.007825032230
         H           -1.088969759700     0.850690324500     0.273208988856     1.007825032230
         H           -1.069308292100    -0.315019870300    -0.871492745444     1.007825032230

  Running in c2 symmetry.

  Rotational constants: A =      4.82940  B =      0.81294  C =      0.81200 [cm^-1]
  Rotational constants: A = 144781.91453  B =  24371.30119  C =  24343.02261 [MHz]
  Nuclear repulsion =   41.584330038609806

  Charge       = 0
  Multiplicity = 1
  Electrons    = 18
  Nalpha       = 9
  Nbeta        = 9

  ==> Algorithm <==

  SCF Algorithm Type is OUT_OF_CORE.
  DIIS enabled.
  MOM disabled.
  Fractional occupation disabled.
  Guess Type is SAD.
  Energy threshold   = 1.00e-08
  Density threshold  = 1.00e-08
  Integral threshold = 1.00e-12

  ==> Primary Basis <==

  Basis Set: AUG-CC-PV(D+D)Z
    Blend: AUG-CC-PV(D+D)Z
    Number of shells: 38
    Number of basis function: 82
    Number of Cartesian functions: 86
    Spherical Harmonics?: true
    Max angular momentum: 2

  ==> Integral Setup <==

  ==> DiskJK: Disk-Based J/K Matrices <==

    J tasked:                  Yes
    K tasked:                  Yes
    wK tasked:                  No
    Memory [MiB]:           178813
    Schwarz Cutoff:          1E-12

  Minimum eigenvalue in the overlap matrix is 1.0043219002E-03.
  Reciprocal condition number of the overlap matrix is 1.3475522461E-04.
    Using symmetric orthogonalization.

  ==> Pre-Iterations <==

  SCF Guess: Superposition of Atomic Densities via on-the-fly atomic UHF (no occupation information).

   -------------------------
    Irrep   Nso     Nmo    
   -------------------------
     A         41      41 
     B         41      41 
   -------------------------
    Total      82      82
   -------------------------

  ==> Iterations <==

                        Total Energy        Delta E     RMS |[F,P]|

   @RHF iter SAD:  -110.56144703264658   -1.10561e+02   0.00000e+00 
   @RHF iter   1:  -111.10051250920415   -5.39065e-01   7.53678e-03 DIIS
   @RHF iter   2:  -111.17803931592796   -7.75268e-02   3.90328e-03 DIIS
   @RHF iter   3:  -111.20012753674467   -2.20882e-02   5.58710e-04 DIIS
   @RHF iter   4:  -111.20106549273417   -9.37956e-04   1.07046e-04 DIIS
   @RHF iter   5:  -111.20110490034961   -3.94076e-05   2.24621e-05 DIIS
   @RHF iter   6:  -111.20110749869656   -2.59835e-06   4.66854e-06 DIIS
   @RHF iter   7:  -111.20110761921715   -1.20521e-07   1.13820e-06 DIIS
   @RHF iter   8:  -111.20110762735027   -8.13311e-09   2.82109e-07 DIIS
   @RHF iter   9:  -111.20110762782193   -4.71658e-10   5.97234e-08 DIIS
   @RHF iter  10:  -111.20110762784307   -2.11458e-11   1.55749e-08 DIIS
   @RHF iter  11:  -111.20110762784442   -1.35003e-12   2.66308e-09 DIIS
  Energy and wave function converged.


  ==> Post-Iterations <==

    Orbital Energies [Eh]
    ---------------------

    Doubly Occupied:                                                      

       1A    -15.578425     1B    -15.577977     2A     -1.258400  
       2B     -1.013252     3A     -0.678201     3B     -0.668683  
       4A     -0.607171     4B     -0.416947     5A     -0.409929  

    Virtual:                                                              

       6A      0.035972     5B      0.051318     6B      0.059376  
       7A      0.063151     7B      0.158882     8A      0.162796  
       9A      0.171278     8B      0.180628    10A      0.199929  
       9B      0.217808    11A      0.219293    12A      0.277160  
      10B      0.281508    11B      0.300942    12B      0.351460  
      13A      0.385632    14A      0.405851    13B      0.407213  
      14B      0.443142    15B      0.473582    15A      0.476898  
      16A      0.492329    17A      0.537659    16B      0.545459  
      17B      0.612119    18A      0.626105    18B      0.657262  
      19B      0.660947    19A      0.664239    20A      0.690377  
      20B      0.758352    21B      0.814339    21A      0.851798  
      22B      0.915132    22A      0.941372    23B      0.960334  
      23A      0.963860    24A      1.081424    24B      1.118240  
      25A      1.214615    26A      1.260038    25B      1.272351  
      26B      1.434806    27A      1.463099    27B      1.468963  
      28A      1.798913    28B      1.816889    29A      1.834272  
      29B      1.980523    30B      2.050219    30A      2.079053  
      31B      2.155163    31A      2.194773    32B      2.198409  
      32A      2.244868    33A      2.321349    33B      2.344099  
      34A      2.407068    35A      2.439520    36A      2.460399  
      34B      2.505796    35B      2.536875    37A      2.625390  
      36B      2.686405    38A      2.795176    37B      2.831546  
      38B      3.091686    39A      3.102378    40A      3.274400  
      39B      3.406947    41A      3.437850    40B      3.634906  
      41B      3.747210  

    Final Occupation by Irrep:
              A     B 
    DOCC [     5,    4 ]

  @RHF Final Energy:  -111.20110762784442

   => Energetics <=

    Nuclear Repulsion Energy =             41.5843300386098065
    One-Electron Energy =                -233.1529031147247792
    Two-Electron Energy =                  80.3674654482705506
    Total Energy =                       -111.2011076278444222

Computation Completed


Properties will be evaluated at   0.000000,   0.000000,   0.000000 [a0]

Properties computed using the SCF density matrix

  Nuclear Dipole Moment: [e a0]
     X:     0.0000      Y:     0.0000      Z:    -1.1220

  Electronic Dipole Moment: [e a0]
     X:     0.0000      Y:     0.0000      Z:     0.3127

  Dipole Moment: [e a0]
     X:     0.0000      Y:     0.0000      Z:    -0.8093     Total:     0.8093

  Dipole Moment: [D]
     X:     0.0000      Y:     0.0000      Z:    -2.0570     Total:     2.0570


*** tstop() called on l48 at Fri Jan 29 16:00:30 2021
Module time:
	user time   =       1.71 seconds =       0.03 minutes
	system time =       0.25 seconds =       0.00 minutes
	total time  =          2 seconds =       0.03 minutes
Total time:
	user time   =       1.71 seconds =       0.03 minutes
	system time =       0.25 seconds =       0.00 minutes
	total time  =          2 seconds =       0.03 minutes

*** tstart() called on l48
*** at Fri Jan 29 16:00:30 2021


	Wfn Parameters:
	--------------------
	Wavefunction         = CCSD_T
	Number of irreps     = 2
	Number of MOs        = 82
	Number of active MOs = 80
	AO-Basis             = NONE
	Semicanonical        = false
	Reference            = RHF
	Print Level          = 1

	IRREP	# MOs	# FZDC	# DOCC	# SOCC	# VIRT	# FZVR
	-----	-----	------	------	------	------	------
	 A	   41	    1	    4	    0	    36	    0
	 B	   41	    1	    3	    0	    37	    0
	Transforming integrals...
	IWL integrals will be deleted.
	(OO|OO)...
	Presorting SO-basis two-electron integrals.
	Sorting File: SO Ints (nn|nn) nbuckets = 1
	Constructing frozen core operators
	Starting first half-transformation.
	Sorting half-transformed integrals.
	First half integral transformation complete.
	Starting second half-transformation.
	Two-electron integral transformation complete.
	(OO|OV)...
	Starting second half-transformation.
	Two-electron integral transformation complete.
	(OO|VV)...
	Starting second half-transformation.
	Two-electron integral transformation complete.
	(OV|OO)...
	Starting first half-transformation.
	Sorting half-transformed integrals.
	First half integral transformation complete.
	Starting second half-transformation.
	Two-electron integral transformation complete.
	(OV|OV)...
	Starting second half-transformation.
	Two-electron integral transformation complete.
	(OV|VV)...
	Starting second half-transformation.
	Two-electron integral transformation complete.
	(VV|OO)...
	Starting first half-transformation.
	Sorting half-transformed integrals.
	First half integral transformation complete.
	Starting second half-transformation.
	Two-electron integral transformation complete.
	(VV|OV)...
	Starting second half-transformation.
	Two-electron integral transformation complete.
	(VV|VV)...
	Starting second half-transformation.
	Two-electron integral transformation complete.
	Frozen core energy     =   -104.60620868892404

	Size of irrep 0 of <ab|cd> integrals:      7.102 (MW) /     56.818 (MB)
	Size of irrep 1 of <ab|cd> integrals:      7.097 (MW) /     56.775 (MB)
	Total:                                    14.199 (MW) /    113.593 (MB)

	Size of irrep 0 of <ia|bc> integrals:      0.680 (MW) /      5.437 (MB)
	Size of irrep 1 of <ia|bc> integrals:      0.682 (MW) /      5.456 (MB)
	Total:                                     1.362 (MW) /     10.892 (MB)

	Size of irrep 0 of tijab amplitudes:       0.067 (MW) /      0.533 (MB)
	Size of irrep 1 of tijab amplitudes:       0.064 (MW) /      0.511 (MB)
	Total:                                     0.131 (MW) /      1.044 (MB)

	Nuclear Rep. energy          =     41.58433003860981
	SCF energy                   =   -111.20110762784442
	One-electron energy          =    -86.25329120413400
	Two-electron energy          =     38.07406222660376
	Reference energy             =   -111.20110762784448

*** tstop() called on l48 at Fri Jan 29 16:00:32 2021
Module time:
	user time   =       1.11 seconds =       0.02 minutes
	system time =       0.95 seconds =       0.02 minutes
	total time  =          2 seconds =       0.03 minutes
Total time:
	user time   =       2.82 seconds =       0.05 minutes
	system time =       1.20 seconds =       0.02 minutes
	total time  =          4 seconds =       0.07 minutes
            **************************
            *                        *
            *        CCENERGY        *
            *                        *
            **************************

    Nuclear Rep. energy (wfn)     =   41.584330038609806
    SCF energy          (wfn)     = -111.201107627844422
    Reference energy    (file100) = -111.201107627844479

    Input parameters:
    -----------------
    Wave function   =     CCSD_T
    Reference wfn   =     RHF
    Brueckner       =     No
    Memory (Mbytes) =     250000.0
    Maxiter         =     50
    R_Convergence   =     1.0e-07
    E_Convergence   =     1.0e-06
    Restart         =     Yes
    DIIS            =     Yes
    AO Basis        =     NONE
    ABCD            =     NEW
    Cache Level     =     2
    Cache Type      =     LOW
    Print Level     =     1
    Num. of threads =     1
    # Amps to Print =     10
    Print MP2 Amps? =     No
    Analyze T2 Amps =     No
    Print Pair Ener =     No
    Local CC        =     No
    SCS-MP2         =     False
    SCSN-MP2        =     False
    SCS-CCSD        =     False

MP2 correlation energy -0.3720773591904908
                Solving CC Amplitude Equations
                ------------------------------
  Iter             Energy              RMS        T1Diag      D1Diag    New D1Diag    D2Diag
  ----     ---------------------    ---------   ----------  ----------  ----------   --------
     0        -0.372077359190491    0.000e+00    0.000000    0.000000    0.000000    0.131704
     1        -0.384360512763994    5.082e-02    0.008220    0.017973    0.017973    0.135756
     2        -0.393533705881416    1.720e-02    0.009137    0.020219    0.020219    0.142017
     3        -0.395286430082929    6.481e-03    0.010434    0.023767    0.023767    0.143934
     4        -0.395232389400827    1.681e-03    0.010657    0.024481    0.024481    0.144270
     5        -0.395264550115992    6.472e-04    0.010762    0.024860    0.024860    0.144393
     6        -0.395270568208618    2.210e-04    0.010798    0.024993    0.024993    0.144399
     7        -0.395265592236087    8.748e-05    0.010806    0.025025    0.025025    0.144389
     8        -0.395264706327814    3.519e-05    0.010810    0.025038    0.025038    0.144388
     9        -0.395265235747219    1.235e-05    0.010810    0.025040    0.025040    0.144388
    10        -0.395264736002757    5.072e-06    0.010810    0.025039    0.025039    0.144388
    11        -0.395264884395056    1.988e-06    0.010810    0.025039    0.025039    0.144388
    12        -0.395264883662710    6.581e-07    0.010810    0.025039    0.025039    0.144388
    13        -0.395264898532364    2.507e-07    0.010810    0.025038    0.025038    0.144388
    14        -0.395264901178022    8.906e-08    0.010810    0.025038    0.025038    0.144388

    Iterations converged.


    Largest TIA Amplitudes:
              3   2         0.0139102239
              6  38         0.0139012504
              6  46        -0.0117887858
              3   9        -0.0115337445
              6  39        -0.0075989420
              3   5        -0.0069835487
              2  28         0.0059744749
              6  43        -0.0056567821
              5  66        -0.0055461716
              3   4        -0.0052134141

    Largest TIjAb Amplitudes:
      2   2  44  44        -0.0278654074
      1   1  14  14        -0.0130432004
      2   2  44  48        -0.0129997261
      2   2  48  44        -0.0129997261
      2   2  44  50        -0.0129782796
      2   2  50  44        -0.0129782796
      2   2  51  51        -0.0120142563
      3   3  44  44        -0.0119703182
      1   1   6   6        -0.0114866045
      6   6  14  14        -0.0111423040

    SCF energy       (wfn)                    = -111.201107627844422
    Reference energy (file100)                = -111.201107627844479

    Opposite-spin MP2 correlation energy      =   -0.281564368656424
    Same-spin MP2 correlation energy          =   -0.090512990534067
    Singles MP2 correlation energy            =   -0.000000000000000
    MP2 correlation energy                    =   -0.372077359190491
      * MP2 total energy                      = -111.573184987034963

    Opposite-spin CCSD correlation energy     =   -0.313677802877867
    Same-spin CCSD correlation energy         =   -0.081587098300155
    Singles CCSD correlation energy           =    0.000000000000000
    CCSD correlation energy                   =   -0.395264901178022
      * CCSD total energy                     = -111.596372529022503

            **************************
            *                        *
            *        CCTRIPLES       *
            *                        *
            **************************


    Wave function   =    CCSD_T
    Reference wfn   =      RHF

    Nuclear Rep. energy (wfn)                =   41.584330038609806
    SCF energy          (wfn)                = -111.201107627844422
    Reference energy    (file100)            = -111.201107627844479
    CCSD energy         (file100)            =   -0.395264901178022
    Total CCSD energy   (file100)            = -111.596372529022503

    Number of ijk index combinations:               84
    Memory available in words        :     31250000000
    ~Words needed per explicit thread:          202612
    Number of threads for explicit ijk threading:    1

    (T) energy                                =   -0.011740150916878
      * CCSD(T) total energy                  = -111.608112679939381


    Psi4 stopped on: Friday, 29 January 2021 04:00PM
    Psi4 wall time for execution: 0:00:09.48

*** Psi4 exiting successfully. Buy a developer a beer!
