
    -----------------------------------------------------------------------
          Psi4: An Open-Source Ab Initio Electronic Structure Package
                               Psi4 1.4a3.dev88 

                         Git: Rev {master} 262e345 


    D. G. A. Smith, L. A. Burns, A. C. Simmonett, R. M. Parrish,
    M. C. Schieber, R. Galvelis, P. Kraus, H. Kruse, R. Di Remigio,
    A. Alenaizan, A. M. James, S. Lehtola, J. P. Misiewicz, M. Scheurer,
    R. A. Shaw, J. B. Schriber, Y. Xie, Z. L. Glick, D. A. Sirianni,
    J. S. O'Brien, J. M. Waldrop, A. Kumar, E. G. Hohenstein,
    B. P. Pritchard, B. R. Brooks, H. F. Schaefer III, A. Yu. Sokolov,
    K. Patkowski, A. E. DePrince III, U. Bozkaya, R. A. King,
    F. A. Evangelista, J. M. Turney, T. D. Crawford, C. D. Sherrill,
    J. Chem. Phys. 152(18) 184108 (2020). https://doi.org/10.1063/5.0006002

                            Additional Code Authors
    E. T. Seidl, C. L. Janssen, E. F. Valeev, M. L. Leininger,
    J. F. Gonthier, R. M. Richard, H. R. McAlexander, M. Saitow, X. Wang,
    P. Verma, and M. H. Lechner

             Previous Authors, Complete List of Code Contributors,
                       and Citations for Specific Modules
    https://github.com/psi4/psi4/blob/master/codemeta.json
    https://github.com/psi4/psi4/graphs/contributors
    http://psicode.org/psi4manual/master/introduction.html#citing-psifour

    -----------------------------------------------------------------------


    Psi4 started on: Saturday, 30 January 2021 11:03PM

    Process ID: 386491
    Host:       n411-024.vsc4.prov
    PSIDATADIR: /home/fs71337/gallo4/psi4/eri-6/psi4/build/stage/share/psi4
    Memory:     500.0 MiB
    Threads:    1
    
  ==> Input File <==

--------------------------------------------------------------------------
# Any line starting with the # character is a comment line
memory 650000 mb
molecule molecule{
0 1
N          0.7147735098        0.0593513937        0.0430540470
N         -0.7147735098       -0.0593513937        0.0430540470
H          1.0693082921        0.3150198703       -0.8714981971
H          1.0889697597       -0.8506903245        0.2732035372
H         -1.0889697597        0.8506903245        0.2732035372
H         -1.0693082921       -0.3150198703       -0.8714981971
}

set {
  reference rhf
  basis aug-cc-pV(6+d)Z
  scf_type OUT_OF_CORE
  freeze_core true
}

energy('ccsd(t)')
--------------------------------------------------------------------------

  Memory set to 605.360 GiB by Python driver.

Scratch directory: /binfl/lv71337/airmler/temp/

*** tstart() called on n411-024.vsc4.prov
*** at Sat Jan 30 23:03:49 2021

   => Loading Basis Set <=

    Name: AUG-CC-PV(6+D)Z
    Role: ORBITAL
    Keyword: BASIS
    atoms 1-2 entry N          line   363 file /home/fs71337/gallo4/psi4/eri-6/psi4/build/stage/share/psi4/basis/aug-cc-pv_6pd_z.gbs 
    atoms 3-6 entry H          line    51 file /home/fs71337/gallo4/psi4/eri-6/psi4/build/stage/share/psi4/basis/aug-cc-pv_6pd_z.gbs 


         ---------------------------------------------------------
                                   SCF
               by Justin Turney, Rob Parrish, Andy Simmonett
                          and Daniel G. A. Smith
                              RHF Reference
                        1 Threads, 619888 MiB Core
         ---------------------------------------------------------

  ==> Geometry <==

    Molecular point group: c2
    Full point group: C2

    Geometry (in Angstrom), charge = 0, multiplicity = 1:

       Center              X                  Y                   Z               Mass       
    ------------   -----------------  -----------------  -----------------  -----------------
         N            0.714773509800     0.059351393700     0.043059498656    14.003074004430
         N           -0.714773509800    -0.059351393700     0.043059498656    14.003074004430
         H            1.069308292100     0.315019870300    -0.871492745444     1.007825032230
         H            1.088969759700    -0.850690324500     0.273208988856     1.007825032230
         H           -1.088969759700     0.850690324500     0.273208988856     1.007825032230
         H           -1.069308292100    -0.315019870300    -0.871492745444     1.007825032230

  Running in c2 symmetry.

  Rotational constants: A =      4.82940  B =      0.81294  C =      0.81200 [cm^-1]
  Rotational constants: A = 144781.91453  B =  24371.30119  C =  24343.02261 [MHz]
  Nuclear repulsion =   41.584330038609806

  Charge       = 0
  Multiplicity = 1
  Electrons    = 18
  Nalpha       = 9
  Nbeta        = 9

  ==> Algorithm <==

  SCF Algorithm Type is OUT_OF_CORE.
  DIIS enabled.
  MOM disabled.
  Fractional occupation disabled.
  Guess Type is SAD.
  Energy threshold   = 1.00e-08
  Density threshold  = 1.00e-08
  Integral threshold = 1.00e-12

  ==> Primary Basis <==

  Basis Set: AUG-CC-PV(6+D)Z
    Blend: AUG-CC-PV(6+D)Z
    Number of shells: 178
    Number of basis function: 886
    Number of Cartesian functions: 1316
    Spherical Harmonics?: true
    Max angular momentum: 6

  ==> Integral Setup <==

  ==> DiskJK: Disk-Based J/K Matrices <==

    J tasked:                  Yes
    K tasked:                  Yes
    wK tasked:                  No
    Memory [MiB]:           464916
    Schwarz Cutoff:          1E-12

  Minimum eigenvalue in the overlap matrix is 8.8065968758E-07.
  Reciprocal condition number of the overlap matrix is 6.2186942082E-08.
    Using symmetric orthogonalization.

  ==> Pre-Iterations <==

  SCF Guess: Superposition of Atomic Densities via on-the-fly atomic UHF (no occupation information).

   -------------------------
    Irrep   Nso     Nmo    
   -------------------------
     A        443     443 
     B        443     443 
   -------------------------
    Total     886     886
   -------------------------

  ==> Iterations <==

                        Total Energy        Delta E     RMS |[F,P]|

   @RHF iter SAD:  -110.58306946972979   -1.10583e+02   0.00000e+00 
   @RHF iter   1:  -111.13537029378629   -5.52301e-01   7.22064e-04 DIIS
   @RHF iter   2:  -111.21273487763438   -7.73646e-02   3.84096e-04 DIIS
   @RHF iter   3:  -111.23551222714568   -2.27773e-02   5.43389e-05 DIIS
   @RHF iter   4:  -111.23647779837231   -9.65571e-04   1.18364e-05 DIIS
   @RHF iter   5:  -111.23653101266601   -5.32143e-05   2.39535e-06 DIIS
   @RHF iter   6:  -111.23653424853441   -3.23587e-06   5.36059e-07 DIIS
   @RHF iter   7:  -111.23653442080752   -1.72273e-07   1.30532e-07 DIIS
   @RHF iter   8:  -111.23653443181610   -1.10086e-08   3.61461e-08 DIIS
   @RHF iter   9:  -111.23653443252971   -7.13612e-10   7.04543e-09 DIIS
  Energy and wave function converged.


  ==> Post-Iterations <==

    Orbital Energies [Eh]
    ---------------------

    Doubly Occupied:                                                      

       1A    -15.568490     1B    -15.568030     2A     -1.255339  
       2B     -1.011102     3A     -0.678063     3B     -0.668427  
       4A     -0.606656     4B     -0.417784     5A     -0.410783  

    Virtual:                                                              

       6A      0.020227     5B      0.029045     6B      0.032582  
       7A      0.035956     7B      0.073795     8A      0.078978  
       9A      0.081230     8B      0.090849    10A      0.097040  
       9B      0.105477    11A      0.106497    10B      0.130248  
      12A      0.132066    11B      0.167871    12B      0.171415  
      13A      0.183104    14A      0.186565    13B      0.189782  
      14B      0.204555    15A      0.208869    16A      0.215626  
      15B      0.219035    16B      0.224057    17A      0.225081  
      17B      0.256866    18A      0.262458    18B      0.266423  
      19A      0.272523    20A      0.300125    19B      0.314129  
      21A      0.321514    22A      0.324995    20B      0.325829  
      23A      0.349121    21B      0.356262    22B      0.365690  
      24A      0.381722    23B      0.385005    25A      0.409382  
      24B      0.409896    26A      0.416486    25B      0.419511  
      26B      0.436176    27B      0.457291    27A      0.457501  
      28A      0.469183    29A      0.479561    28B      0.483049  
      30A      0.500533    29B      0.500944    31A      0.507205  
      30B      0.511768    31B      0.525313    32A      0.535016  
      32B      0.553156    33A      0.562751    33B      0.568936  
      34A      0.570127    34B      0.578858    35A      0.582768  
      35B      0.584396    36A      0.585705    36B      0.596441  
      37A      0.606661    37B      0.607517    38B      0.620248  
      38A      0.656425    39A      0.668444    39B      0.675823  
      40A      0.715517    40B      0.720913    41A      0.728166  
      41B      0.745927    42A      0.761194    42B      0.779938  
      43A      0.781491    43B      0.794551    44B      0.797562  
      44A      0.798388    45A      0.823164    46A      0.828117  
      47A      0.859684    45B      0.862802    46B      0.867736  
      48A      0.901384    47B      0.904699    49A      0.913377  
      48B      0.918853    50A      0.931246    49B      0.957571  
      50B      0.974898    51A      0.978397    51B      0.989626  
      52B      1.012076    52A      1.016917    53A      1.028445  
      53B      1.060711    54A      1.064903    55A      1.083841  
      54B      1.103040    55B      1.106451    56A      1.115718  
      56B      1.117632    57A      1.131006    57B      1.140526  
      58A      1.153457    58B      1.161118    59A      1.165902  
      59B      1.171007    60A      1.172438    60B      1.195163  
      61A      1.214534    61B      1.242417    62A      1.247618  
      62B      1.247985    63A      1.258605    63B      1.292565  
      64A      1.303316    64B      1.305042    65B      1.327602  
      65A      1.334611    66A      1.351016    67A      1.362639  
      66B      1.368244    67B      1.372989    68A      1.392489  
      68B      1.401196    69B      1.414274    69A      1.415198  
      70A      1.432044    70B      1.448556    71A      1.452158  
      72A      1.468720    71B      1.474819    72B      1.478618  
      73A      1.487817    73B      1.508619    74A      1.518408  
      74B      1.518825    75B      1.539308    75A      1.553487  
      76A      1.563119    76B      1.592262    77A      1.602134  
      77B      1.684925    78B      1.749124    78A      1.806988  
      79B      1.808528    80B      1.825429    79A      1.827860  
      80A      1.863001    81B      1.876022    81A      1.886727  
      82A      1.908851    82B      1.915514    83A      1.931252  
      83B      1.955738    84A      1.961641    84B      1.970261  
      85A      1.973721    85B      1.982880    86A      1.995427  
      87A      2.018561    86B      2.027907    88A      2.060861  
      87B      2.061294    88B      2.081403    89A      2.096104  
      90A      2.101021    89B      2.103277    91A      2.148330  
      90B      2.163919    91B      2.171951    92A      2.176864  
      93A      2.208285    92B      2.209646    94A      2.251646  
      93B      2.265418    95A      2.270670    96A      2.297451  
      94B      2.299330    95B      2.313858    97A      2.349941  
      96B      2.352356    98A      2.363608    97B      2.372730  
      98B      2.386357    99A      2.391968   100A      2.423061  
      99B      2.428463   101A      2.449237   100B      2.465740  
     102A      2.475065   101B      2.484618   102B      2.494482  
     103B      2.503556   103A      2.515503   104B      2.530290  
     104A      2.537486   105B      2.554511   105A      2.556438  
     106A      2.564741   106B      2.587013   107A      2.588208  
     108A      2.608677   107B      2.613927   108B      2.615446  
     109A      2.629821   110A      2.645294   109B      2.648159  
     110B      2.665509   111A      2.669805   112A      2.676299  
     111B      2.697391   112B      2.712335   113A      2.717412  
     114A      2.756259   113B      2.773153   114B      2.777861  
     115A      2.808165   115B      2.810797   116B      2.818399  
     116A      2.828439   117A      2.842789   117B      2.851085  
     118A      2.881940   118B      2.898668   119B      2.928719  
     119A      2.946516   120B      2.967501   120A      2.977937  
     121B      2.978909   121A      3.018036   122B      3.020809  
     123B      3.031772   122A      3.035619   123A      3.073310  
     124B      3.092496   125B      3.125822   124A      3.140143  
     125A      3.143803   126A      3.170548   126B      3.177141  
     127B      3.202640   127A      3.216961   128A      3.242212  
     129A      3.296007   128B      3.301935   130A      3.309237  
     129B      3.330027   131A      3.338374   130B      3.359346  
     131B      3.376829   132A      3.415065   132B      3.421098  
     133A      3.423903   134A      3.486418   133B      3.493201  
     134B      3.541559   135A      3.686036   136A      3.728700  
     135B      3.746348   137A      3.778301   138A      3.842854  
     136B      3.847581   137B      3.925260   139A      3.950359  
     138B      3.970231   139B      4.006691   140A      4.026681  
     141A      4.048416   140B      4.092288   142A      4.116477  
     141B      4.131328   143A      4.165037   142B      4.191601  
     144A      4.194922   143B      4.204464   144B      4.216094  
     145A      4.225624   145B      4.252693   146A      4.272564  
     146B      4.276787   147B      4.314430   147A      4.322136  
     148B      4.347326   149B      4.356758   148A      4.359906  
     150B      4.389417   149A      4.393175   150A      4.400479  
     151A      4.428085   152A      4.456344   151B      4.460731  
     153A      4.467296   152B      4.486344   153B      4.516294  
     154A      4.535950   154B      4.540749   155B      4.565924  
     155A      4.585787   156A      4.596711   157A      4.620540  
     156B      4.626864   157B      4.647188   158A      4.647422  
     159A      4.668585   160A      4.732529   158B      4.744115  
     159B      4.760626   161A      4.779691   160B      4.783137  
     161B      4.803650   162B      4.813612   162A      4.819869  
     163A      4.848493   164A      4.854602   163B      4.892793  
     165A      4.898207   164B      4.904213   166A      4.904219  
     167A      4.960526   165B      4.973716   166B      4.979070  
     168A      4.991957   169A      5.013636   167B      5.029204  
     168B      5.050041   170A      5.059647   171A      5.083718  
     169B      5.091871   170B      5.100809   172A      5.112817  
     171B      5.164206   173A      5.166115   172B      5.173276  
     173B      5.187462   174A      5.206473   174B      5.217489  
     175A      5.226486   175B      5.235997   176A      5.244513  
     176B      5.266051   177A      5.275526   178A      5.290393  
     177B      5.299795   178B      5.330392   179A      5.343254  
     179B      5.364325   180A      5.384110   180B      5.397388  
     181A      5.413020   181B      5.417841   182B      5.467617  
     182A      5.493667   183A      5.514500   183B      5.526596  
     184A      5.537422   184B      5.555458   185A      5.567899  
     185B      5.604193   186A      5.622101   187A      5.625262  
     186B      5.651416   188A      5.705227   187B      5.721505  
     188B      5.741015   189A      5.755199   190A      5.763938  
     189B      5.773653   190B      5.797929   191B      5.814558  
     191A      5.835203   192B      5.839731   192A      5.859056  
     193B      5.876427   194B      5.912607   195B      5.929839  
     193A      5.945149   194A      5.953693   195A      5.961361  
     196B      6.014009   196A      6.021808   197A      6.066404  
     197B      6.081876   198B      6.092436   199B      6.117255  
     198A      6.118891   199A      6.138192   200B      6.145515  
     200A      6.193465   201B      6.225452   201A      6.275712  
     202A      6.287686   202B      6.307315   203A      6.354351  
     203B      6.369574   204A      6.399703   204B      6.441938  
     205A      6.484708   205B      6.553100   206A      6.564974  
     207A      6.588172   206B      6.616171   208A      6.634643  
     207B      6.735875   209A      6.745997   208B      6.777639  
     210A      6.803597   209B      6.812039   211A      6.817249  
     210B      6.925056   211B      6.960356   212A      7.001935  
     212B      7.032935   213A      7.091996   214A      7.126088  
     213B      7.126854   214B      7.178304   215A      7.209660  
     216A      7.234181   215B      7.266698   217A      7.391551  
     216B      7.399907   217B      7.485151   218A      7.524434  
     218B      7.547369   219A      7.565088   219B      7.666586  
     220A      7.685363   220B      7.730438   221A      7.780859  
     222A      7.807533   221B      7.849822   223A      7.882369  
     222B      7.910005   223B      7.986147   224A      7.990645  
     225A      8.010344   224B      8.082012   226A      8.092261  
     225B      8.127139   227A      8.150876   226B      8.159779  
     227B      8.177149   228A      8.188657   229A      8.239082  
     228B      8.263843   229B      8.300770   230A      8.430535  
     230B      8.492558   231A      8.572964   231B      8.600811  
     232A      8.668076   232B      8.682722   233B      8.713411  
     233A      8.742012   234B      8.756161   234A      8.808871  
     235B      8.834798   235A      8.855765   236A      8.935310  
     236B      8.960577   237A      8.986637   237B      9.004550  
     238B      9.010405   238A      9.055158   239B      9.077606  
     239A      9.095680   240B      9.097570   241B      9.200683  
     240A      9.202834   242B      9.241896   241A      9.253701  
     242A      9.262224   243A      9.296330   243B      9.319053  
     244A      9.381835   244B      9.391703   245B      9.432213  
     245A      9.448353   246A      9.496615   246B      9.499941  
     247A      9.545255   247B      9.561159   248A      9.584690  
     249A      9.643038   248B      9.669757   250A      9.706140  
     249B      9.719773   250B      9.737772   251B      9.805935  
     251A      9.817717   252A      9.864031   252B      9.870230  
     253B      9.897765   253A      9.908121   254A      9.950283  
     254B      9.971990   255A      9.980336   256A      9.988307  
     255B     10.059223   256B     10.068978   257B     10.112229  
     257A     10.114236   258A     10.127897   259A     10.160285  
     258B     10.204527   259B     10.242878   260A     10.245178  
     261A     10.269791   262A     10.349273   260B     10.359583  
     263A     10.386544   261B     10.387684   264A     10.399324  
     262B     10.424327   263B     10.463864   264B     10.505298  
     265A     10.526842   265B     10.557699   266A     10.558333  
     267A     10.612089   266B     10.640458   267B     10.684483  
     268A     10.687454   269A     10.691548   268B     10.711321  
     269B     10.758889   270A     10.796062   271A     10.832353  
     270B     10.849527   272A     10.881243   271B     10.895487  
     273A     10.974838   272B     10.999503   274A     11.017485  
     273B     11.051107   275A     11.072224   274B     11.108237  
     276A     11.130952   275B     11.204567   276B     11.209931  
     277B     11.270423   277A     11.273432   278A     11.325670  
     278B     11.344274   279A     11.352005   280A     11.377476  
     279B     11.381478   280B     11.427698   281A     11.506694  
     281B     11.525755   282A     11.555892   282B     11.588603  
     283A     11.685704   284A     11.763694   283B     11.772358  
     284B     11.815279   285A     11.862845   285B     11.867640  
     286A     11.917145   286B     11.985144   287A     11.998958  
     287B     12.010930   288A     12.083348   288B     12.087312  
     289A     12.117328   290A     12.193277   289B     12.198230  
     291A     12.361484   290B     12.366346   292A     12.442318  
     291B     12.453548   292B     12.504747   293A     12.541000  
     294A     12.553847   293B     12.580268   295A     12.651507  
     294B     12.800363   296A     12.910387   295B     12.933374  
     296B     12.985410   297A     13.037387   297B     13.216143  
     298A     13.260340   298B     13.300429   299A     13.358621  
     299B     13.501612   300A     13.590925   300B     13.684684  
     301A     13.747696   301B     13.794814   302A     13.829184  
     303A     13.857421   302B     13.918855   303B     13.978203  
     304A     13.982417   304B     14.041030   305B     14.118951  
     305A     14.126225   306B     14.164467   306A     14.217899  
     307B     14.319931   307A     14.379502   308B     14.397673  
     308A     14.407120   309A     14.433349   309B     14.466693  
     310A     14.596276   310B     14.757428   311A     14.853898  
     311B     14.906884   312A     14.959647   312B     14.992947  
     313A     15.105607   313B     15.212452   314A     15.264157  
     314B     15.420695   315B     15.565448   315A     15.842782  
     316B     16.555465   316A     16.561563   317B     16.860455  
     317A     16.873317   318A     16.918772   318B     16.924568  
     319B     17.136191   319A     17.154274   320A     17.439919  
     321A     17.567333   320B     17.569335   321B     17.586593  
     322A     17.618626   322B     17.631713   323A     17.679883  
     323B     17.735887   324B     17.772496   325B     17.801812  
     324A     17.804213   325A     17.865998   326A     17.882494  
     326B     17.885795   327B     17.940949   327A     17.959472  
     328A     17.994906   328B     18.058162   329A     18.139685  
     330A     18.176652   329B     18.182727   330B     18.228756  
     331A     18.291701   332A     18.334328   331B     18.391897  
     332B     18.429535   333B     18.542533   333A     18.587299  
     334B     18.622593   334A     18.660410   335A     18.675774  
     335B     18.726033   336B     18.763175   336A     18.769799  
     337A     18.797252   338A     18.858986   337B     18.877859  
     339A     18.911386   338B     18.963942   340A     19.008970  
     339B     19.092924   341A     19.150690   340B     19.153261  
     342A     19.307577   341B     19.310103   342B     19.410042  
     343A     19.474695   343B     19.520076   344A     19.614224  
     344B     19.671737   345A     19.789491   346A     19.824696  
     345B     19.865357   346B     19.902632   347B     19.967004  
     347A     20.043718   348A     20.124904   348B     20.222698  
     349A     20.240562   349B     20.247828   350A     20.299258  
     350B     20.356095   351A     20.434996   351B     20.546919  
     352A     20.553522   352B     20.623508   353A     20.632726  
     353B     20.706013   354A     20.744652   354B     20.798064  
     355A     20.818010   355B     20.845857   356A     20.908739  
     356B     20.915421   357A     20.933753   357B     20.945998  
     358A     20.992417   358B     21.029273   359A     21.047712  
     360A     21.118727   359B     21.131340   360B     21.230274  
     361A     21.293489   362A     21.333492   363A     21.374237  
     361B     21.408508   362B     21.456744   363B     21.504286  
     364A     21.526247   365A     21.596553   364B     21.665925  
     366A     21.708717   365B     21.711719   367A     21.815466  
     366B     21.844418   367B     21.915390   368A     21.941081  
     368B     21.945957   369A     21.983133   369B     21.998181  
     370A     22.037279   370B     22.044377   371A     22.079396  
     372A     22.230854   371B     22.233563   373A     22.275509  
     372B     22.279310   373B     22.332732   374A     22.344259  
     374B     22.492368   375B     22.518167   375A     22.518538  
     376A     22.536692   376B     22.571360   377A     22.581331  
     377B     22.605248   378A     22.624675   378B     22.680336  
     379B     22.712861   379A     22.716797   380A     22.728469  
     380B     22.910467   381B     23.012446   382B     23.074704  
     381A     23.107887   383B     23.316824   382A     23.320312  
     383A     23.362186   384B     23.500789   384A     23.570181  
     385A     23.614045   385B     23.622814   386A     23.688998  
     386B     23.720332   387B     23.800831   387A     23.826067  
     388A     23.983166   388B     24.021155   389A     24.122438  
     389B     24.126504   390B     24.169722   390A     24.218996  
     391A     24.272441   391B     24.278791   392A     24.326673  
     393A     24.403304   392B     24.426267   393B     24.456085  
     394A     24.479077   394B     24.513691   395A     24.557795  
     395B     24.559911   396B     24.655384   396A     24.700307  
     397B     24.751620   397A     24.788566   398B     24.832645  
     398A     24.838374   399B     24.913889   399A     24.951738  
     400A     24.966645   400B     24.994347   401B     25.077387  
     401A     25.082165   402B     25.104911   402A     25.124544  
     403B     25.256551   403A     25.314521   404A     25.341343  
     404B     25.368584   405A     25.414334   406A     25.492084  
     405B     25.497996   407A     25.529723   406B     25.539768  
     407B     25.639797   408A     25.681227   408B     25.919272  
     409A     25.923886   410A     26.042797   409B     26.045176  
     410B     26.125259   411A     26.243852   411B     26.286992  
     412A     26.557470   412B     26.592158   413A     26.819641  
     413B     26.835261   414A     26.886263   415A     27.051193  
     414B     27.117836   415B     27.159742   416A     27.360878  
     416B     27.408659   417B     27.613638   417A     27.673465  
     418A     27.812854   418B     27.842205   419B     27.972467  
     419A     27.973564   420A     28.068060   420B     28.171948  
     421A     28.214411   421B     28.306493   422B     28.495658  
     422A     28.565056   423A     28.711206   423B     28.749474  
     424B     28.978917   424A     28.986063   425A     29.081414  
     425B     29.286422   426A     29.525954   426B     29.573460  
     427B     29.823620   427A     29.872808   428B     30.298089  
     428A     30.319265   429A     30.457525   429B     30.596431  
     430B     30.708125   430A     30.875539   431A     31.094892  
     431B     31.225873   432B     32.098339   432A     32.155674  
     433A     32.165135   433B     32.312768   434A     32.621689  
     434B     32.627310   435B     33.550050   435A     33.680223  
     436A     34.536544   436B     34.541262   437B     37.477322  
     437A     37.512963   438A     37.600870   438B     37.601176  
     439A     37.685818   439B     37.759798   440A     38.051154  
     440B     38.077273   441A     40.285340   441B     40.294539  
     442A     41.217200   442B     41.381572   443A     86.537068  
     443B     87.007066  

    Final Occupation by Irrep:
              A     B 
    DOCC [     5,    4 ]

  @RHF Final Energy:  -111.23653443252971

   => Energetics <=

    Nuclear Repulsion Energy =             41.5843300386098065
    One-Electron Energy =                -233.2723796844603044
    Two-Electron Energy =                  80.4515152133207891
    Total Energy =                       -111.2365344325297087

Computation Completed


Properties will be evaluated at   0.000000,   0.000000,   0.000000 [a0]

Properties computed using the SCF density matrix

  Nuclear Dipole Moment: [e a0]
     X:     0.0000      Y:     0.0000      Z:    -1.1220

  Electronic Dipole Moment: [e a0]
     X:     0.0000      Y:     0.0000      Z:     0.3168

  Dipole Moment: [e a0]
     X:     0.0000      Y:     0.0000      Z:    -0.8052     Total:     0.8052

  Dipole Moment: [D]
     X:     0.0000      Y:     0.0000      Z:    -2.0465     Total:     2.0465


*** tstop() called on n411-024.vsc4.prov at Sun Jan 31 17:40:15 2021
Module time:
	user time   =   23322.28 seconds =     388.70 minutes
	system time =   26852.58 seconds =     447.54 minutes
	total time  =      66986 seconds =    1116.43 minutes
Total time:
	user time   =   23322.28 seconds =     388.70 minutes
	system time =   26852.58 seconds =     447.54 minutes
	total time  =      66986 seconds =    1116.43 minutes

*** tstart() called on n411-024.vsc4.prov
*** at Sun Jan 31 17:40:15 2021


	Wfn Parameters:
	--------------------
	Wavefunction         = CCSD_T
	Number of irreps     = 2
	Number of MOs        = 886
	Number of active MOs = 884
	AO-Basis             = NONE
	Semicanonical        = false
	Reference            = RHF
	Print Level          = 1

	IRREP	# MOs	# FZDC	# DOCC	# SOCC	# VIRT	# FZVR
	-----	-----	------	------	------	------	------
	 A	   443	    1	    4	    0	    438	    0
	 B	   443	    1	    3	    0	    439	    0
	Transforming integrals...
	IWL integrals will be deleted.
	(OO|OO)...
	Presorting SO-basis two-electron integrals.
	Sorting File: SO Ints (nn|nn) nbuckets = 1
	Constructing frozen core operators
	Starting first half-transformation.
	Sorting half-transformed integrals.
	First half integral transformation complete.
	Starting second half-transformation.
	Two-electron integral transformation complete.
	(OO|OV)...
	Starting second half-transformation.
	Two-electron integral transformation complete.
	(OO|VV)...
	Starting second half-transformation.
	Two-electron integral transformation complete.
	(OV|OO)...
	Starting first half-transformation.
	Sorting half-transformed integrals.
	First half integral transformation complete.
	Starting second half-transformation.
	Two-electron integral transformation complete.
	(OV|OV)...
	Starting second half-transformation.
	Two-electron integral transformation complete.
	(OV|VV)...
	Starting second half-transformation.
	Two-electron integral transformation complete.
	(VV|OO)...
	Starting first half-transformation.
	Sorting half-transformed integrals.
	First half integral transformation complete.
	Starting second half-transformation.
	Two-electron integral transformation complete.
	(VV|OV)...
	Starting second half-transformation.
	Two-electron integral transformation complete.
	(VV|VV)...
	Starting second half-transformation.
	Two-electron integral transformation complete.
	Frozen core energy     =   -104.60929038841853

	Size of irrep 0 of <ab|cd> integrals: 147890.239 (MW) / 1183121.914 (MB)
	Size of irrep 1 of <ab|cd> integrals: 147889.470 (MW) / 1183115.761 (MB)
	Total:                                295779.709 (MW) / 2366237.675 (MB)

	Size of irrep 0 of <ia|bc> integrals:   1180.230 (MW) /   9441.840 (MB)
	Size of irrep 1 of <ia|bc> integrals:   1180.611 (MW) /   9444.892 (MB)
	Total:                                  2360.841 (MW) /  18886.732 (MB)

	Size of irrep 0 of tijab amplitudes:       9.614 (MW) /     76.913 (MB)
	Size of irrep 1 of tijab amplitudes:       9.230 (MW) /     73.836 (MB)
	Total:                                    18.844 (MW) /    150.749 (MB)

	Nuclear Rep. energy          =     41.58433003860981
	SCF energy                   =   -111.23653443252971
	One-electron energy          =    -86.32683743146265
	Two-electron energy          =     38.11526334870575
	Reference energy             =   -111.23653443256562

*** tstop() called on n411-024.vsc4.prov at Mon Feb  1 18:02:20 2021
Module time:
	user time   =   49525.08 seconds =     825.42 minutes
	system time =   15752.64 seconds =     262.54 minutes
	total time  =      87725 seconds =    1462.08 minutes
Total time:
	user time   =   72847.36 seconds =    1214.12 minutes
	system time =   42605.22 seconds =     710.09 minutes
	total time  =     154711 seconds =    2578.52 minutes
            **************************
            *                        *
            *        CCENERGY        *
            *                        *
            **************************

    Nuclear Rep. energy (wfn)     =   41.584330038609806
    SCF energy          (wfn)     = -111.236534432529709
    Reference energy    (file100) = -111.236534432565620

    Input parameters:
    -----------------
    Wave function   =     CCSD_T
    Reference wfn   =     RHF
    Brueckner       =     No
    Memory (Mbytes) =     650000.0
    Maxiter         =     50
    R_Convergence   =     1.0e-07
    E_Convergence   =     1.0e-06
    Restart         =     Yes
    DIIS            =     Yes
    AO Basis        =     NONE
    ABCD            =     NEW
    Cache Level     =     2
    Cache Type      =     LOW
    Print Level     =     1
    Num. of threads =     1
    # Amps to Print =     10
    Print MP2 Amps? =     No
    Analyze T2 Amps =     No
    Print Pair Ener =     No
    Local CC        =     No
    SCS-MP2         =     False
    SCSN-MP2        =     False
    SCS-CCSD        =     False

MP2 correlation energy -0.4894153817190549
                Solving CC Amplitude Equations
                ------------------------------
  Iter             Energy              RMS        T1Diag      D1Diag    New D1Diag    D2Diag
  ----     ---------------------    ---------   ----------  ----------  ----------   --------
     0        -0.489415381719055    0.000e+00    0.000000    0.000000    0.000000    0.137464
