
    -----------------------------------------------------------------------
          Psi4: An Open-Source Ab Initio Electronic Structure Package
                               Psi4 1.2a1.dev939 

                         Git: Rev {HEAD} fa1ec19 


    R. M. Parrish, L. A. Burns, D. G. A. Smith, A. C. Simmonett,
    A. E. DePrince III, E. G. Hohenstein, U. Bozkaya, A. Yu. Sokolov,
    R. Di Remigio, R. M. Richard, J. F. Gonthier, A. M. James,
    H. R. McAlexander, A. Kumar, M. Saitow, X. Wang, B. P. Pritchard,
    P. Verma, H. F. Schaefer III, K. Patkowski, R. A. King, E. F. Valeev,
    F. A. Evangelista, J. M. Turney, T. D. Crawford, and C. D. Sherrill,
    J. Chem. Theory Comput. 13(7) pp 3185--3197 (2017).
    (doi: 10.1021/acs.jctc.7b00174)

    -----------------------------------------------------------------------


    Psi4 started on: Friday, 26 April 2019 07:05PM

    Process ID:  11053
    PSIDATADIR: /home/grueneis/src/psi4/objdir/stage/usr/local/psi4/share/psi4
    Memory:     500.0 MiB
    Threads:    1
    
  ==> Input File <==

--------------------------------------------------------------------------
# Any line starting with the # character is a comment line

memory 32000 mb

molecule molecule {
0 1
P          0.0000000000        0.0000000000        0.9601625849
P          0.0000000000        0.0000000000       -0.9601625849
}

set {
  reference rhf
  basis aug-cc-pv(T+d)z
  scf_type OUT_OF_CORE
  freeze_core true
}

energy('ccsd')
--------------------------------------------------------------------------

  Memory set to  29.802 GiB by Python driver.

*** tstart() called on cqc01
*** at Fri Apr 26 19:05:04 2019

   => Loading Basis Set <=

    Name: AUG-CC-PV(T+D)Z
    Role: ORBITAL
    Keyword: BASIS
    atoms 1-2 entry P          line   844 file /home/grueneis/src/psi4/objdir/stage/usr/local/psi4/share/psi4/basis/aug-cc-pv_tpd_z.gbs 


         ---------------------------------------------------------
                                   SCF
            by Justin Turney, Rob Parrish, Andy Simmonett
                             and Daniel Smith
                              RHF Reference
                        1 Threads,  30517 MiB Core
         ---------------------------------------------------------

  ==> Geometry <==

    Molecular point group: d2h
    Full point group: D_inf_h

    Geometry (in Angstrom), charge = 0, multiplicity = 1:

       Center              X                  Y                   Z               Mass       
    ------------   -----------------  -----------------  -----------------  -----------------
           P          0.000000000000     0.000000000000     0.960162584900    30.973761629000
           P          0.000000000000     0.000000000000    -0.960162584900    30.973761629000

  Running in d2h symmetry.

  Rotational constants: A = ************  B =      0.29518  C =      0.29518 [cm^-1]
  Rotational constants: A = ************  B =   8849.19349  C =   8849.19349 [MHz]
  Nuclear repulsion =   62.002453441335923

  Charge       = 0
  Multiplicity = 1
  Electrons    = 30
  Nalpha       = 15
  Nbeta        = 15

  ==> Algorithm <==

  SCF Algorithm Type is OUT_OF_CORE.
  DIIS enabled.
  MOM disabled.
  Fractional occupation disabled.
  Guess Type is SAD.
  Energy threshold   = 1.00e-08
  Density threshold  = 1.00e-08
  Integral threshold = 0.00e+00

  ==> Primary Basis <==

  Basis Set: AUG-CC-PV(T+D)Z
    Blend: AUG-CC-PV(T+D)Z
    Number of shells: 34
    Number of basis function: 110
    Number of Cartesian functions: 130
    Spherical Harmonics?: true
    Max angular momentum: 3

  ==> Pre-Iterations <==

   -------------------------------------------------------
    Irrep   Nso     Nmo     Nalpha   Nbeta   Ndocc  Nsocc
   -------------------------------------------------------
     Ag        23      23       0       0       0       0
     B1g        6       6       0       0       0       0
     B2g       13      13       0       0       0       0
     B3g       13      13       0       0       0       0
     Au         6       6       0       0       0       0
     B1u       23      23       0       0       0       0
     B2u       13      13       0       0       0       0
     B3u       13      13       0       0       0       0
   -------------------------------------------------------
    Total     110     110      15      15      15       0
   -------------------------------------------------------

  ==> Integral Setup <==

  ==> DiskJK: Disk-Based J/K Matrices <==

    J tasked:                  Yes
    K tasked:                  Yes
    wK tasked:                  No
    Memory (MB):             22888
    Schwarz Cutoff:          1E-12

  Minimum eigenvalue in the overlap matrix is 1.6369308986E-04.
  Using Symmetric Orthogonalization.

  SCF Guess: Superposition of Atomic Densities via on-the-fly atomic UHF.

  ==> Iterations <==

                        Total Energy        Delta E     RMS |[F,P]|

   @RHF iter   0:  -681.46075066530977   -6.81461e+02   4.17694e-02 
   @RHF iter   1:  -681.48332878345821   -2.25781e-02   2.80050e-03 
   @RHF iter   2:  -681.49080998396437   -7.48120e-03   6.37068e-04 DIIS
   @RHF iter   3:  -681.49158028453689   -7.70301e-04   2.01481e-04 DIIS
   @RHF iter   4:  -681.49168418505440   -1.03901e-04   3.05430e-05 DIIS
   @RHF iter   5:  -681.49168532090107   -1.13585e-06   8.28260e-06 DIIS
   @RHF iter   6:  -681.49168542834639   -1.07445e-07   2.25187e-06 DIIS
   @RHF iter   7:  -681.49168544635597   -1.80096e-08   4.21073e-07 DIIS
   @RHF iter   8:  -681.49168544707163   -7.15659e-10   5.45796e-08 DIIS
   @RHF iter   9:  -681.49168544708118   -9.54969e-12   9.75294e-09 DIIS

  ==> Post-Iterations <==

    Orbital Energies (a.u.)
    -----------------------

    Doubly Occupied:                                                      

       1Ag   -79.979998     1B1u  -79.979992     2Ag    -7.520980  
       2B1u   -7.520353     3Ag    -5.412598     1B2u   -5.411989  
       1B3u   -5.411989     1B3g   -5.411767     1B2g   -5.411767  
       3B1u   -5.410538     4Ag    -0.895224     4B1u   -0.611045  
       5Ag    -0.408547     2B3u   -0.367731     2B2u   -0.367731  

    Virtual:                                                              

       2B3g    0.011752     2B2g    0.011752     5B1u    0.048364  
       6Ag     0.078300     3B3u    0.084098     3B2u    0.084098  
       7Ag     0.095445     3B2g    0.110745     3B3g    0.110745  
       6B1u    0.165459     8Ag     0.182666     1B1g    0.182666  
       7B1u    0.223042     4B3u    0.251541     4B2u    0.251541  
       9Ag     0.257550     8B1u    0.276344     1Au     0.276344  
       4B2g    0.318348     4B3g    0.318348     9B1u    0.357943  
       5B3u    0.460400     5B2u    0.460400    10Ag     0.515137  
      11Ag     0.528549     2B1g    0.528549    12Ag     0.553134  
       6B3u    0.557810     6B2u    0.557810    10B1u    0.594559  
       7B3u    0.604462     7B2u    0.604462     5B2g    0.632193  
       5B3g    0.632193     2Au     0.636490    11B1u    0.636490  
      13Ag     0.664092     6B2g    0.702685     6B3g    0.702685  
       3B1g    0.709758    14Ag     0.709758     7B3g    0.739787  
       7B2g    0.739787    12B1u    0.799641     8B3u    0.913156  
       8B2u    0.913156    13B1u    0.920380     3Au     0.920380  
      14B1u    1.041072     8B2g    1.119744     8B3g    1.119744  
      15Ag     1.248081    15B1u    1.341490     9B3u    1.566654  
       9B2u    1.566654    16Ag     1.580172     4B1g    1.580172  
       4Au     1.654910    16B1u    1.654910    17Ag     1.676997  
      17B1u    1.746202    18Ag     1.760921     5B1g    1.760921  
      10B2u    1.838913    10B3u    1.838913     9B3g    1.839101  
       9B2g    1.839101    11B2u    1.920397    11B3u    1.920397  
      10B3g    1.932330    10B2g    1.932330    19Ag     2.037549  
      18B1u    2.131235     5Au     2.131235    11B2g    2.256579  
      11B3g    2.256579    19B1u    2.317970    12B3u    2.320918  
      12B2u    2.320918    12B3g    2.707546    12B2g    2.707546  
      20Ag     2.893799    20B1u    3.339552    21Ag     4.256801  
      21B1u    4.756823     6B1g    6.180336    22Ag     6.180336  
      13B3u    6.184363    13B2u    6.184363    22B1u    6.223106  
       6Au     6.223106    23Ag     6.272382    13B3g    6.432333  
      13B2g    6.432333    23B1u    7.051904  

    Final Occupation by Irrep:
             Ag   B1g   B2g   B3g    Au   B1u   B2u   B3u 
    DOCC [     5,    0,    1,    1,    0,    4,    2,    2 ]

  Energy converged.

  @RHF Final Energy:  -681.49168544708118

   => Energetics <=

    Nuclear Repulsion Energy =             62.0024534413359234
    One-Electron Energy =               -1066.7437796148603866
    Two-Electron Energy =                 323.2496407264432605
    Total Energy =                       -681.4916854470811813



Properties will be evaluated at   0.000000,   0.000000,   0.000000 Bohr

Properties computed using the SCF density matrix

  Nuclear Dipole Moment: (a.u.)
     X:     0.0000      Y:     0.0000      Z:    -0.0000

  Electronic Dipole Moment: (a.u.)
     X:     0.0000      Y:     0.0000      Z:     0.0000

  Dipole Moment: (a.u.)
     X:     0.0000      Y:     0.0000      Z:    -0.0000     Total:     0.0000

  Dipole Moment: (Debye)
     X:     0.0000      Y:     0.0000      Z:    -0.0000     Total:     0.0000


*** tstop() called on cqc01 at Fri Apr 26 19:05:08 2019
Module time:
	user time   =       3.06 seconds =       0.05 minutes
	system time =       1.54 seconds =       0.03 minutes
	total time  =          4 seconds =       0.07 minutes
Total time:
	user time   =       3.06 seconds =       0.05 minutes
	system time =       1.54 seconds =       0.03 minutes
	total time  =          4 seconds =       0.07 minutes

*** tstart() called on cqc01
*** at Fri Apr 26 19:05:08 2019


	Wfn Parameters:
	--------------------
	Wavefunction         = CCSD
	Number of irreps     = 8
	Number of MOs        = 110
	Number of active MOs = 100
	AO-Basis             = NONE
	Semicanonical        = false
	Reference            = RHF
	Print Level          = 1

	IRREP	# MOs	# FZDC	# DOCC	# SOCC	# VIRT	# FZVR
	-----	-----	------	------	------	------	------
	 Ag	   23	    3	    2	    0	    18	    0
	 B1g	   6	    0	    0	    0	    6	    0
	 B2g	   13	    1	    0	    0	    12	    0
	 B3g	   13	    1	    0	    0	    12	    0
	 Au	   6	    0	    0	    0	    6	    0
	 B1u	   23	    3	    1	    0	    19	    0
	 B2u	   13	    1	    1	    0	    11	    0
	 B3u	   13	    1	    1	    0	    11	    0
	Transforming integrals...
	IWL integrals will be deleted.
	(OO|OO)...
	Presorting SO-basis two-electron integrals.
	Sorting File: SO Ints (nn|nn) nbuckets = 1
	Transforming the one-electron integrals and constructing Fock matrices
	Starting first half-transformation.
	Sorting half-transformed integrals.
	First half integral transformation complete.
	Starting second half-transformation.
	Two-electron integral transformation complete.
	(OO|OV)...
	Starting second half-transformation.
	Two-electron integral transformation complete.
	(OO|VV)...
	Starting second half-transformation.
	Two-electron integral transformation complete.
	(OV|OO)...
	Starting first half-transformation.
	Sorting half-transformed integrals.
	First half integral transformation complete.
	Starting second half-transformation.
	Two-electron integral transformation complete.
	(OV|OV)...
	Starting second half-transformation.
	Two-electron integral transformation complete.
	(OV|VV)...
	Starting second half-transformation.
	Two-electron integral transformation complete.
	(VV|OO)...
	Starting first half-transformation.
	Sorting half-transformed integrals.
	First half integral transformation complete.
	Starting second half-transformation.
	Two-electron integral transformation complete.
	(VV|OV)...
	Starting second half-transformation.
	Two-electron integral transformation complete.
	(VV|VV)...
	Starting second half-transformation.
	Two-electron integral transformation complete.
	Frozen core energy     =   -723.83434375656168

	Size of irrep 0 of <ab|cd> integrals:      1.656 (MW) /     13.251 (MB)
	Size of irrep 1 of <ab|cd> integrals:      0.949 (MW) /      7.589 (MB)
	Size of irrep 2 of <ab|cd> integrals:      1.268 (MW) /     10.143 (MB)
	Size of irrep 3 of <ab|cd> integrals:      1.268 (MW) /     10.143 (MB)
	Size of irrep 4 of <ab|cd> integrals:      0.945 (MW) /      7.558 (MB)
	Size of irrep 5 of <ab|cd> integrals:      1.649 (MW) /     13.189 (MB)
	Size of irrep 6 of <ab|cd> integrals:      1.272 (MW) /     10.179 (MB)
	Size of irrep 7 of <ab|cd> integrals:      1.272 (MW) /     10.179 (MB)
	Total:                                    10.279 (MW) /     82.232 (MB)

	Size of irrep 0 of <ia|bc> integrals:      0.099 (MW) /      0.793 (MB)
	Size of irrep 1 of <ia|bc> integrals:      0.039 (MW) /      0.312 (MB)
	Size of irrep 2 of <ia|bc> integrals:      0.068 (MW) /      0.540 (MB)
	Size of irrep 3 of <ia|bc> integrals:      0.068 (MW) /      0.540 (MB)
	Size of irrep 4 of <ia|bc> integrals:      0.041 (MW) /      0.327 (MB)
	Size of irrep 5 of <ia|bc> integrals:      0.103 (MW) /      0.822 (MB)
	Size of irrep 6 of <ia|bc> integrals:      0.065 (MW) /      0.523 (MB)
	Size of irrep 7 of <ia|bc> integrals:      0.065 (MW) /      0.523 (MB)
	Total:                                     0.548 (MW) /      4.381 (MB)

	Size of irrep 0 of tijab amplitudes:       0.009 (MW) /      0.072 (MB)
	Size of irrep 1 of tijab amplitudes:       0.002 (MW) /      0.016 (MB)
	Size of irrep 2 of tijab amplitudes:       0.002 (MW) /      0.018 (MB)
	Size of irrep 3 of tijab amplitudes:       0.002 (MW) /      0.018 (MB)
	Size of irrep 4 of tijab amplitudes:       0.000 (MW) /      0.000 (MB)
	Size of irrep 5 of tijab amplitudes:       0.005 (MW) /      0.041 (MB)
	Size of irrep 6 of tijab amplitudes:       0.005 (MW) /      0.036 (MB)
	Size of irrep 7 of tijab amplitudes:       0.005 (MW) /      0.036 (MB)
	Total:                                     0.030 (MW) /      0.237 (MB)

	Nuclear Rep. energy          =     62.00245344133592
	SCF energy                   =   -681.49168544708118
	One-electron energy          =    -34.01903492150629
	Two-electron energy          =     14.35923978964890
	Reference energy             =   -681.49168544708311

*** tstop() called on cqc01 at Fri Apr 26 19:05:14 2019
Module time:
	user time   =       0.61 seconds =       0.01 minutes
	system time =       0.39 seconds =       0.01 minutes
	total time  =          6 seconds =       0.10 minutes
Total time:
	user time   =       3.68 seconds =       0.06 minutes
	system time =       1.93 seconds =       0.03 minutes
	total time  =         10 seconds =       0.17 minutes

*** tstart() called on cqc01
*** at Fri Apr 26 19:05:14 2019

            **************************
            *                        *
            *        CCENERGY        *
            *                        *
            **************************

    Nuclear Rep. energy (wfn)     =   62.002453441335923
    SCF energy          (wfn)     = -681.491685447081181
    Reference energy    (file100) = -681.491685447083114

    Input parameters:
    -----------------
    Wave function   =     CCSD
    Reference wfn   =     RHF
    Brueckner       =     No
    Memory (Mbytes) =     32000.0
    Maxiter         =     50
    R_Convergence   =     1.0e-07
    E_Convergence   =     1.0e-06
    Restart         =     Yes
    DIIS            =     Yes
    AO Basis        =     NONE
    ABCD            =     NEW
    Cache Level     =     2
    Cache Type      =     LOW
    Print Level     =     1
    Num. of threads =     1
    # Amps to Print =     10
    Print MP2 Amps? =     No
    Analyze T2 Amps =     No
    Print Pair Ener =     No
    Local CC        =     No
    SCS-MP2         =     False
    SCSN-MP2        =     False
    SCS-CCSD        =     False

MP2 correlation energy -0.2860880507000723
                Solving CC Amplitude Equations
                ------------------------------
  Iter             Energy              RMS        T1Diag      D1Diag    New D1Diag    D2Diag
  ----     ---------------------    ---------   ----------  ----------  ----------   --------
     0        -0.286088050700005    0.000e+00    0.000000    0.000000    0.000000    0.195342
     1        -0.320484323261347    3.216e-01    0.028350    0.053796    0.053796    0.233433
     2        -0.307225547732281    5.336e-02    0.018467    0.035486    0.035486    0.223628
     3        -0.301475577509620    1.276e-02    0.018599    0.035459    0.035459    0.218241
     4        -0.301716419815294    3.448e-03    0.018034    0.034357    0.034357    0.218338
     5        -0.301287530731225    1.135e-03    0.017880    0.034021    0.034021    0.217839
     6        -0.301290008599006    3.044e-04    0.017835    0.033928    0.033928    0.217793
     7        -0.301297346300371    7.666e-05    0.017826    0.033911    0.033911    0.217793
     8        -0.301293226073164    2.216e-05    0.017823    0.033907    0.033907    0.217790
     9        -0.301293949393078    7.006e-06    0.017822    0.033906    0.033906    0.217792
    10        -0.301294069092405    2.138e-06    0.017822    0.033906    0.033906    0.217792
    11        -0.301294097376861    7.829e-07    0.017822    0.033905    0.033905    0.217793
    12        -0.301294124051229    2.551e-07    0.017822    0.033906    0.033906    0.217793
    13        -0.301294122416450    7.572e-08    0.017822    0.033906    0.033906    0.217793
    13        -0.301294122416450    7.572e-08    0.017822    0.033906    0.033906    0.217793

    Iterations converged.


    CCSD corr. energy   =   -0.301294122416450
    PPL corr. energy    =    0.100703772208516
    OS PPL corr. energy =    0.084468489508562
    SS PPL corr. energy =    0.016235282699954
    Largest TIA Amplitudes:
              4  87        -0.0238432340
              3  76        -0.0238432340
              2  55         0.0176939257
              4  85         0.0173787927
              3  74         0.0173787927
              2  58        -0.0148015506
              2  56         0.0125504648
              4  84         0.0121483622
              3  73         0.0121483622
              3  78        -0.0086150585

    Largest TIjAb Amplitudes:
      3   3  36  36        -0.1570344392
      4   4  24  24        -0.1570344392
      3   4  36  24        -0.0874637246
      4   3  24  36        -0.0874637246
      3   3  36  37        -0.0596420463
      3   3  37  36        -0.0596420463
      4   4  24  25        -0.0596420463
      4   4  25  24        -0.0596420463
      1   1  24  24        -0.0559775905
      1   1  36  36        -0.0559775905

    SCF energy       (wfn)                    = -681.491685447081181
    Reference energy (file100)                = -681.491685447083114

    Opposite-spin MP2 correlation energy      =   -0.216738993919602
    Same-spin MP2 correlation energy          =   -0.069349056780404
    MP2 correlation energy                    =   -0.286088050700072
      * MP2 total energy                      = -681.777773497783187

    Opposite-spin CCSD correlation energy     =   -0.241799548817684
    Same-spin CCSD correlation energy         =   -0.059494575356456
    CCSD correlation energy                   =   -0.301294122416450
      * CCSD total energy                     = -681.792979569499607


*** tstop() called on cqc01 at Fri Apr 26 19:05:22 2019
Module time:
	user time   =       1.53 seconds =       0.03 minutes
	system time =       4.00 seconds =       0.07 minutes
	total time  =          8 seconds =       0.13 minutes
Total time:
	user time   =       5.21 seconds =       0.09 minutes
	system time =       5.93 seconds =       0.10 minutes
	total time  =         18 seconds =       0.30 minutes

*** Psi4 exiting successfully. Buy a developer a beer!
