
    -----------------------------------------------------------------------
          Psi4: An Open-Source Ab Initio Electronic Structure Package
                               Psi4 1.2a1.dev939 

                         Git: Rev {HEAD} fa1ec19 


    R. M. Parrish, L. A. Burns, D. G. A. Smith, A. C. Simmonett,
    A. E. DePrince III, E. G. Hohenstein, U. Bozkaya, A. Yu. Sokolov,
    R. Di Remigio, R. M. Richard, J. F. Gonthier, A. M. James,
    H. R. McAlexander, A. Kumar, M. Saitow, X. Wang, B. P. Pritchard,
    P. Verma, H. F. Schaefer III, K. Patkowski, R. A. King, E. F. Valeev,
    F. A. Evangelista, J. M. Turney, T. D. Crawford, and C. D. Sherrill,
    J. Chem. Theory Comput. 13(7) pp 3185--3197 (2017).
    (doi: 10.1021/acs.jctc.7b00174)

    -----------------------------------------------------------------------


    Psi4 started on: Friday, 26 April 2019 03:40PM

    Process ID:  13249
    PSIDATADIR: /home/grueneis/src/psi4/objdir/stage/usr/local/psi4/share/psi4
    Memory:     500.0 MiB
    Threads:    1
    
  ==> Input File <==

--------------------------------------------------------------------------
# Any line starting with the # character is a comment line

memory 32000 mb

molecule molecule {
0 1
P          0.0000000000        0.0000000000        0.9601625849
P          0.0000000000        0.0000000000       -0.9601625849
}

set {
  reference rhf
  basis aug-cc-pv(D+d)z
  scf_type OUT_OF_CORE
  freeze_core true
}

energy('ccsd')
--------------------------------------------------------------------------

  Memory set to  29.802 GiB by Python driver.

*** tstart() called on cqc01
*** at Fri Apr 26 15:40:13 2019

   => Loading Basis Set <=

    Name: AUG-CC-PV(D+D)Z
    Role: ORBITAL
    Keyword: BASIS
    atoms 1-2 entry P          line   656 file /home/grueneis/src/psi4/objdir/stage/usr/local/psi4/share/psi4/basis/aug-cc-pv_dpd_z.gbs 


         ---------------------------------------------------------
                                   SCF
            by Justin Turney, Rob Parrish, Andy Simmonett
                             and Daniel Smith
                              RHF Reference
                        1 Threads,  30517 MiB Core
         ---------------------------------------------------------

  ==> Geometry <==

    Molecular point group: d2h
    Full point group: D_inf_h

    Geometry (in Angstrom), charge = 0, multiplicity = 1:

       Center              X                  Y                   Z               Mass       
    ------------   -----------------  -----------------  -----------------  -----------------
           P          0.000000000000     0.000000000000     0.960162584900    30.973761629000
           P          0.000000000000     0.000000000000    -0.960162584900    30.973761629000

  Running in d2h symmetry.

  Rotational constants: A = ************  B =      0.29518  C =      0.29518 [cm^-1]
  Rotational constants: A = ************  B =   8849.19349  C =   8849.19349 [MHz]
  Nuclear repulsion =   62.002453441335923

  Charge       = 0
  Multiplicity = 1
  Electrons    = 30
  Nalpha       = 15
  Nbeta        = 15

  ==> Algorithm <==

  SCF Algorithm Type is OUT_OF_CORE.
  DIIS enabled.
  MOM disabled.
  Fractional occupation disabled.
  Guess Type is SAD.
  Energy threshold   = 1.00e-08
  Density threshold  = 1.00e-08
  Integral threshold = 0.00e+00

  ==> Primary Basis <==

  Basis Set: AUG-CC-PV(D+D)Z
    Blend: AUG-CC-PV(D+D)Z
    Number of shells: 24
    Number of basis function: 64
    Number of Cartesian functions: 70
    Spherical Harmonics?: true
    Max angular momentum: 2

  ==> Pre-Iterations <==

   -------------------------------------------------------
    Irrep   Nso     Nmo     Nalpha   Nbeta   Ndocc  Nsocc
   -------------------------------------------------------
     Ag        15      15       0       0       0       0
     B1g        3       3       0       0       0       0
     B2g        7       7       0       0       0       0
     B3g        7       7       0       0       0       0
     Au         3       3       0       0       0       0
     B1u       15      15       0       0       0       0
     B2u        7       7       0       0       0       0
     B3u        7       7       0       0       0       0
   -------------------------------------------------------
    Total      64      64      15      15      15       0
   -------------------------------------------------------

  ==> Integral Setup <==

  ==> DiskJK: Disk-Based J/K Matrices <==

    J tasked:                  Yes
    K tasked:                  Yes
    wK tasked:                  No
    Memory (MB):             22888
    Schwarz Cutoff:          1E-12

  Minimum eigenvalue in the overlap matrix is 6.3038562799E-04.
  Using Symmetric Orthogonalization.

  SCF Guess: Superposition of Atomic Densities via on-the-fly atomic UHF.

  ==> Iterations <==

                        Total Energy        Delta E     RMS |[F,P]|

   @RHF iter   0:  -681.48759384531627   -6.81488e+02   6.70690e-02 
   @RHF iter   1:  -681.46704470627378    2.05491e-02   3.01987e-03 
   @RHF iter   2:  -681.47352653689791   -6.48183e-03   9.19436e-04 DIIS
   @RHF iter   3:  -681.47432850733924   -8.01970e-04   1.70668e-04 DIIS
   @RHF iter   4:  -681.47434548823878   -1.69809e-05   4.60380e-05 DIIS
   @RHF iter   5:  -681.47434656334815   -1.07511e-06   7.81481e-06 DIIS
   @RHF iter   6:  -681.47434663079753   -6.74494e-08   1.62844e-06 DIIS
   @RHF iter   7:  -681.47434663495483   -4.15730e-09   2.22081e-07 DIIS
   @RHF iter   8:  -681.47434663503077   -7.59428e-11   4.02447e-08 DIIS
   @RHF iter   9:  -681.47434663503259   -1.81899e-12   5.83195e-09 DIIS

  ==> Post-Iterations <==

    Orbital Energies (a.u.)
    -----------------------

    Doubly Occupied:                                                      

       1Ag   -79.985570     1B1u  -79.985566     2Ag    -7.525467  
       2B1u   -7.524894     3Ag    -5.417655     1B3u   -5.416659  
       1B2u   -5.416659     1B3g   -5.416436     1B2g   -5.416436  
       3B1u   -5.415632     4Ag    -0.899397     4B1u   -0.612409  
       5Ag    -0.410206     2B2u   -0.368486     2B3u   -0.368486  

    Virtual:                                                              

       2B2g    0.011623     2B3g    0.011623     5B1u    0.058199  
       6Ag     0.091284     3B2u    0.100384     3B3u    0.100384  
       7Ag     0.109881     3B3g    0.139833     3B2g    0.139833  
       6B1u    0.197935     8Ag     0.242687     1B1g    0.242687  
       7B1u    0.246596     4B2u    0.311563     4B3u    0.311563  
       9Ag     0.355914     1Au     0.377369     8B1u    0.377369  
       4B2g    0.492002     4B3g    0.492002     9B1u    0.523785  
       5B3u    0.692079     5B2u    0.692079    10Ag     0.710922  
      10B1u    0.766025    11Ag     0.770021     6B2u    0.783941  
       6B3u    0.783941     5B3g    0.808231     5B2g    0.808231  
      12Ag     0.828476     2B1g    0.828476    11B1u    0.910236  
       2Au     0.910236    13Ag     0.983189     6B3g    1.062957  
       6B2g    1.062957    12B1u    1.293610    13B1u    1.523327  
      14Ag     4.294012     3B1g    4.294012     7B3u    4.294126  
       7B2u    4.294126     3Au     4.344502    14B1u    4.344502  
       7B2g    4.436197     7B3g    4.436197    15B1u    4.440524  
      15Ag     4.468549  

    Final Occupation by Irrep:
             Ag   B1g   B2g   B3g    Au   B1u   B2u   B3u 
    DOCC [     5,    0,    1,    1,    0,    4,    2,    2 ]

  Energy converged.

  @RHF Final Energy:  -681.47434663503259

   => Energetics <=

    Nuclear Repulsion Energy =             62.0024534413359234
    One-Electron Energy =               -1066.5936842250207519
    Two-Electron Energy =                 323.1168841486521615
    Total Energy =                       -681.4743466350327026



Properties will be evaluated at   0.000000,   0.000000,   0.000000 Bohr

Properties computed using the SCF density matrix

  Nuclear Dipole Moment: (a.u.)
     X:     0.0000      Y:     0.0000      Z:    -0.0000

  Electronic Dipole Moment: (a.u.)
     X:     0.0000      Y:     0.0000      Z:     0.0000

  Dipole Moment: (a.u.)
     X:     0.0000      Y:     0.0000      Z:    -0.0000     Total:     0.0000

  Dipole Moment: (Debye)
     X:     0.0000      Y:     0.0000      Z:    -0.0000     Total:     0.0000


*** tstop() called on cqc01 at Fri Apr 26 15:40:16 2019
Module time:
	user time   =       1.14 seconds =       0.02 minutes
	system time =       0.34 seconds =       0.01 minutes
	total time  =          3 seconds =       0.05 minutes
Total time:
	user time   =       1.14 seconds =       0.02 minutes
	system time =       0.34 seconds =       0.01 minutes
	total time  =          3 seconds =       0.05 minutes

*** tstart() called on cqc01
*** at Fri Apr 26 15:40:16 2019


	Wfn Parameters:
	--------------------
	Wavefunction         = CCSD
	Number of irreps     = 8
	Number of MOs        = 64
	Number of active MOs = 54
	AO-Basis             = NONE
	Semicanonical        = false
	Reference            = RHF
	Print Level          = 1

	IRREP	# MOs	# FZDC	# DOCC	# SOCC	# VIRT	# FZVR
	-----	-----	------	------	------	------	------
	 Ag	   15	    3	    2	    0	    10	    0
	 B1g	   3	    0	    0	    0	    3	    0
	 B2g	   7	    1	    0	    0	    6	    0
	 B3g	   7	    1	    0	    0	    6	    0
	 Au	   3	    0	    0	    0	    3	    0
	 B1u	   15	    3	    1	    0	    11	    0
	 B2u	   7	    1	    1	    0	    5	    0
	 B3u	   7	    1	    1	    0	    5	    0
	Transforming integrals...
	IWL integrals will be deleted.
	(OO|OO)...
	Presorting SO-basis two-electron integrals.
	Sorting File: SO Ints (nn|nn) nbuckets = 1
	Transforming the one-electron integrals and constructing Fock matrices
	Starting first half-transformation.
	Sorting half-transformed integrals.
	First half integral transformation complete.
	Starting second half-transformation.
	Two-electron integral transformation complete.
	(OO|OV)...
	Starting second half-transformation.
	Two-electron integral transformation complete.
	(OO|VV)...
	Starting second half-transformation.
	Two-electron integral transformation complete.
	(OV|OO)...
	Starting first half-transformation.
	Sorting half-transformed integrals.
	First half integral transformation complete.
	Starting second half-transformation.
	Two-electron integral transformation complete.
	(OV|OV)...
	Starting second half-transformation.
	Two-electron integral transformation complete.
	(OV|VV)...
	Starting second half-transformation.
	Two-electron integral transformation complete.
	(VV|OO)...
	Starting first half-transformation.
	Sorting half-transformed integrals.
	First half integral transformation complete.
	Starting second half-transformation.
	Two-electron integral transformation complete.
	(VV|OV)...
	Starting second half-transformation.
	Two-electron integral transformation complete.
	(VV|VV)...
	Starting second half-transformation.
	Two-electron integral transformation complete.
	Frozen core energy     =   -723.82614462321476

	Size of irrep 0 of <ab|cd> integrals:      0.130 (MW) /      1.043 (MB)
	Size of irrep 1 of <ab|cd> integrals:      0.062 (MW) /      0.492 (MB)
	Size of irrep 2 of <ab|cd> integrals:      0.088 (MW) /      0.701 (MB)
	Size of irrep 3 of <ab|cd> integrals:      0.088 (MW) /      0.701 (MB)
	Size of irrep 4 of <ab|cd> integrals:      0.061 (MW) /      0.484 (MB)
	Size of irrep 5 of <ab|cd> integrals:      0.128 (MW) /      1.025 (MB)
	Size of irrep 6 of <ab|cd> integrals:      0.089 (MW) /      0.710 (MB)
	Size of irrep 7 of <ab|cd> integrals:      0.089 (MW) /      0.710 (MB)
	Total:                                     0.733 (MW) /      5.867 (MB)

	Size of irrep 0 of <ia|bc> integrals:      0.015 (MW) /      0.118 (MB)
	Size of irrep 1 of <ia|bc> integrals:      0.005 (MW) /      0.038 (MB)
	Size of irrep 2 of <ia|bc> integrals:      0.009 (MW) /      0.073 (MB)
	Size of irrep 3 of <ia|bc> integrals:      0.009 (MW) /      0.073 (MB)
	Size of irrep 4 of <ia|bc> integrals:      0.005 (MW) /      0.041 (MB)
	Size of irrep 5 of <ia|bc> integrals:      0.016 (MW) /      0.126 (MB)
	Size of irrep 6 of <ia|bc> integrals:      0.009 (MW) /      0.069 (MB)
	Size of irrep 7 of <ia|bc> integrals:      0.009 (MW) /      0.069 (MB)
	Total:                                     0.076 (MW) /      0.609 (MB)

	Size of irrep 0 of tijab amplitudes:       0.003 (MW) /      0.020 (MB)
	Size of irrep 1 of tijab amplitudes:       0.000 (MW) /      0.004 (MB)
	Size of irrep 2 of tijab amplitudes:       0.001 (MW) /      0.005 (MB)
	Size of irrep 3 of tijab amplitudes:       0.001 (MW) /      0.005 (MB)
	Size of irrep 4 of tijab amplitudes:       0.000 (MW) /      0.000 (MB)
	Size of irrep 5 of tijab amplitudes:       0.001 (MW) /      0.011 (MB)
	Size of irrep 6 of tijab amplitudes:       0.001 (MW) /      0.010 (MB)
	Size of irrep 7 of tijab amplitudes:       0.001 (MW) /      0.010 (MB)
	Total:                                     0.008 (MW) /      0.064 (MB)

	Nuclear Rep. energy          =     62.00245344133592
	SCF energy                   =   -681.47434663503259
	One-electron energy          =    -33.98334314699253
	Two-electron energy          =     14.33268769383817
	Reference energy             =   -681.47434663503316

*** tstop() called on cqc01 at Fri Apr 26 15:40:17 2019
Module time:
	user time   =       0.08 seconds =       0.00 minutes
	system time =       0.10 seconds =       0.00 minutes
	total time  =          1 seconds =       0.02 minutes
Total time:
	user time   =       1.22 seconds =       0.02 minutes
	system time =       0.44 seconds =       0.01 minutes
	total time  =          4 seconds =       0.07 minutes

*** tstart() called on cqc01
*** at Fri Apr 26 15:40:17 2019

            **************************
            *                        *
            *        CCENERGY        *
            *                        *
            **************************

    Nuclear Rep. energy (wfn)     =   62.002453441335923
    SCF energy          (wfn)     = -681.474346635032589
    Reference energy    (file100) = -681.474346635033157

    Input parameters:
    -----------------
    Wave function   =     CCSD
    Reference wfn   =     RHF
    Brueckner       =     No
    Memory (Mbytes) =     32000.0
    Maxiter         =     50
    R_Convergence   =     1.0e-07
    E_Convergence   =     1.0e-06
    Restart         =     Yes
    DIIS            =     Yes
    AO Basis        =     NONE
    ABCD            =     NEW
    Cache Level     =     2
    Cache Type      =     LOW
    Print Level     =     1
    Num. of threads =     1
    # Amps to Print =     10
    Print MP2 Amps? =     No
    Analyze T2 Amps =     No
    Print Pair Ener =     No
    Local CC        =     No
    SCS-MP2         =     False
    SCSN-MP2        =     False
    SCS-CCSD        =     False

MP2 correlation energy -0.2394583911266841
                Solving CC Amplitude Equations
                ------------------------------
  Iter             Energy              RMS        T1Diag      D1Diag    New D1Diag    D2Diag
  ----     ---------------------    ---------   ----------  ----------  ----------   --------
     0        -0.239458391126677    0.000e+00    0.000000    0.000000    0.000000    0.188776
     1        -0.279474664365017    2.931e-01    0.027760    0.053536    0.053536    0.235355
     2        -0.261727654467400    5.129e-02    0.018687    0.036252    0.036252    0.221307
     3        -0.258124161541217    9.839e-03    0.018203    0.034826    0.034826    0.218318
     4        -0.257985809132909    2.962e-03    0.017714    0.033968    0.033968    0.218282
     5        -0.257632863162837    9.798e-04    0.017574    0.033667    0.033667    0.218009
     6        -0.257695406984518    3.294e-04    0.017541    0.033615    0.033615    0.218115
     7        -0.257691849741955    8.353e-05    0.017536    0.033610    0.033610    0.218142
     8        -0.257694993607697    3.443e-05    0.017535    0.033611    0.033611    0.218163
     9        -0.257697079780711    1.202e-05    0.017536    0.033612    0.033612    0.218173
    10        -0.257697191536299    3.007e-06    0.017536    0.033613    0.033613    0.218175
    11        -0.257697297497718    8.859e-07    0.017536    0.033613    0.033613    0.218175
    12        -0.257697291040315    2.277e-07    0.017536    0.033613    0.033613    0.218175
    13        -0.257697288584214    5.846e-08    0.017536    0.033613    0.033613    0.218175
    13        -0.257697288584214    5.846e-08    0.017536    0.033613    0.033613    0.218175

    Iterations converged.


    CCSD corr. energy   =   -0.257697288584214
    PPL corr. energy    =    0.080707931109697
    OS PPL corr. energy =    0.067103398791728
    SS PPL corr. energy =    0.013604532317969
    Largest TIA Amplitudes:
              3  40         0.0246155609
              4  45         0.0246155609
              2  30         0.0178951229
              3  42        -0.0173184974
              4  47        -0.0173184974
              2  29         0.0151556072
              3  41        -0.0118436234
              4  46        -0.0118436234
              3  39         0.0091211218
              4  44         0.0091211218

    Largest TIjAb Amplitudes:
      3   3  19  19        -0.1654244486
      4   4  13  13        -0.1654244486
      3   4  19  13        -0.0909859323
      4   3  13  19        -0.0909859323
      3   3  19  20        -0.0679913819
      3   3  20  19        -0.0679913819
      4   4  13  14        -0.0679913819
      4   4  14  13        -0.0679913819
      1   1  13  13        -0.0572143969
      1   1  19  19        -0.0572143969

    SCF energy       (wfn)                    = -681.474346635032589
    Reference energy (file100)                = -681.474346635033157

    Opposite-spin MP2 correlation energy      =   -0.178142631695329
    Same-spin MP2 correlation energy          =   -0.061315759431349
    MP2 correlation energy                    =   -0.239458391126684
      * MP2 total energy                      = -681.713805026159889

    Opposite-spin CCSD correlation energy     =   -0.205723547262614
    Same-spin CCSD correlation energy         =   -0.051973742134815
    CCSD correlation energy                   =   -0.257697288584214
      * CCSD total energy                     = -681.732043923617425


*** tstop() called on cqc01 at Fri Apr 26 15:40:20 2019
Module time:
	user time   =       0.53 seconds =       0.01 minutes
	system time =       1.27 seconds =       0.02 minutes
	total time  =          3 seconds =       0.05 minutes
Total time:
	user time   =       1.75 seconds =       0.03 minutes
	system time =       1.71 seconds =       0.03 minutes
	total time  =          7 seconds =       0.12 minutes

*** Psi4 exiting successfully. Buy a developer a beer!
