
    -----------------------------------------------------------------------
          Psi4: An Open-Source Ab Initio Electronic Structure Package
                               Psi4 1.2a1.dev939 

                         Git: Rev {HEAD} fa1ec19 


    R. M. Parrish, L. A. Burns, D. G. A. Smith, A. C. Simmonett,
    A. E. DePrince III, E. G. Hohenstein, U. Bozkaya, A. Yu. Sokolov,
    R. Di Remigio, R. M. Richard, J. F. Gonthier, A. M. James,
    H. R. McAlexander, A. Kumar, M. Saitow, X. Wang, B. P. Pritchard,
    P. Verma, H. F. Schaefer III, K. Patkowski, R. A. King, E. F. Valeev,
    F. A. Evangelista, J. M. Turney, T. D. Crawford, and C. D. Sherrill,
    J. Chem. Theory Comput. 13(7) pp 3185--3197 (2017).
    (doi: 10.1021/acs.jctc.7b00174)

    -----------------------------------------------------------------------


    Psi4 started on: Friday, 03 May 2019 02:59AM

    Process ID:   2625
    PSIDATADIR: /home/grueneis/src/psi4/objdir/stage/usr/local/psi4/share/psi4
    Memory:     500.0 MiB
    Threads:    1
    
  ==> Input File <==

--------------------------------------------------------------------------
# Any line starting with the # character is a comment line

memory 32000 mb

molecule molecule {
0 1
P          0.0000000000        0.0000000000        0.9601625849
P          0.0000000000        0.0000000000       -0.9601625849
}

set {
  reference rhf


  basis aug-cc-pv(5+d)z
  scf_type OUT_OF_CORE
  freeze_core true
}

energy('ccsd')
--------------------------------------------------------------------------

  Memory set to  29.802 GiB by Python driver.

*** tstart() called on cqc03
*** at Fri May  3 02:59:57 2019

   => Loading Basis Set <=

    Name: AUG-CC-PV(5+D)Z
    Role: ORBITAL
    Keyword: BASIS
    atoms 1-2 entry P          line   850 file /home/grueneis/src/psi4/objdir/stage/usr/local/psi4/share/psi4/basis/aug-cc-pv_5pd_z.gbs 


         ---------------------------------------------------------
                                   SCF
            by Justin Turney, Rob Parrish, Andy Simmonett
                             and Daniel Smith
                              RHF Reference
                        1 Threads,  30517 MiB Core
         ---------------------------------------------------------

  ==> Geometry <==

    Molecular point group: d2h
    Full point group: D_inf_h

    Geometry (in Angstrom), charge = 0, multiplicity = 1:

       Center              X                  Y                   Z               Mass       
    ------------   -----------------  -----------------  -----------------  -----------------
           P          0.000000000000     0.000000000000     0.960162584900    30.973761629000
           P          0.000000000000     0.000000000000    -0.960162584900    30.973761629000

  Running in d2h symmetry.

  Rotational constants: A = ************  B =      0.29518  C =      0.29518 [cm^-1]
  Rotational constants: A = ************  B =   8849.19349  C =   8849.19349 [MHz]
  Nuclear repulsion =   62.002453441335923

  Charge       = 0
  Multiplicity = 1
  Electrons    = 30
  Nalpha       = 15
  Nbeta        = 15

  ==> Algorithm <==

  SCF Algorithm Type is OUT_OF_CORE.
  DIIS enabled.
  MOM disabled.
  Fractional occupation disabled.
  Guess Type is SAD.
  Energy threshold   = 1.00e-08
  Density threshold  = 1.00e-08
  Integral threshold = 0.00e+00

  ==> Primary Basis <==

  Basis Set: AUG-CC-PV(5+D)Z
    Blend: AUG-CC-PV(5+D)Z
    Number of shells: 60
    Number of basis function: 272
    Number of Cartesian functions: 384
    Spherical Harmonics?: true
    Max angular momentum: 5

  ==> Pre-Iterations <==

   -------------------------------------------------------
    Irrep   Nso     Nmo     Nalpha   Nbeta   Ndocc  Nsocc
   -------------------------------------------------------
     Ag        50      50       0       0       0       0
     B1g       20      20       0       0       0       0
     B2g       33      33       0       0       0       0
     B3g       33      33       0       0       0       0
     Au        20      20       0       0       0       0
     B1u       50      50       0       0       0       0
     B2u       33      33       0       0       0       0
     B3u       33      33       0       0       0       0
   -------------------------------------------------------
    Total     272     272      15      15      15       0
   -------------------------------------------------------

  ==> Integral Setup <==

  ==> DiskJK: Disk-Based J/K Matrices <==

    J tasked:                  Yes
    K tasked:                  Yes
    wK tasked:                  No
    Memory (MB):             22888
    Schwarz Cutoff:          1E-12

  Minimum eigenvalue in the overlap matrix is 1.2815164404E-05.
  Using Symmetric Orthogonalization.

  SCF Guess: Superposition of Atomic Densities via on-the-fly atomic UHF.

  ==> Iterations <==

                        Total Energy        Delta E     RMS |[F,P]|

   @RHF iter   0:  -681.46224123707691   -6.81462e+02   1.83482e-02 
   @RHF iter   1:  -681.48758811674952   -2.53469e-02   2.18466e-03 
   @RHF iter   2:  -681.49654184950350   -8.95373e-03   4.71439e-04 DIIS
   @RHF iter   3:  -681.49735105272191   -8.09203e-04   1.11690e-04 DIIS
   @RHF iter   4:  -681.49751801940204   -1.66967e-04   1.77558e-05 DIIS
   @RHF iter   5:  -681.49752001560262   -1.99620e-06   4.57519e-06 DIIS
   @RHF iter   6:  -681.49752019820824   -1.82606e-07   1.23574e-06 DIIS
   @RHF iter   7:  -681.49752022181656   -2.36083e-08   2.91327e-07 DIIS
   @RHF iter   8:  -681.49752022379994   -1.98338e-09   4.14135e-08 DIIS
   @RHF iter   9:  -681.49752022382813   -2.81943e-11   6.18912e-09 DIIS

  ==> Post-Iterations <==

    Orbital Energies (a.u.)
    -----------------------

    Doubly Occupied:                                                      

       1Ag   -79.978759     1B1u  -79.978753     2Ag    -7.520116  
       2B1u   -7.519489     3Ag    -5.412034     1B2u   -5.411343  
       1B3u   -5.411343     1B2g   -5.411120     1B3g   -5.411120  
       3B1u   -5.409969     4Ag    -0.894601     4B1u   -0.610770  
       5Ag    -0.408323     2B2u   -0.367639     2B3u   -0.367639  

    Virtual:                                                              

       2B2g    0.011635     2B3g    0.011635     5B1u    0.036351  
       6Ag     0.053370     3B2u    0.062409     3B3u    0.062409  
       7Ag     0.075351     3B3g    0.077797     3B2g    0.077797  
       6B1u    0.122587     8Ag     0.138729     1B1g    0.138729  
       9Ag     0.175296     7B1u    0.177728     4B2u    0.189083  
       4B3u    0.189083     8B1u    0.192160     1Au     0.192160  
       4B3g    0.204721     4B2g    0.204721     9B1u    0.253573  
       5B2u    0.287535     5B3u    0.287535    10Ag     0.312914  
       6B2u    0.351060     6B3u    0.351060     2B1g    0.360144  
      11Ag     0.360144    12Ag     0.360970     7B2u    0.380908  
       7B3u    0.380908    10B1u    0.382735     5B3g    0.398489  
       5B2g    0.398489     2Au     0.415898    11B1u    0.415898  
      13Ag     0.433345     6B2g    0.435595     6B3g    0.435595  
       3B1g    0.442163    14Ag     0.442163     7B3g    0.453124  
       7B2g    0.453124    12B1u    0.480347     8B3u    0.540023  
       8B2u    0.540023    13B1u    0.594955     3Au     0.594955  
      14B1u    0.605467    15Ag     0.677096     8B3g    0.772040  
       8B2g    0.772040    15B1u    0.843918     9B2u    0.853557  
       9B3u    0.853557     4B1g    0.858196    16Ag     0.858196  
      17Ag     0.910679    10B2u    0.915012    10B3u    0.915012  
       5B1g    0.915623    18Ag     0.915623     9B3g    0.981534  
       9B2g    0.981534    11B2u    0.982850    11B3u    0.982850  
      16B1u    0.990808     4Au     0.990808     5Au     0.994953  
      17B1u    0.994953     6B1g    1.005825    19Ag     1.005825  
      18B1u    1.019268    10B2g    1.028538    10B3g    1.028538  
      12B2u    1.049453    12B3u    1.049453    20Ag     1.063906  
      13B3u    1.081733    13B2u    1.081733    19B1u    1.102424  
       6Au     1.102424    11B3g    1.113001    11B2g    1.113001  
      21Ag     1.145232     7B1g    1.190232    22Ag     1.190232  
      12B2g    1.207475    12B3g    1.207475    20B1u    1.308731  
      13B3g    1.324541    13B2g    1.324541    21B1u    1.399831  
      23Ag     1.405922    22B1u    1.537509     7Au     1.537509  
      23B1u    1.610195    14B3u    1.613977    14B2u    1.613977  
      14B3g    1.814894    14B2g    1.814894    24B1u    1.973286  
      24Ag     1.982876    25Ag     2.074582     8B1g    2.074582  
      26Ag     2.082625     9B1g    2.082625    15B2u    2.094000  
      15B3u    2.094000    16B3u    2.102781    16B2u    2.102781  
      17B2u    2.114459    17B3u    2.114459    27Ag     2.219695  
      15B2g    2.247297    15B3g    2.247297    16B3g    2.247762  
      16B2g    2.247762    18B2u    2.252104    18B3u    2.252104  
      10B1g    2.292271    28Ag     2.292271    11B1g    2.309909  
      29Ag     2.309909    25B1u    2.322115     8Au     2.322115  
      17B3g    2.352032    17B2g    2.352032    30Ag     2.373331  
      26B1u    2.377296     9Au     2.377296    19B3u    2.409293  
      19B2u    2.409293    27B1u    2.412845    10Au     2.412845  
      12B1g    2.415722    31Ag     2.415722    28B1u    2.424684  
      20B3u    2.451512    20B2u    2.451512    21B3u    2.461610  
      21B2u    2.461610    18B3g    2.476035    18B2g    2.476035  
      29B1u    2.529070    11Au     2.529070    30B1u    2.606337  
      12Au     2.606337    19B3g    2.636318    19B2g    2.636318  
      31B1u    2.736488    20B3g    2.743756    20B2g    2.743756  
      32Ag     2.752877    13B1g    2.911400    33Ag     2.911400  
      32B1u    3.000336    21B3g    3.032947    21B2g    3.032947  
      22B3u    3.039301    22B2u    3.039301    33B1u    3.503259  
      34Ag     3.524327    34B1u    3.640761    13Au     3.640761  
      22B3g    3.693915    22B2g    3.693915    35Ag     4.158692  
      23B3u    4.169219    23B2u    4.169219    23B3g    4.255429  
      23B2g    4.255429    24B3u    4.574229    24B2u    4.574229  
      36Ag     4.601700    14B1g    4.601700    24B3g    4.644147  
      24B2g    4.644147    37Ag     4.671555    25B3u    4.682467  
      25B2u    4.682467    35B1u    4.788326    15B1g    4.865137  
      38Ag     4.865137    36B1u    4.878795    37B1u    4.895882  
      14Au     4.895882    39Ag     4.938765    38B1u    5.048129  
      15Au     5.048129    26B2u    5.059456    26B3u    5.059456  
      27B3u    5.063554    27B2u    5.063554    16B1g    5.094181  
      40Ag     5.094181    41Ag     5.146406    17B1g    5.146406  
      25B3g    5.147827    25B2g    5.147827    28B2u    5.175408  
      28B3u    5.175408    26B3g    5.242957    26B2g    5.242957  
      18B1g    5.267983    42Ag     5.267983    43Ag     5.281224  
      29B3u    5.299373    29B2u    5.299373    16Au     5.329685  
      39B1u    5.329685    30B3u    5.329976    30B2u    5.329976  
      27B2g    5.332241    27B3g    5.332241    40B1u    5.396115  
      17Au     5.396115    28B2g    5.470292    28B3g    5.470292  
      19B1g    5.584894    44Ag     5.584894    45Ag     5.596868  
      41B1u    5.747756    29B3g    5.750386    29B2g    5.750386  
      18Au     5.791353    42B1u    5.791353    43B1u    5.792048  
      44B1u    6.080696    30B3g    6.128213    30B2g    6.128213  
      31B2u    6.187059    31B3u    6.187059    45B1u    6.264284  
      19Au     6.264284    31B3g    6.857682    31B2g    6.857682  
      46B1u    7.459336    46Ag     7.698461    20B1g   13.117677  
      47Ag    13.117677    20Au    13.280614    47B1u   13.280614  
      32B3u   13.300529    32B2u   13.300529    48Ag    13.562203  
      32B3g   13.827793    32B2g   13.827793    48B1u   13.940635  
      33B3u   17.233703    33B2u   17.233703    49Ag    17.998645  
      33B2g   18.018544    33B3g   18.018544    49B1u   20.459917  
      50Ag    52.760250    50B1u   52.902017  

    Final Occupation by Irrep:
             Ag   B1g   B2g   B3g    Au   B1u   B2u   B3u 
    DOCC [     5,    0,    1,    1,    0,    4,    2,    2 ]

  Energy converged.

  @RHF Final Energy:  -681.49752022382813

   => Energetics <=

    Nuclear Repulsion Energy =             62.0024534413359234
    One-Electron Energy =               -1066.7739156754682881
    Two-Electron Energy =                 323.2739420103043244
    Total Energy =                       -681.4975202238281327



Properties will be evaluated at   0.000000,   0.000000,   0.000000 Bohr

Properties computed using the SCF density matrix

  Nuclear Dipole Moment: (a.u.)
     X:     0.0000      Y:     0.0000      Z:    -0.0000

  Electronic Dipole Moment: (a.u.)
     X:     0.0000      Y:     0.0000      Z:     0.0000

  Dipole Moment: (a.u.)
     X:     0.0000      Y:     0.0000      Z:    -0.0000     Total:     0.0000

  Dipole Moment: (Debye)
     X:     0.0000      Y:     0.0000      Z:    -0.0000     Total:     0.0000


*** tstop() called on cqc03 at Fri May  3 03:01:23 2019
Module time:
	user time   =      82.46 seconds =       1.37 minutes
	system time =       2.73 seconds =       0.05 minutes
	total time  =         86 seconds =       1.43 minutes
Total time:
	user time   =      82.46 seconds =       1.37 minutes
	system time =       2.73 seconds =       0.05 minutes
	total time  =         86 seconds =       1.43 minutes

*** tstart() called on cqc03
*** at Fri May  3 03:01:23 2019


	Wfn Parameters:
	--------------------
	Wavefunction         = CCSD
	Number of irreps     = 8
	Number of MOs        = 272
	Number of active MOs = 262
	AO-Basis             = NONE
	Semicanonical        = false
	Reference            = RHF
	Print Level          = 1

	IRREP	# MOs	# FZDC	# DOCC	# SOCC	# VIRT	# FZVR
	-----	-----	------	------	------	------	------
	 Ag	   50	    3	    2	    0	    45	    0
	 B1g	   20	    0	    0	    0	    20	    0
	 B2g	   33	    1	    0	    0	    32	    0
	 B3g	   33	    1	    0	    0	    32	    0
	 Au	   20	    0	    0	    0	    20	    0
	 B1u	   50	    3	    1	    0	    46	    0
	 B2u	   33	    1	    1	    0	    31	    0
	 B3u	   33	    1	    1	    0	    31	    0
	Transforming integrals...
	IWL integrals will be deleted.
	(OO|OO)...
	Presorting SO-basis two-electron integrals.
	Sorting File: SO Ints (nn|nn) nbuckets = 1
	Transforming the one-electron integrals and constructing Fock matrices
	Starting first half-transformation.
	Sorting half-transformed integrals.
	First half integral transformation complete.
	Starting second half-transformation.
	Two-electron integral transformation complete.
	(OO|OV)...
	Starting second half-transformation.
	Two-electron integral transformation complete.
	(OO|VV)...
	Starting second half-transformation.
	Two-electron integral transformation complete.
	(OV|OO)...
	Starting first half-transformation.
	Sorting half-transformed integrals.
	First half integral transformation complete.
	Starting second half-transformation.
	Two-electron integral transformation complete.
	(OV|OV)...
	Starting second half-transformation.
	Two-electron integral transformation complete.
	(OV|VV)...
	Starting second half-transformation.
	Two-electron integral transformation complete.
	(VV|OO)...
	Starting first half-transformation.
	Sorting half-transformed integrals.
	First half integral transformation complete.
	Starting second half-transformation.
	Two-electron integral transformation complete.
	(VV|OV)...
	Starting second half-transformation.
	Two-electron integral transformation complete.
	(VV|VV)...
	Starting second half-transformation.
	Two-electron integral transformation complete.
	Frozen core energy     =   -723.83857368136273

	Size of irrep 0 of <ab|cd> integrals:     79.406 (MW) /    635.247 (MB)
	Size of irrep 1 of <ab|cd> integrals:     57.912 (MW) /    463.297 (MB)
	Size of irrep 2 of <ab|cd> integrals:     68.096 (MW) /    544.764 (MB)
	Size of irrep 3 of <ab|cd> integrals:     68.096 (MW) /    544.764 (MB)
	Size of irrep 4 of <ab|cd> integrals:     57.882 (MW) /    463.053 (MB)
	Size of irrep 5 of <ab|cd> integrals:     79.352 (MW) /    634.820 (MB)
	Size of irrep 6 of <ab|cd> integrals:     68.129 (MW) /    545.028 (MB)
	Size of irrep 7 of <ab|cd> integrals:     68.129 (MW) /    545.028 (MB)
	Total:                                   547.000 (MW) /   4376.002 (MB)

	Size of irrep 0 of <ia|bc> integrals:      1.764 (MW) /     14.115 (MB)
	Size of irrep 1 of <ia|bc> integrals:      0.928 (MW) /      7.427 (MB)
	Size of irrep 2 of <ia|bc> integrals:      1.329 (MW) /     10.629 (MB)
	Size of irrep 3 of <ia|bc> integrals:      1.329 (MW) /     10.629 (MB)
	Size of irrep 4 of <ia|bc> integrals:      0.943 (MW) /      7.547 (MB)
	Size of irrep 5 of <ia|bc> integrals:      1.791 (MW) /     14.324 (MB)
	Size of irrep 6 of <ia|bc> integrals:      1.312 (MW) /     10.499 (MB)
	Size of irrep 7 of <ia|bc> integrals:      1.312 (MW) /     10.499 (MB)
	Total:                                    10.709 (MW) /     85.669 (MB)

	Size of irrep 0 of tijab amplitudes:       0.062 (MW) /      0.499 (MB)
	Size of irrep 1 of tijab amplitudes:       0.015 (MW) /      0.122 (MB)
	Size of irrep 2 of tijab amplitudes:       0.017 (MW) /      0.132 (MB)
	Size of irrep 3 of tijab amplitudes:       0.017 (MW) /      0.132 (MB)
	Size of irrep 4 of tijab amplitudes:       0.000 (MW) /      0.000 (MB)
	Size of irrep 5 of tijab amplitudes:       0.036 (MW) /      0.285 (MB)
	Size of irrep 6 of tijab amplitudes:       0.033 (MW) /      0.264 (MB)
	Size of irrep 7 of tijab amplitudes:       0.033 (MW) /      0.264 (MB)
	Total:                                     0.212 (MW) /      1.698 (MB)

	Nuclear Rep. energy          =     62.00245344133592
	SCF energy                   =   -681.49752022382813
	One-electron energy          =    -34.02485649122511
	Two-electron energy          =     14.36345650742177
	Reference energy             =   -681.49752022383018

*** tstop() called on cqc03 at Fri May  3 03:02:02 2019
Module time:
	user time   =      23.88 seconds =       0.40 minutes
	system time =      14.42 seconds =       0.24 minutes
	total time  =         39 seconds =       0.65 minutes
Total time:
	user time   =     106.34 seconds =       1.77 minutes
	system time =      17.15 seconds =       0.29 minutes
	total time  =        125 seconds =       2.08 minutes

*** tstart() called on cqc03
*** at Fri May  3 03:02:02 2019

            **************************
            *                        *
            *        CCENERGY        *
            *                        *
            **************************

    Nuclear Rep. energy (wfn)     =   62.002453441335923
    SCF energy          (wfn)     = -681.497520223828133
    Reference energy    (file100) = -681.497520223830179

    Input parameters:
    -----------------
    Wave function   =     CCSD
    Reference wfn   =     RHF
    Brueckner       =     No
    Memory (Mbytes) =     32000.0
    Maxiter         =     50
    R_Convergence   =     1.0e-07
    E_Convergence   =     1.0e-06
    Restart         =     Yes
    DIIS            =     Yes
    AO Basis        =     NONE
    ABCD            =     NEW
    Cache Level     =     2
    Cache Type      =     LOW
    Print Level     =     1
    Num. of threads =     1
    # Amps to Print =     10
    Print MP2 Amps? =     No
    Analyze T2 Amps =     No
    Print Pair Ener =     No
    Local CC        =     No
    SCS-MP2         =     False
    SCSN-MP2        =     False
    SCS-CCSD        =     False

MP2 correlation energy -0.3127352970429388
                Solving CC Amplitude Equations
                ------------------------------
  Iter             Energy              RMS        T1Diag      D1Diag    New D1Diag    D2Diag
  ----     ---------------------    ---------   ----------  ----------  ----------   --------
     0        -0.312735297042810    0.000e+00    0.000000    0.000000    0.000000    0.197728
     1        -0.330892171579648    3.433e-01    0.029096    0.055078    0.055078    0.226935
     2        -0.327253857921466    5.527e-02    0.018248    0.034977    0.034977    0.222808
     3        -0.320149893955271    1.563e-02    0.018590    0.035419    0.035419    0.215744
     4        -0.320345201782815    3.853e-03    0.017982    0.034183    0.034183    0.215761
     5        -0.319990020377547    1.236e-03    0.017806    0.033807    0.033807    0.215237
     6        -0.319944178310592    3.482e-04    0.017754    0.033699    0.033699    0.215108
     7        -0.319958404664019    9.668e-05    0.017743    0.033676    0.033676    0.215099
     8        -0.319954821201539    2.824e-05    0.017740    0.033671    0.033671    0.215090
     9        -0.319954269925557    7.879e-06    0.017738    0.033668    0.033668    0.215088
    10        -0.319954282439163    2.448e-06    0.017738    0.033668    0.033668    0.215087
    11        -0.319954236780675    7.867e-07    0.017738    0.033668    0.033668    0.215087
    12        -0.319954223680583    2.115e-07    0.017738    0.033668    0.033668    0.215087
    13        -0.319954230650685    7.133e-08    0.017738    0.033668    0.033668    0.215087
    13        -0.319954230650685    7.133e-08    0.017738    0.033668    0.033668    0.215087

    Iterations converged.


    CCSD corr. energy   =   -0.319954230650685
    PPL corr. energy    =    0.113655970604199
    OS PPL corr. energy =    0.096519937437273
    SS PPL corr. energy =    0.017136033166928
    Largest TIA Amplitudes:
              3 199        -0.0208309135
              4 230        -0.0208309135
              2 153         0.0189142970
              2 150        -0.0134604976
              3 200        -0.0134510748
              4 231        -0.0134510748
              3 197        -0.0127079536
              4 228        -0.0127079535
              3 195         0.0115274990
              4 226         0.0115274990

    Largest TIjAb Amplitudes:
      3   3  97  97        -0.1511552130
      4   4  65  65        -0.1511552130
      3   4  97  65        -0.0846920732
      4   3  65  97        -0.0846920732
      1   1  97  97        -0.0543125274
      1   1  65  65        -0.0543125274
      3   3  97  98         0.0521787965
      3   3  98  97         0.0521787965
      4   4  65  66         0.0521787965
      4   4  66  65         0.0521787965

    SCF energy       (wfn)                    = -681.497520223828133
    Reference energy (file100)                = -681.497520223830179

    Opposite-spin MP2 correlation energy      =   -0.240951019773146
    Same-spin MP2 correlation energy          =   -0.071784277269664
    MP2 correlation energy                    =   -0.312735297042939
      * MP2 total energy                      = -681.810255520873170

    Opposite-spin CCSD correlation energy     =   -0.258525790934283
    Same-spin CCSD correlation energy         =   -0.061428440298402
    CCSD correlation energy                   =   -0.319954230650685
      * CCSD total energy                     = -681.817474454480816


*** tstop() called on cqc03 at Fri May  3 03:02:23 2019
Module time:
	user time   =       5.55 seconds =       0.09 minutes
	system time =      10.54 seconds =       0.18 minutes
	total time  =         21 seconds =       0.35 minutes
Total time:
	user time   =     111.89 seconds =       1.86 minutes
	system time =      27.69 seconds =       0.46 minutes
	total time  =        146 seconds =       2.43 minutes

*** Psi4 exiting successfully. Buy a developer a beer!
