
    -----------------------------------------------------------------------
          Psi4: An Open-Source Ab Initio Electronic Structure Package
                               Psi4 1.2a1.dev938 

                         Git: Rev {HEAD} fc51d9a dirty


    R. M. Parrish, L. A. Burns, D. G. A. Smith, A. C. Simmonett,
    A. E. DePrince III, E. G. Hohenstein, U. Bozkaya, A. Yu. Sokolov,
    R. Di Remigio, R. M. Richard, J. F. Gonthier, A. M. James,
    H. R. McAlexander, A. Kumar, M. Saitow, X. Wang, B. P. Pritchard,
    P. Verma, H. F. Schaefer III, K. Patkowski, R. A. King, E. F. Valeev,
    F. A. Evangelista, J. M. Turney, T. D. Crawford, and C. D. Sherrill,
    J. Chem. Theory Comput. 13(7) pp 3185--3197 (2017).
    (doi: 10.1021/acs.jctc.7b00174)

    -----------------------------------------------------------------------


    Psi4 started on: Thursday, 20 August 2020 08:43PM

    Process ID: 424482
    PSIDATADIR: /home/irmler/Programs/psi4/beforeGrueneis3/stage/usr/local/psi4/share/psi4
    Memory:     500.0 MiB
    Threads:    4
    
  ==> Input File <==

--------------------------------------------------------------------------
# Any line starting with the # character is a comment line
memory 250000 mb
molecule molecule{
1 2
C          0.0000000000        0.0000000000        0.6448765675
O          0.0000000000        0.0000000000       -0.4841189327
}

set {
  reference uhf
  basis aug-cc-pv(q+d)z
  scf_type OUT_OF_CORE
  freeze_core true
}

energy('ccsd')
--------------------------------------------------------------------------

  Memory set to 232.831 GiB by Python driver.

*** tstart() called on cqc05
*** at Thu Aug 20 20:43:09 2020

   => Loading Basis Set <=

    Name: AUG-CC-PV(Q+D)Z
    Role: ORBITAL
    Keyword: BASIS
    atoms 1 entry C          line   319 file /home/irmler/Programs/psi4/beforeGrueneis3/stage/usr/local/psi4/share/psi4/basis/aug-cc-pv_qpd_z.gbs 
    atoms 2 entry O          line   439 file /home/irmler/Programs/psi4/beforeGrueneis3/stage/usr/local/psi4/share/psi4/basis/aug-cc-pv_qpd_z.gbs 


         ---------------------------------------------------------
                                   SCF
            by Justin Turney, Rob Parrish, Andy Simmonett
                             and Daniel Smith
                              UHF Reference
                        4 Threads, 238418 MiB Core
         ---------------------------------------------------------

  ==> Geometry <==

    Molecular point group: c2v
    Full point group: C_inf_v

    Geometry (in Angstrom), charge = 1, multiplicity = 2:

       Center              X                  Y                   Z               Mass       
    ------------   -----------------  -----------------  -----------------  -----------------
           C          0.000000000000     0.000000000000     0.645052391728    12.000000000000
           O          0.000000000000     0.000000000000    -0.483943108472    15.994914619560

  Running in c2v symmetry.

  Rotational constants: A = ************  B =      1.92898  C =      1.92898 [cm^-1]
  Rotational constants: A = ************  B =  57829.40836  C =  57829.40836 [MHz]
  Nuclear repulsion =   22.498323516630784

  Charge       = 1
  Multiplicity = 2
  Electrons    = 13
  Nalpha       = 7
  Nbeta        = 6

  ==> Algorithm <==

  SCF Algorithm Type is OUT_OF_CORE.
  DIIS enabled.
  MOM disabled.
  Fractional occupation disabled.
  Guess Type is GWH.
  Energy threshold   = 1.00e-08
  Density threshold  = 1.00e-08
  Integral threshold = 0.00e+00

  ==> Primary Basis <==

  Basis Set: AUG-CC-PV(Q+D)Z
    Blend: AUG-CC-PV(Q+D)Z
    Number of shells: 40
    Number of basis function: 160
    Number of Cartesian functions: 210
    Spherical Harmonics?: true
    Max angular momentum: 4

  ==> Pre-Iterations <==

   -------------------------------------------------------
    Irrep   Nso     Nmo     Nalpha   Nbeta   Ndocc  Nsocc
   -------------------------------------------------------
     A1        62      62       0       0       0       0
     A2        22      22       0       0       0       0
     B1        38      38       0       0       0       0
     B2        38      38       0       0       0       0
   -------------------------------------------------------
    Total     160     160       7       6       6       1
   -------------------------------------------------------

  ==> Integral Setup <==

  ==> DiskJK: Disk-Based J/K Matrices <==

    J tasked:                  Yes
    K tasked:                  Yes
    wK tasked:                  No
    Memory (MB):            178813
    Schwarz Cutoff:          1E-12

  Minimum eigenvalue in the overlap matrix is 9.8753871196E-05.
  Using Symmetric Orthogonalization.

  SCF Guess: Generalized Wolfsberg-Helmholtz.

  ==> Iterations <==

                        Total Energy        Delta E     RMS |[F,P]|

   @UHF iter   1:  -103.49911530652707   -1.03499e+02   1.84939e-01 
   @UHF iter   2:  -103.21625270035301    2.82863e-01   7.40950e-02 DIIS
   @UHF iter   3:  -107.21836088046771   -4.00211e+00   7.70392e-02 DIIS
   @UHF iter   4:  -111.56882016982433   -4.35046e+00   3.02089e-02 DIIS
   @UHF iter   5:  -112.17373406629093   -6.04914e-01   1.16651e-02 DIIS
   @UHF iter   6:  -112.29964281872827   -1.25909e-01   1.30939e-03 DIIS
   @UHF iter   7:  -112.30257381372493   -2.93099e-03   6.16099e-04 DIIS
   @UHF iter   8:  -112.30368946084467   -1.11565e-03   4.94789e-04 DIIS
   @UHF iter   9:  -112.30507366295811   -1.38420e-03   3.94162e-04 DIIS
   @UHF iter  10:  -112.30800463151537   -2.93097e-03   2.01757e-04 DIIS
   @UHF iter  11:  -112.30873433331081   -7.29702e-04   1.18803e-04 DIIS
   @UHF iter  12:  -112.30872757983440    6.75348e-06   5.09332e-05 DIIS
   @UHF iter  13:  -112.30875024133817   -2.26615e-05   1.18011e-05 DIIS
   @UHF iter  14:  -112.30875107701596   -8.35678e-07   3.01629e-06 DIIS
   @UHF iter  15:  -112.30875107597291    1.04305e-09   1.28497e-06 DIIS
   @UHF iter  16:  -112.30875108959388   -1.36210e-08   9.55139e-08 DIIS
   @UHF iter  17:  -112.30875108964999   -5.61045e-11   2.50525e-08 DIIS
   @UHF iter  18:  -112.30875108965513   -5.14433e-12   1.66866e-09 DIIS

  ==> Post-Iterations <==

   @Spin Contamination Metric:   2.598928207E-01
   @S^2 Expected:                7.500000000E-01
   @S^2 Observed:                1.009892821E+00
   @S   Expected:                5.000000000E-01
   @S   Observed:                5.000000000E-01

    Orbital Energies (a.u.)
    -----------------------

    Alpha Occupied:                                                       

       1A1   -21.072733     2A1   -11.861630     3A1    -1.887967  
       4A1    -1.207604     5A1    -1.077076     1B2    -0.988311  
       1B1    -0.988311  

    Alpha Virtual:                                                        

       2B2    -0.246437     2B1    -0.246437     6A1    -0.121532  
       7A1    -0.090619     3B1    -0.085007     3B2    -0.085007  
       8A1    -0.016231     4B1     0.006472     4B2     0.006472  
       9A1     0.015737     1A2     0.015737    10A1     0.037642  
      11A1     0.090523     5B1     0.096494     5B2     0.096494  
       6B1     0.161611     6B2     0.161611    12A1     0.163785  
      13A1     0.265023    14A1     0.300804     2A2     0.300804  
      15A1     0.339137     7B1     0.388774     7B2     0.388774  
       3A2     0.451122    16A1     0.451122     8B1     0.481597  
       8B2     0.481597    17A1     0.515123     9B2     0.531227  
       9B1     0.531227    18A1     0.611100    19A1     0.627165  
       4A2     0.627165    10B1     0.627357    10B2     0.627357  
      20A1     0.639195    11B2     0.766471    11B1     0.766471  
      21A1     0.852629    22A1     1.160798    12B1     1.170893  
      12B2     1.170893    23A1     1.240693     5A2     1.240693  
      13B1     1.246342    13B2     1.246342    24A1     1.393502  
      14B1     1.467557    14B2     1.467557    25A1     1.470799  
       6A2     1.470799    26A1     1.476081    15B1     1.646050  
      15B2     1.646050    27A1     1.765378    28A1     1.774221  
       7A2     1.774221     8A2     1.780652    29A1     1.780652  
      16B1     1.874346    16B2     1.874346    30A1     1.914678  
      17B1     1.932982    17B2     1.932982    31A1     1.990195  
       9A2     1.990195    18B2     2.027079    18B1     2.027079  
      32A1     2.136188    19B2     2.254425    19B1     2.254425  
      20B2     2.477855    20B1     2.477855    33A1     2.629736  
      34A1     2.666780    10A2     2.666780    35A1     3.137832  
      36A1     3.402046    11A2     3.402046    21B2     3.425109  
      21B1     3.425109    37A1     3.673476    22B1     3.754789  
      22B2     3.754789    12A2     3.863626    38A1     3.863626  
      23B2     3.889893    23B1     3.889893    24B1     3.952297  
      24B2     3.952297    39A1     3.997452    13A2     4.050119  
      40A1     4.050119    41A1     4.186556    25B2     4.388177  
      25B1     4.388177    42A1     4.760003    43A1     4.788073  
      14A2     4.788073    26B2     4.790855    26B1     4.790855  
      44A1     5.486819    15A2     5.486819    45A1     5.541024  
      27B2     5.705351    27B1     5.705351    28B1     5.767047  
      28B2     5.767047    16A2     5.822206    46A1     5.822206  
      47A1     5.922744    29B2     5.930487    29B1     5.930487  
      30B1     6.000320    30B2     6.000320    17A2     6.164567  
      48A1     6.164567    49A1     6.841579    50A1     6.924581  
      18A2     6.924581    31B2     7.058805    31B1     7.058805  
      51A1     7.814166    52A1     8.115480    32B2     8.208430  
      32B1     8.208430    19A2    10.238778    53A1    10.238778  
      33B2    10.515451    33B1    10.515451    54A1    10.767127  
      20A2    10.767127    34B2    10.769153    34B1    10.769153  
      55A1    11.008913    35B2    11.021123    35B1    11.021123  
      36B2    11.486970    36B1    11.486970    56A1    11.675100  
      57A1    11.914624    21A2    11.914624    37B2    12.369735  
      37B1    12.369735    22A2    12.543369    58A1    12.543369  
      59A1    13.433636    38B2    13.831098    38B1    13.831098  
      60A1    14.152558    61A1    24.651608    62A1    42.877213  

    Beta Occupied:                                                        

       1A1   -21.102119     2A1   -11.800193     3A1    -1.926818  
       4A1    -1.165011     1B2    -1.060202     1B1    -1.060202  

    Beta Virtual:                                                         

       5A1    -0.404345     2B1    -0.178289     2B2    -0.178289  
       6A1    -0.101718     7A1    -0.086101     3B1    -0.071673  
       3B2    -0.071673     8A1    -0.009562     4B1     0.002091  
       4B2     0.002091     9A1     0.021139     1A2     0.021139  
      10A1     0.044989    11A1     0.105090     5B1     0.106439  
       5B2     0.106439     6B1     0.177742     6B2     0.177742  
      12A1     0.182320    13A1     0.290218    14A1     0.301914  
       2A2     0.301914    15A1     0.388311     7B1     0.390469  
       7B2     0.390469     3A2     0.482227    16A1     0.482227  
       8B1     0.486987     8B2     0.486987    17A1     0.532167  
       9B1     0.542791     9B2     0.542791    18A1     0.618890  
      10B1     0.626966    10B2     0.626966    19A1     0.633118  
       4A2     0.633118    20A1     0.646813    11B2     0.778586  
      11B1     0.778586    21A1     0.880571    12B1     1.168945  
      12B2     1.168945    22A1     1.180010    23A1     1.218908  
       5A2     1.218908    13B1     1.263151    13B2     1.263151  
      24A1     1.401252    25A1     1.473567     6A2     1.473567  
      26A1     1.497487    14B1     1.501611    14B2     1.501611  
      15B1     1.664392    15B2     1.664392    27A1     1.784706  
       7A2     1.784706    28A1     1.834907     8A2     1.848104  
      29A1     1.848104    16B1     1.905308    16B2     1.905308  
      30A1     1.953843    17B1     1.963996    17B2     1.963996  
       9A2     2.010793    31A1     2.010793    18B1     2.037416  
      18B2     2.037416    32A1     2.157333    19B2     2.251059  
      19B1     2.251059    20B2     2.479075    20B1     2.479075  
      33A1     2.641507    34A1     2.675306    10A2     2.675306  
      35A1     3.166872    36A1     3.396315    11A2     3.396315  
      21B2     3.423781    21B1     3.423781    37A1     3.665311  
      22B1     3.732599    22B2     3.732599    12A2     3.841705  
      38A1     3.841705    23B2     3.888475    23B1     3.888475  
      24B1     3.950520    24B2     3.950520    39A1     3.989960  
      13A2     4.018860    40A1     4.018860    41A1     4.195832  
      25B2     4.403252    25B1     4.403252    42A1     4.778641  
      43A1     4.789935    14A2     4.789935    26B2     4.791091  
      26B1     4.791091    44A1     5.517255    15A2     5.517255  
      45A1     5.552673    27B2     5.736444    27B1     5.736444  
      28B1     5.823441    28B2     5.823441    16A2     5.874337  
      46A1     5.874337    29B2     5.953476    29B1     5.953476  
      47A1     5.979748    30B1     6.047771    30B2     6.047771  
      17A2     6.204155    48A1     6.204155    49A1     6.860816  
      50A1     6.951104    18A2     6.951104    31B2     7.096097  
      31B1     7.096097    51A1     7.846267    52A1     8.152482  
      32B2     8.229286    32B1     8.229286    19A2    10.213674  
      53A1    10.213674    33B2    10.498523    33B1    10.498523  
      34B2    10.728386    34B1    10.728386    20A2    10.755550  
      54A1    10.755550    55A1    11.002282    35B2    11.012714  
      35B1    11.012714    36B2    11.443277    36B1    11.443277  
      56A1    11.659448    57A1    11.887749    21A2    11.887749  
      37B2    12.354965    37B1    12.354965    22A2    12.492953  
      58A1    12.492953    59A1    13.433768    38B2    13.813001  
      38B1    13.813001    60A1    14.149528    61A1    24.685630  
      62A1    42.860083  

    Final Occupation by Irrep:
             A1    A2    B1    B2 
    DOCC [     4,    0,    1,    1 ]
    SOCC [     1,    0,    0,    0 ]

  Energy converged.

  @UHF Final Energy:  -112.30875108965513

   => Energetics <=

    Nuclear Repulsion Energy =             22.4983235166307836
    One-Electron Energy =                -192.4159732782113963
    Two-Electron Energy =                  57.6088986719254734
    PCM Polarization Energy =               0.0000000000000000
    Total Energy =                       -112.3087510896551322

    Alert: EFP and PCM quantities not currently incorporated into SCF psivars.
  UHF NO Occupations:
  HONO-2 :    1 B2 1.9332969
  HONO-1 :    1 B1 1.9332969
  HONO-0 :    5 A1 1.0000000
  LUNO+0 :    2 B1 0.0667031
  LUNO+1 :    2 B2 0.0667031
  LUNO+2 :    6 A1 0.0007737
  LUNO+3 :    7 A1 0.0002149



Properties will be evaluated at   0.000000,   0.000000,   0.000000 Bohr

Properties computed using the SCF density matrix

  Nuclear Dipole Moment: (a.u.)
     X:     0.0000      Y:     0.0000      Z:    -0.0023

  Electronic Dipole Moment: (a.u.)
     X:     0.0000      Y:     0.0000      Z:     1.2005

  Dipole Moment: (a.u.)
     X:     0.0000      Y:     0.0000      Z:     1.1982     Total:     1.1982

  Dipole Moment: (Debye)
     X:     0.0000      Y:     0.0000      Z:     3.0455     Total:     3.0455


*** tstop() called on cqc05 at Thu Aug 20 20:43:25 2020
Module time:
	user time   =      15.89 seconds =       0.26 minutes
	system time =       0.95 seconds =       0.02 minutes
	total time  =         16 seconds =       0.27 minutes
Total time:
	user time   =      15.89 seconds =       0.26 minutes
	system time =       0.95 seconds =       0.02 minutes
	total time  =         16 seconds =       0.27 minutes

*** tstart() called on cqc05
*** at Thu Aug 20 20:43:25 2020


	Wfn Parameters:
	--------------------
	Wavefunction         = CCSD
	Number of irreps     = 4
	Number of MOs        = 160
	Number of active MOs = 158
	AO-Basis             = NONE
	Semicanonical        = false
	Reference            = UHF
	Print Level          = 1

	IRREP	# MOs	# FZDC	# DOCC	# SOCC	# VIRT	# FZVR
	-----	-----	------	------	------	------	------
	 A1	   62	    2	    2	    1	    57	    0
	 A2	   22	    0	    0	    0	    22	    0
	 B1	   38	    0	    1	    0	    37	    0
	 B2	   38	    0	    1	    0	    37	    0
	Transforming integrals...
	IWL integrals will be deleted.
	(OO|OO)...
	Presorting SO-basis two-electron integrals.
	Sorting File: SO Ints (nn|nn) nbuckets = 1
	Transforming the one-electron integrals and constructing Fock matrices
	Starting AA/AB first half-transformation.
	Sorting AA/AB half-transformed integrals.
	Starting BB first half-transformation.
	Sorting BB half-transformed integrals.
	First half integral transformation complete.
	Starting AA second half-transformation.
	Starting AB second half-transformation.
	Starting BB second half-transformation.
	Two-electron integral transformation complete.
	(OO|OV)...
	Starting AA second half-transformation.
	Starting AB second half-transformation.
	Starting BB second half-transformation.
	Two-electron integral transformation complete.
	(OO|VV)...
	Starting AA second half-transformation.
	Starting AB second half-transformation.
	Starting BB second half-transformation.
	Two-electron integral transformation complete.
	(OV|OO)...
	Starting AA/AB first half-transformation.
	Sorting AA/AB half-transformed integrals.
	Starting BB first half-transformation.
	Sorting BB half-transformed integrals.
	First half integral transformation complete.
	Starting AA second half-transformation.
	Starting AB second half-transformation.
	Starting BB second half-transformation.
	Two-electron integral transformation complete.
	(OV|OV)...
	Starting AA second half-transformation.
	Starting AB second half-transformation.
	Starting BB second half-transformation.
	Two-electron integral transformation complete.
	(OV|VV)...
	Starting AA second half-transformation.
	Starting AB second half-transformation.
	Starting BB second half-transformation.
	Two-electron integral transformation complete.
	(VV|OO)...
	Starting AA/AB first half-transformation.
	Sorting AA/AB half-transformed integrals.
	Starting BB first half-transformation.
	Sorting BB half-transformed integrals.
	First half integral transformation complete.
	Starting AA second half-transformation.
	Starting AB second half-transformation.
	Starting BB second half-transformation.
	Two-electron integral transformation complete.
	(VV|OV)...
	Starting AA second half-transformation.
	Starting AB second half-transformation.
	Starting BB second half-transformation.
	Two-electron integral transformation complete.
	(VV|VV)...
	Starting AA second half-transformation.
	Starting AB second half-transformation.
	Starting BB second half-transformation.
	Two-electron integral transformation complete.
	Frozen core energy     =   -102.71591812319176

	Size of irrep 0 of <AB|CD> integrals:      9.979 (MW) /     79.834 (MB)
	Size of irrep 1 of <AB|CD> integrals:      6.880 (MW) /     55.041 (MB)
	Size of irrep 2 of <AB|CD> integrals:      8.544 (MW) /     68.351 (MB)
	Size of irrep 3 of <AB|CD> integrals:      8.544 (MW) /     68.351 (MB)
	Total:                                    33.947 (MW) /    271.578 (MB)

	Size of irrep 0 of <ab|cd> integrals:     10.343 (MW) /     82.741 (MB)
	Size of irrep 1 of <ab|cd> integrals:      6.996 (MW) /     55.968 (MB)
	Size of irrep 2 of <ab|cd> integrals:      8.762 (MW) /     70.093 (MB)
	Size of irrep 3 of <ab|cd> integrals:      8.762 (MW) /     70.093 (MB)
	Total:                                    34.862 (MW) /    278.895 (MB)

	Size of irrep 0 of <Ab|Cd> integrals:     42.615 (MW) /    340.918 (MB)
	Size of irrep 1 of <Ab|Cd> integrals:     27.752 (MW) /    222.015 (MB)
	Size of irrep 2 of <Ab|Cd> integrals:     34.610 (MW) /    276.878 (MB)
	Size of irrep 3 of <Ab|Cd> integrals:     34.610 (MW) /    276.878 (MB)
	Total:                                   139.586 (MW) /   1116.688 (MB)

	Size of irrep 0 of <IA|BC> integrals:      1.585 (MW) /     12.683 (MB)
	Size of irrep 1 of <IA|BC> integrals:      0.734 (MW) /      5.876 (MB)
	Size of irrep 2 of <IA|BC> integrals:      1.111 (MW) /      8.886 (MB)
	Size of irrep 3 of <IA|BC> integrals:      1.111 (MW) /      8.886 (MB)
	Total:                                     4.541 (MW) /     36.331 (MB)

	Size of irrep 0 of <ia|bc> integrals:      1.251 (MW) /     10.011 (MB)
	Size of irrep 1 of <ia|bc> integrals:      0.624 (MW) /      4.994 (MB)
	Size of irrep 2 of <ia|bc> integrals:      0.912 (MW) /      7.293 (MB)
	Size of irrep 3 of <ia|bc> integrals:      0.912 (MW) /      7.293 (MB)
	Total:                                     3.699 (MW) /     29.591 (MB)

	Size of irrep 0 of <Ia|Bc> integrals:      1.619 (MW) /     12.952 (MB)
	Size of irrep 1 of <Ia|Bc> integrals:      0.738 (MW) /      5.900 (MB)
	Size of irrep 2 of <Ia|Bc> integrals:      1.124 (MW) /      8.989 (MB)
	Size of irrep 3 of <Ia|Bc> integrals:      1.124 (MW) /      8.989 (MB)
	Total:                                     4.604 (MW) /     36.830 (MB)

	Size of irrep 0 of <iA|bC> integrals:      1.227 (MW) /      9.818 (MB)
	Size of irrep 1 of <iA|bC> integrals:      0.622 (MW) /      4.973 (MB)
	Size of irrep 2 of <iA|bC> integrals:      0.900 (MW) /      7.201 (MB)
	Size of irrep 3 of <iA|bC> integrals:      0.900 (MW) /      7.201 (MB)
	Total:                                     3.649 (MW) /     29.193 (MB)

	Size of irrep 0 of tIjAb amplitudes:       0.052 (MW) /      0.418 (MB)
	Size of irrep 1 of tIjAb amplitudes:       0.011 (MW) /      0.084 (MB)
	Size of irrep 2 of tIjAb amplitudes:       0.029 (MW) /      0.235 (MB)
	Size of irrep 3 of tIjAb amplitudes:       0.029 (MW) /      0.235 (MB)
	Total:                                     0.122 (MW) /      0.973 (MB)

	Nuclear Rep. energy          =     22.49832351663078
	SCF energy                   =   -112.30875108965513
	One-electron energy          =    -52.82081206088569
	Two-electron (AA) energy     =      4.83627794009481
	Two-electron (BB) energy     =      3.68776104518795
	Two-electron (AB) energy     =     12.20561659250882
	Two-electron energy          =     20.72965557779158
	Reference energy             =   -112.30875108965508

*** tstop() called on cqc05 at Thu Aug 20 20:43:46 2020
Module time:
	user time   =      13.20 seconds =       0.22 minutes
	system time =       8.28 seconds =       0.14 minutes
	total time  =         21 seconds =       0.35 minutes
Total time:
	user time   =      29.09 seconds =       0.48 minutes
	system time =       9.23 seconds =       0.15 minutes
	total time  =         37 seconds =       0.62 minutes

*** tstart() called on cqc05
*** at Thu Aug 20 20:43:46 2020

            **************************
            *                        *
            *        CCENERGY        *
            *                        *
            **************************

    Nuclear Rep. energy (wfn)     =   22.498323516630784
    SCF energy          (wfn)     = -112.308751089655132
    Reference energy    (file100) = -112.308751089655075

    Input parameters:
    -----------------
    Wave function   =     CCSD
    Reference wfn   =     UHF
    Brueckner       =     No
    Memory (Mbytes) =     250000.0
    Maxiter         =     50
    R_Convergence   =     1.0e-07
    E_Convergence   =     1.0e-06
    Restart         =     Yes
    DIIS            =     Yes
    AO Basis        =     NONE
    ABCD            =     NEW
    Cache Level     =     2
    Cache Type      =     LRU
    Print Level     =     1
    Num. of threads =     4
    # Amps to Print =     10
    Print MP2 Amps? =     No
    Analyze T2 Amps =     No
    Print Pair Ener =     No
    Local CC        =     No
    SCS-MP2         =     False
    SCSN-MP2        =     False
    SCS-CCSD        =     False

MP2 correlation energy -0.3334979190198649
                Solving CC Amplitude Equations
                ------------------------------
  Iter             Energy              RMS        T1Diag      D1Diag    New D1Diag    D2Diag
  ----     ---------------------    ---------   ----------  ----------  ----------   --------
     0        -0.333497919019867    0.000e+00    0.000000    0.000000    0.000000    0.000000
     1        -0.320334232486775    1.062e-01    0.031113    0.000000    0.000000    0.000000
     2        -0.336473980517559    4.720e-02    0.039832    0.000000    0.000000    0.000000
     3        -0.345807720375949    3.844e-02    0.065116    0.000000    0.000000    0.000000
     4        -0.347458755231681    1.565e-02    0.076721    0.000000    0.000000    0.000000
     5        -0.347862663014587    6.961e-03    0.081442    0.000000    0.000000    0.000000
     6        -0.348019278245841    2.246e-03    0.081739    0.000000    0.000000    0.000000
     7        -0.348039714521778    1.224e-03    0.081867    0.000000    0.000000    0.000000
     8        -0.348058318227477    4.889e-04    0.081919    0.000000    0.000000    0.000000
     9        -0.348070094983926    1.826e-04    0.081932    0.000000    0.000000    0.000000
    10        -0.348069393729320    6.520e-05    0.081927    0.000000    0.000000    0.000000
    11        -0.348070841138266    3.228e-05    0.081930    0.000000    0.000000    0.000000
    12        -0.348071449772756    1.703e-05    0.081931    0.000000    0.000000    0.000000
    13        -0.348071538319300    9.539e-06    0.081933    0.000000    0.000000    0.000000
    14        -0.348071647760893    3.231e-06    0.081934    0.000000    0.000000    0.000000
    15        -0.348071585758288    1.535e-06    0.081935    0.000000    0.000000    0.000000
    16        -0.348071626625174    3.692e-07    0.081935    0.000000    0.000000    0.000000
    17        -0.348071640147411    1.879e-07    0.081935    0.000000    0.000000    0.000000
    18        -0.348071642045083    5.753e-08    0.081935    0.000000    0.000000    0.000000
    18        -0.348071642045083    5.753e-08    0.081935    0.000000    0.000000    0.000000

    Iterations converged.


    CCSD corr. energy   =   -0.348071642045083
    PPL corr. energy    =    0.088245893110215
    OS PPL corr. energy =    0.072935548264403
    SS PPL corr. energy =    0.015310344845810
    Largest TIA Amplitudes:
              3  79        -0.0827388023
              4 116        -0.0827388023
              3  81        -0.0172782123
              4 118        -0.0172782123
              3  86        -0.0168362130
              4 123        -0.0168362130
              3  88        -0.0151650984
              4 125        -0.0151650984
              3  87         0.0148678911
              4 124         0.0148678911

    Largest Tia Amplitudes:
              2  80         0.1123606045
              3 117         0.1123606045
              1   0         0.0980381793
              2  81         0.0408362099
              3 118         0.0408362099
              2  83         0.0262402275
              3 120         0.0262402275
              2  84         0.0251257193
              3 121         0.0251257193
              1   1        -0.0175849444

    Largest TIJAB Amplitudes:
      4   3 116  79        -0.0697842734
      3   2  79   9         0.0240120947
      4   2 116   9         0.0240120947
      3   2  79  15        -0.0201233837
      4   2 116  15        -0.0201233837
      4   3 116  82        -0.0154361737
      4   3 119  79        -0.0154361737
      3   2  79   7         0.0144364074
      4   2 116   7         0.0144364074
      4   3 116  88        -0.0115489293

    Largest Tijab Amplitudes:
      3   2 117  80        -0.0282232142
      2   1  80   0        -0.0161982998
      3   1 117   0        -0.0161982998
      2   1  80  16        -0.0145098269
      3   1 117  16        -0.0145098269
      2   1  80  12         0.0091923022
      3   1 117  12         0.0091923022
      3   2 117  83        -0.0087666105
      3   2 120  80        -0.0087666105
      3   2 117  81        -0.0086835794

    Largest TIjAb Amplitudes:
      3   2  79  80        -0.1202761254
      4   3 116 117        -0.1202761254
      3   3  79 117        -0.0739786340
      4   2 116  80        -0.0739786340
      3   1  79   0        -0.0624403444
      4   1 116   0        -0.0624403444
      1   2  79   0         0.0592884874
      1   3 116   0         0.0592884874
      2   2  79   0         0.0454662428
      2   3 116   0         0.0454662428

    SCF energy       (wfn)                    = -112.308751089655132
    Reference energy (file100)                = -112.308751089655075

    Opposite-spin MP2 correlation energy      =   -0.242477970461915
    Same-spin MP2 correlation energy          =   -0.091019948557931
    MP2 correlation energy                    =   -0.333497919019865
      * MP2 total energy                      = -112.642249008674938

    Opposite-spin CCSD correlation energy     =   -0.272942009222053
    Same-spin CCSD correlation energy         =   -0.075129605464881
    CCSD correlation energy                   =   -0.348071642045083
      * CCSD total energy                     = -112.656822731700160


*** tstop() called on cqc05 at Thu Aug 20 20:44:14 2020
Module time:
	user time   =      12.77 seconds =       0.21 minutes
	system time =      12.78 seconds =       0.21 minutes
	total time  =         28 seconds =       0.47 minutes
Total time:
	user time   =      41.86 seconds =       0.70 minutes
	system time =      22.01 seconds =       0.37 minutes
	total time  =         65 seconds =       1.08 minutes

*** Psi4 exiting successfully. Buy a developer a beer!
