
    -----------------------------------------------------------------------
          Psi4: An Open-Source Ab Initio Electronic Structure Package
                               Psi4 1.2a1.dev938 

                         Git: Rev {HEAD} fc51d9a dirty


    R. M. Parrish, L. A. Burns, D. G. A. Smith, A. C. Simmonett,
    A. E. DePrince III, E. G. Hohenstein, U. Bozkaya, A. Yu. Sokolov,
    R. Di Remigio, R. M. Richard, J. F. Gonthier, A. M. James,
    H. R. McAlexander, A. Kumar, M. Saitow, X. Wang, B. P. Pritchard,
    P. Verma, H. F. Schaefer III, K. Patkowski, R. A. King, E. F. Valeev,
    F. A. Evangelista, J. M. Turney, T. D. Crawford, and C. D. Sherrill,
    J. Chem. Theory Comput. 13(7) pp 3185--3197 (2017).
    (doi: 10.1021/acs.jctc.7b00174)

    -----------------------------------------------------------------------


    Psi4 started on: Thursday, 20 August 2020 07:53PM

    Process ID: 422480
    PSIDATADIR: /home/irmler/Programs/psi4/beforeGrueneis3/stage/usr/local/psi4/share/psi4
    Memory:     500.0 MiB
    Threads:    4
    
  ==> Input File <==

--------------------------------------------------------------------------
# Any line starting with the # character is a comment line
memory 250000 mb
molecule molecule{
1 2
C          0.0000000000        0.0000000000        0.6448765675
O          0.0000000000        0.0000000000       -0.4841189327
}

set {
  reference uhf
  basis aug-cc-pv(d+d)z
  scf_type OUT_OF_CORE
  freeze_core true
}

energy('ccsd')
--------------------------------------------------------------------------

  Memory set to 232.831 GiB by Python driver.

*** tstart() called on cqc05
*** at Thu Aug 20 19:53:51 2020

   => Loading Basis Set <=

    Name: AUG-CC-PV(D+D)Z
    Role: ORBITAL
    Keyword: BASIS
    atoms 1 entry C          line   198 file /home/irmler/Programs/psi4/beforeGrueneis3/stage/usr/local/psi4/share/psi4/basis/aug-cc-pv_dpd_z.gbs 
    atoms 2 entry O          line   270 file /home/irmler/Programs/psi4/beforeGrueneis3/stage/usr/local/psi4/share/psi4/basis/aug-cc-pv_dpd_z.gbs 


         ---------------------------------------------------------
                                   SCF
            by Justin Turney, Rob Parrish, Andy Simmonett
                             and Daniel Smith
                              UHF Reference
                        4 Threads, 238418 MiB Core
         ---------------------------------------------------------

  ==> Geometry <==

    Molecular point group: c2v
    Full point group: C_inf_v

    Geometry (in Angstrom), charge = 1, multiplicity = 2:

       Center              X                  Y                   Z               Mass       
    ------------   -----------------  -----------------  -----------------  -----------------
           C          0.000000000000     0.000000000000     0.645052391728    12.000000000000
           O          0.000000000000     0.000000000000    -0.483943108472    15.994914619560

  Running in c2v symmetry.

  Rotational constants: A = ************  B =      1.92898  C =      1.92898 [cm^-1]
  Rotational constants: A = ************  B =  57829.40836  C =  57829.40836 [MHz]
  Nuclear repulsion =   22.498323516630784

  Charge       = 1
  Multiplicity = 2
  Electrons    = 13
  Nalpha       = 7
  Nbeta        = 6

  ==> Algorithm <==

  SCF Algorithm Type is OUT_OF_CORE.
  DIIS enabled.
  MOM disabled.
  Fractional occupation disabled.
  Guess Type is GWH.
  Energy threshold   = 1.00e-08
  Density threshold  = 1.00e-08
  Integral threshold = 0.00e+00

  ==> Primary Basis <==

  Basis Set: AUG-CC-PV(D+D)Z
    Blend: AUG-CC-PV(D+D)Z
    Number of shells: 18
    Number of basis function: 46
    Number of Cartesian functions: 50
    Spherical Harmonics?: true
    Max angular momentum: 2

  ==> Pre-Iterations <==

   -------------------------------------------------------
    Irrep   Nso     Nmo     Nalpha   Nbeta   Ndocc  Nsocc
   -------------------------------------------------------
     A1        22      22       0       0       0       0
     A2         4       4       0       0       0       0
     B1        10      10       0       0       0       0
     B2        10      10       0       0       0       0
   -------------------------------------------------------
    Total      46      46       7       6       6       1
   -------------------------------------------------------

  ==> Integral Setup <==

  ==> DiskJK: Disk-Based J/K Matrices <==

    J tasked:                  Yes
    K tasked:                  Yes
    wK tasked:                  No
    Memory (MB):            178813
    Schwarz Cutoff:          1E-12

  Minimum eigenvalue in the overlap matrix is 2.4893569132E-03.
  Using Symmetric Orthogonalization.

  SCF Guess: Generalized Wolfsberg-Helmholtz.

  ==> Iterations <==

                        Total Energy        Delta E     RMS |[F,P]|

   @UHF iter   1:  -111.00307448759183   -1.11003e+02   1.12326e-01 
   @UHF iter   2:  -110.01981580800648    9.83259e-01   1.15251e-01 DIIS
   @UHF iter   3:  -112.09747594494273   -2.07766e+00   3.20811e-02 DIIS
   @UHF iter   4:  -112.25566904008465   -1.58193e-01   5.00822e-03 DIIS
   @UHF iter   5:  -112.26436040020894   -8.69136e-03   1.90403e-03 DIIS
   @UHF iter   6:  -112.26703342798551   -2.67303e-03   1.35208e-03 DIIS
   @UHF iter   7:  -112.26899116248399   -1.95773e-03   1.01773e-03 DIIS
   @UHF iter   8:  -112.27104482906992   -2.05367e-03   8.28347e-04 DIIS
   @UHF iter   9:  -112.27310949055148   -2.06466e-03   4.77737e-04 DIIS
   @UHF iter  10:  -112.27373240871120   -6.22918e-04   9.45468e-05 DIIS
   @UHF iter  11:  -112.27373122163196    1.18708e-06   4.46850e-05 DIIS
   @UHF iter  12:  -112.27373559278593   -4.37115e-06   1.11474e-05 DIIS
   @UHF iter  13:  -112.27373568303227   -9.02463e-08   2.26741e-06 DIIS
   @UHF iter  14:  -112.27373568654022   -3.50795e-09   1.98695e-06 DIIS
   @UHF iter  15:  -112.27373568929430   -2.75408e-09   2.23035e-07 DIIS
   @UHF iter  16:  -112.27373568932543   -3.11360e-11   2.49984e-08 DIIS
   @UHF iter  17:  -112.27373568932622   -7.81597e-13   4.13246e-09 DIIS

  ==> Post-Iterations <==

   @Spin Contamination Metric:   2.583970069E-01
   @S^2 Expected:                7.500000000E-01
   @S^2 Observed:                1.008397007E+00
   @S   Expected:                5.000000000E-01
   @S   Observed:                5.000000000E-01

    Orbital Energies (a.u.)
    -----------------------

    Alpha Occupied:                                                       

       1A1   -21.085277     2A1   -11.873904     3A1    -1.895541  
       4A1    -1.209141     5A1    -1.077824     1B2    -0.989375  
       1B1    -0.989375  

    Alpha Virtual:                                                        

       2B1    -0.246782     2B2    -0.246782     6A1    -0.115579  
       7A1    -0.085926     3B1    -0.076701     3B2    -0.076701  
       8A1     0.022247     4B1     0.056090     4B2     0.056090  
       9A1     0.105120     1A2     0.142583    10A1     0.142583  
      11A1     0.216528     5B1     0.297906     5B2     0.297906  
      12A1     0.394879     6B1     0.409715     6B2     0.409715  
      13A1     0.576689    14A1     0.686928     2A2     0.761514  
      15A1     0.761514     7B1     0.890821     7B2     0.890821  
      16A1     1.103841     3A2     1.230540    17A1     1.230540  
       8B1     1.336263     8B2     1.336263     9B1     1.556042  
       9B2     1.556042    18A1     1.784000    19A1     1.839325  
      20A1     2.623025     4A2     3.221625    21A1     3.221625  
      10B1     3.318893    10B2     3.318893    22A1     3.672450  

    Beta Occupied:                                                        

       1A1   -21.115358     2A1   -11.813450     3A1    -1.934776  
       4A1    -1.168490     1B1    -1.059948     1B2    -1.059948  

    Beta Virtual:                                                         

       5A1    -0.405582     2B1    -0.178769     2B2    -0.178769  
       6A1    -0.093127     7A1    -0.078104     3B1    -0.058339  
       3B2    -0.058339     8A1     0.031223     4B1     0.047773  
       4B2     0.047773     9A1     0.119879     1A2     0.162658  
      10A1     0.162658    11A1     0.249774     5B1     0.312472  
       5B2     0.312472    12A1     0.431569     6B1     0.455141  
       6B2     0.455141    13A1     0.617371     2A2     0.746287  
      14A1     0.746287    15A1     0.757880     7B1     0.894939  
       7B2     0.894939    16A1     1.124186     8B1     1.306696  
       8B2     1.306696    17A1     1.308866     3A2     1.308866  
       9B2     1.615432     9B1     1.615432    18A1     1.809019  
      19A1     1.865965    20A1     2.631104     4A2     3.152082  
      21A1     3.152082    10B1     3.292849    10B2     3.292849  
      22A1     3.658701  

    Final Occupation by Irrep:
             A1    A2    B1    B2 
    DOCC [     4,    0,    1,    1 ]
    SOCC [     1,    0,    0,    0 ]

  Energy converged.

  @UHF Final Energy:  -112.27373568932622

   => Energetics <=

    Nuclear Repulsion Energy =             22.4983235166307836
    One-Electron Energy =                -192.2717103684510676
    Two-Electron Energy =                  57.4996511624940609
    PCM Polarization Energy =               0.0000000000000000
    Total Energy =                       -112.2737356893262159

    Alert: EFP and PCM quantities not currently incorporated into SCF psivars.
  UHF NO Occupations:
  HONO-2 :    1 B1 1.9336675
  HONO-1 :    1 B2 1.9336675
  HONO-0 :    5 A1 1.0000000
  LUNO+0 :    2 B2 0.0663325
  LUNO+1 :    2 B1 0.0663325
  LUNO+2 :    6 A1 0.0007352
  LUNO+3 :    7 A1 0.0001982



Properties will be evaluated at   0.000000,   0.000000,   0.000000 Bohr

Properties computed using the SCF density matrix

  Nuclear Dipole Moment: (a.u.)
     X:     0.0000      Y:     0.0000      Z:    -0.0023

  Electronic Dipole Moment: (a.u.)
     X:     0.0000      Y:     0.0000      Z:     1.2046

  Dipole Moment: (a.u.)
     X:     0.0000      Y:     0.0000      Z:     1.2023     Total:     1.2023

  Dipole Moment: (Debye)
     X:     0.0000      Y:     0.0000      Z:     3.0560     Total:     3.0560


*** tstop() called on cqc05 at Thu Aug 20 19:53:51 2020
Module time:
	user time   =       0.60 seconds =       0.01 minutes
	system time =       0.02 seconds =       0.00 minutes
	total time  =          0 seconds =       0.00 minutes
Total time:
	user time   =       0.60 seconds =       0.01 minutes
	system time =       0.02 seconds =       0.00 minutes
	total time  =          0 seconds =       0.00 minutes

*** tstart() called on cqc05
*** at Thu Aug 20 19:53:51 2020


	Wfn Parameters:
	--------------------
	Wavefunction         = CCSD
	Number of irreps     = 4
	Number of MOs        = 46
	Number of active MOs = 44
	AO-Basis             = NONE
	Semicanonical        = false
	Reference            = UHF
	Print Level          = 1

	IRREP	# MOs	# FZDC	# DOCC	# SOCC	# VIRT	# FZVR
	-----	-----	------	------	------	------	------
	 A1	   22	    2	    2	    1	    17	    0
	 A2	   4	    0	    0	    0	    4	    0
	 B1	   10	    0	    1	    0	    9	    0
	 B2	   10	    0	    1	    0	    9	    0
	Transforming integrals...
	IWL integrals will be deleted.
	(OO|OO)...
	Presorting SO-basis two-electron integrals.
	Sorting File: SO Ints (nn|nn) nbuckets = 1
	Transforming the one-electron integrals and constructing Fock matrices
	Starting AA/AB first half-transformation.
	Sorting AA/AB half-transformed integrals.
	Starting BB first half-transformation.
	Sorting BB half-transformed integrals.
	First half integral transformation complete.
	Starting AA second half-transformation.
	Starting AB second half-transformation.
	Starting BB second half-transformation.
	Two-electron integral transformation complete.
	(OO|OV)...
	Starting AA second half-transformation.
	Starting AB second half-transformation.
	Starting BB second half-transformation.
	Two-electron integral transformation complete.
	(OO|VV)...
	Starting AA second half-transformation.
	Starting AB second half-transformation.
	Starting BB second half-transformation.
	Two-electron integral transformation complete.
	(OV|OO)...
	Starting AA/AB first half-transformation.
	Sorting AA/AB half-transformed integrals.
	Starting BB first half-transformation.
	Sorting BB half-transformed integrals.
	First half integral transformation complete.
	Starting AA second half-transformation.
	Starting AB second half-transformation.
	Starting BB second half-transformation.
	Two-electron integral transformation complete.
	(OV|OV)...
	Starting AA second half-transformation.
	Starting AB second half-transformation.
	Starting BB second half-transformation.
	Two-electron integral transformation complete.
	(OV|VV)...
	Starting AA second half-transformation.
	Starting AB second half-transformation.
	Starting BB second half-transformation.
	Two-electron integral transformation complete.
	(VV|OO)...
	Starting AA/AB first half-transformation.
	Sorting AA/AB half-transformed integrals.
	Starting BB first half-transformation.
	Sorting BB half-transformed integrals.
	First half integral transformation complete.
	Starting AA second half-transformation.
	Starting AB second half-transformation.
	Starting BB second half-transformation.
	Two-electron integral transformation complete.
	(VV|OV)...
	Starting AA second half-transformation.
	Starting AB second half-transformation.
	Starting BB second half-transformation.
	Two-electron integral transformation complete.
	(VV|VV)...
	Starting AA second half-transformation.
	Starting AB second half-transformation.
	Starting BB second half-transformation.
	Two-electron integral transformation complete.
	Frozen core energy     =   -102.71391427577966

	Size of irrep 0 of <AB|CD> integrals:      0.046 (MW) /      0.366 (MB)
	Size of irrep 1 of <AB|CD> integrals:      0.022 (MW) /      0.178 (MB)
	Size of irrep 2 of <AB|CD> integrals:      0.036 (MW) /      0.286 (MB)
	Size of irrep 3 of <AB|CD> integrals:      0.036 (MW) /      0.286 (MB)
	Total:                                     0.139 (MW) /      1.116 (MB)

	Size of irrep 0 of <ab|cd> integrals:      0.053 (MW) /      0.427 (MB)
	Size of irrep 1 of <ab|cd> integrals:      0.023 (MW) /      0.187 (MB)
	Size of irrep 2 of <ab|cd> integrals:      0.039 (MW) /      0.314 (MB)
	Size of irrep 3 of <ab|cd> integrals:      0.039 (MW) /      0.314 (MB)
	Total:                                     0.155 (MW) /      1.241 (MB)

	Size of irrep 0 of <Ab|Cd> integrals:      0.234 (MW) /      1.874 (MB)
	Size of irrep 1 of <Ab|Cd> integrals:      0.091 (MW) /      0.730 (MB)
	Size of irrep 2 of <Ab|Cd> integrals:      0.150 (MW) /      1.198 (MB)
	Size of irrep 3 of <Ab|Cd> integrals:      0.150 (MW) /      1.198 (MB)
	Total:                                     0.625 (MW) /      5.000 (MB)

	Size of irrep 0 of <IA|BC> integrals:      0.032 (MW) /      0.258 (MB)
	Size of irrep 1 of <IA|BC> integrals:      0.009 (MW) /      0.072 (MB)
	Size of irrep 2 of <IA|BC> integrals:      0.018 (MW) /      0.145 (MB)
	Size of irrep 3 of <IA|BC> integrals:      0.018 (MW) /      0.145 (MB)
	Total:                                     0.077 (MW) /      0.620 (MB)

	Size of irrep 0 of <ia|bc> integrals:      0.027 (MW) /      0.217 (MB)
	Size of irrep 1 of <ia|bc> integrals:      0.008 (MW) /      0.064 (MB)
	Size of irrep 2 of <ia|bc> integrals:      0.016 (MW) /      0.127 (MB)
	Size of irrep 3 of <ia|bc> integrals:      0.016 (MW) /      0.127 (MB)
	Total:                                     0.067 (MW) /      0.534 (MB)

	Size of irrep 0 of <Ia|Bc> integrals:      0.035 (MW) /      0.279 (MB)
	Size of irrep 1 of <Ia|Bc> integrals:      0.009 (MW) /      0.072 (MB)
	Size of irrep 2 of <Ia|Bc> integrals:      0.019 (MW) /      0.152 (MB)
	Size of irrep 3 of <Ia|Bc> integrals:      0.019 (MW) /      0.152 (MB)
	Total:                                     0.082 (MW) /      0.655 (MB)

	Size of irrep 0 of <iA|bC> integrals:      0.025 (MW) /      0.201 (MB)
	Size of irrep 1 of <iA|bC> integrals:      0.008 (MW) /      0.063 (MB)
	Size of irrep 2 of <iA|bC> integrals:      0.015 (MW) /      0.121 (MB)
	Size of irrep 3 of <iA|bC> integrals:      0.015 (MW) /      0.121 (MB)
	Total:                                     0.063 (MW) /      0.506 (MB)

	Size of irrep 0 of tIjAb amplitudes:       0.004 (MW) /      0.031 (MB)
	Size of irrep 1 of tIjAb amplitudes:       0.001 (MW) /      0.005 (MB)
	Size of irrep 2 of tIjAb amplitudes:       0.002 (MW) /      0.015 (MB)
	Size of irrep 3 of tIjAb amplitudes:       0.002 (MW) /      0.015 (MB)
	Total:                                     0.008 (MW) /      0.067 (MB)

	Nuclear Rep. energy          =     22.49832351663078
	SCF energy                   =   -112.27373568932622
	One-electron energy          =    -52.73187135352369
	Two-electron (AA) energy     =      4.82513844569044
	Two-electron (BB) energy     =      3.67733650999125
	Two-electron (AB) energy     =     12.17125146766489
	Two-electron energy          =     20.67372642334657
	Reference energy             =   -112.27373568932600

*** tstop() called on cqc05 at Thu Aug 20 19:53:52 2020
Module time:
	user time   =       0.11 seconds =       0.00 minutes
	system time =       0.09 seconds =       0.00 minutes
	total time  =          1 seconds =       0.02 minutes
Total time:
	user time   =       0.71 seconds =       0.01 minutes
	system time =       0.11 seconds =       0.00 minutes
	total time  =          1 seconds =       0.02 minutes

*** tstart() called on cqc05
*** at Thu Aug 20 19:53:52 2020

            **************************
            *                        *
            *        CCENERGY        *
            *                        *
            **************************

    Nuclear Rep. energy (wfn)     =   22.498323516630784
    SCF energy          (wfn)     = -112.273735689326216
    Reference energy    (file100) = -112.273735689326003

    Input parameters:
    -----------------
    Wave function   =     CCSD
    Reference wfn   =     UHF
    Brueckner       =     No
    Memory (Mbytes) =     250000.0
    Maxiter         =     50
    R_Convergence   =     1.0e-07
    E_Convergence   =     1.0e-06
    Restart         =     Yes
    DIIS            =     Yes
    AO Basis        =     NONE
    ABCD            =     NEW
    Cache Level     =     2
    Cache Type      =     LRU
    Print Level     =     1
    Num. of threads =     4
    # Amps to Print =     10
    Print MP2 Amps? =     No
    Analyze T2 Amps =     No
    Print Pair Ener =     No
    Local CC        =     No
    SCS-MP2         =     False
    SCSN-MP2        =     False
    SCS-CCSD        =     False

MP2 correlation energy -0.2599374412206373
                Solving CC Amplitude Equations
                ------------------------------
  Iter             Energy              RMS        T1Diag      D1Diag    New D1Diag    D2Diag
  ----     ---------------------    ---------   ----------  ----------  ----------   --------
     0        -0.259937441220642    0.000e+00    0.000000    0.000000    0.000000    0.000000
     1        -0.254377351835858    1.023e-01    0.030083    0.000000    0.000000    0.000000
     2        -0.268433360991652    4.748e-02    0.039978    0.000000    0.000000    0.000000
     3        -0.278180410031120    3.803e-02    0.065363    0.000000    0.000000    0.000000
     4        -0.280001404700329    1.531e-02    0.076830    0.000000    0.000000    0.000000
     5        -0.280456652032743    6.635e-03    0.081039    0.000000    0.000000    0.000000
     6        -0.280607880592251    2.372e-03    0.081343    0.000000    0.000000    0.000000
     7        -0.280645252727826    1.293e-03    0.081528    0.000000    0.000000    0.000000
     8        -0.280664812117591    4.754e-04    0.081562    0.000000    0.000000    0.000000
     9        -0.280675565223347    1.375e-04    0.081563    0.000000    0.000000    0.000000
    10        -0.280678667986352    4.383e-05    0.081556    0.000000    0.000000    0.000000
    11        -0.280679810584794    1.078e-05    0.081558    0.000000    0.000000    0.000000
    12        -0.280680094721838    3.676e-06    0.081558    0.000000    0.000000    0.000000
    13        -0.280680157484763    1.972e-06    0.081558    0.000000    0.000000    0.000000
    14        -0.280680179956707    1.122e-06    0.081558    0.000000    0.000000    0.000000
    15        -0.280680153878379    6.388e-07    0.081558    0.000000    0.000000    0.000000
    16        -0.280680134076259    2.034e-07    0.081558    0.000000    0.000000    0.000000
    17        -0.280680130485023    9.660e-08    0.081558    0.000000    0.000000    0.000000
    17        -0.280680130485023    9.660e-08    0.081558    0.000000    0.000000    0.000000

    Iterations converged.


    CCSD corr. energy   =   -0.280680130485023
    PPL corr. energy    =    0.067862063581199
    OS PPL corr. energy =    0.055649775036869
    SS PPL corr. energy =    0.012212288544324
    Largest TIA Amplitudes:
              3  21        -0.0768016599
              4  30        -0.0768016599
              3  27         0.0252212866
              4  36         0.0252212866
              3  23        -0.0195076926
              4  32        -0.0195076926
              3  24        -0.0189409787
              4  33        -0.0189409787
              0   7         0.0080453093
              1   7        -0.0080131965

    Largest Tia Amplitudes:
              2  22         0.1160620822
              3  31         0.1160620822
              1   0        -0.1003775562
              2  23         0.0462996238
              3  32         0.0462996238
              2  26         0.0237713203
              3  35         0.0237713203
              2  25         0.0182619833
              3  34         0.0182619833
              1   1         0.0179245573

    Largest TIJAB Amplitudes:
      4   3  30  21        -0.0699086274
      3   2  21   7        -0.0298079893
      4   2  30   7        -0.0298079893
      4   3  30  24        -0.0165263919
      4   3  33  21        -0.0165263919
      3   2  21   5         0.0153631252
      4   2  30   5         0.0153631252
      4   3  30  23        -0.0128712765
      4   3  32  21        -0.0128712765
      3   2  21   3         0.0116940467

    Largest Tijab Amplitudes:
      3   2  31  22        -0.0278266952
      2   1  22   0         0.0159966659
      3   1  31   0         0.0159966659
      2   1  22   8        -0.0144809371
      3   1  31   8        -0.0144809371
      3   2  19   9        -0.0118316776
      3   2  37  28        -0.0105636205
      3   2  31  28         0.0100392379
      3   2  37  22         0.0100392379
      2   1  22   6        -0.0098475727

    Largest TIjAb Amplitudes:
      3   2  21  22        -0.1251651860
      4   3  30  31        -0.1251651860
      3   3  21  31        -0.0759893598
      4   2  30  22        -0.0759893598
      3   1  21   0         0.0643229538
      4   1  30   0         0.0643229538
      1   2  21   0         0.0634319158
      1   3  30   0         0.0634319158
      2   2  21   0         0.0493662261
      2   3  30   0         0.0493662261

    SCF energy       (wfn)                    = -112.273735689326216
    Reference energy (file100)                = -112.273735689326003

    Opposite-spin MP2 correlation energy      =   -0.184051922541753
    Same-spin MP2 correlation energy          =   -0.075885518678839
    MP2 correlation energy                    =   -0.259937441220637
      * MP2 total energy                      = -112.533673130546646

    Opposite-spin CCSD correlation energy     =   -0.219275355842057
    Same-spin CCSD correlation energy         =   -0.061404816935319
    CCSD correlation energy                   =   -0.280680130485023
      * CCSD total energy                     = -112.554415819811027


*** tstop() called on cqc05 at Thu Aug 20 19:53:54 2020
Module time:
	user time   =       0.37 seconds =       0.01 minutes
	system time =       0.40 seconds =       0.01 minutes
	total time  =          2 seconds =       0.03 minutes
Total time:
	user time   =       1.08 seconds =       0.02 minutes
	system time =       0.51 seconds =       0.01 minutes
	total time  =          3 seconds =       0.05 minutes

*** Psi4 exiting successfully. Buy a developer a beer!
