
    -----------------------------------------------------------------------
          Psi4: An Open-Source Ab Initio Electronic Structure Package
                               Psi4 1.4a3.dev88 

                         Git: Rev {master} 262e345 


    D. G. A. Smith, L. A. Burns, A. C. Simmonett, R. M. Parrish,
    M. C. Schieber, R. Galvelis, P. Kraus, H. Kruse, R. Di Remigio,
    A. Alenaizan, A. M. James, S. Lehtola, J. P. Misiewicz, M. Scheurer,
    R. A. Shaw, J. B. Schriber, Y. Xie, Z. L. Glick, D. A. Sirianni,
    J. S. O'Brien, J. M. Waldrop, A. Kumar, E. G. Hohenstein,
    B. P. Pritchard, B. R. Brooks, H. F. Schaefer III, A. Yu. Sokolov,
    K. Patkowski, A. E. DePrince III, U. Bozkaya, R. A. King,
    F. A. Evangelista, J. M. Turney, T. D. Crawford, C. D. Sherrill,
    J. Chem. Phys. 152(18) 184108 (2020). https://doi.org/10.1063/5.0006002

                            Additional Code Authors
    E. T. Seidl, C. L. Janssen, E. F. Valeev, M. L. Leininger,
    J. F. Gonthier, R. M. Richard, H. R. McAlexander, M. Saitow, X. Wang,
    P. Verma, and M. H. Lechner

             Previous Authors, Complete List of Code Contributors,
                       and Citations for Specific Modules
    https://github.com/psi4/psi4/blob/master/codemeta.json
    https://github.com/psi4/psi4/graphs/contributors
    http://psicode.org/psi4manual/master/introduction.html#citing-psifour

    -----------------------------------------------------------------------


    Psi4 started on: Tuesday, 26 January 2021 06:31PM

    Process ID: 406482
    Host:       n412-039.vsc4.prov
    PSIDATADIR: /home/fs71337/gallo4/psi4/eri-6/psi4/build/stage/share/psi4
    Memory:     500.0 MiB
    Threads:    48
    
  ==> Input File <==

--------------------------------------------------------------------------
# Any line starting with the # character is a comment line
memory 250000 mb
molecule molecule{
0 1
N          0.0000000000        0.0000000000       -0.5570422157
N          0.0000000000        0.0000000000        0.5570422157
}

set {
  reference rhf
  basis aug-cc-pV(d+d)Z
  scf_type OUT_OF_CORE
  freeze_core true
}

energy('ccsd(t)')
--------------------------------------------------------------------------

  Memory set to 232.831 GiB by Python driver.

Scratch directory: /binfl/lv71337/airmler/temp/

*** tstart() called on n412-039.vsc4.prov
*** at Tue Jan 26 18:31:34 2021

   => Loading Basis Set <=

    Name: AUG-CC-PV(D+D)Z
    Role: ORBITAL
    Keyword: BASIS
    atoms 1-2 entry N          line   246 file /home/fs71337/gallo4/psi4/eri-6/psi4/build/stage/share/psi4/basis/aug-cc-pv_dpd_z.gbs 


         ---------------------------------------------------------
                                   SCF
               by Justin Turney, Rob Parrish, Andy Simmonett
                          and Daniel G. A. Smith
                              RHF Reference
                       48 Threads, 238418 MiB Core
         ---------------------------------------------------------

  ==> Geometry <==

    Molecular point group: d2h
    Full point group: D_inf_h

    Geometry (in Angstrom), charge = 0, multiplicity = 1:

       Center              X                  Y                   Z               Mass       
    ------------   -----------------  -----------------  -----------------  -----------------
         N            0.000000000000     0.000000000000    -0.557042215700    14.003074004430
         N            0.000000000000     0.000000000000     0.557042215700    14.003074004430

  Running in d2h symmetry.

  Rotational constants: A = ************  B =      1.93984  C =      1.93984 [cm^-1]
  Rotational constants: A = ************  B =  58155.07236  C =  58155.07236 [MHz]
  Nuclear repulsion =   23.274432881398223

  Charge       = 0
  Multiplicity = 1
  Electrons    = 14
  Nalpha       = 7
  Nbeta        = 7

  ==> Algorithm <==

  SCF Algorithm Type is OUT_OF_CORE.
  DIIS enabled.
  MOM disabled.
  Fractional occupation disabled.
  Guess Type is SAD.
  Energy threshold   = 1.00e-08
  Density threshold  = 1.00e-08
  Integral threshold = 1.00e-12

  ==> Primary Basis <==

  Basis Set: AUG-CC-PV(D+D)Z
    Blend: AUG-CC-PV(D+D)Z
    Number of shells: 18
    Number of basis function: 46
    Number of Cartesian functions: 50
    Spherical Harmonics?: true
    Max angular momentum: 2

  ==> Integral Setup <==

  ==> DiskJK: Disk-Based J/K Matrices <==

    J tasked:                  Yes
    K tasked:                  Yes
    wK tasked:                  No
    Memory [MiB]:           178813
    Schwarz Cutoff:          1E-12

  Minimum eigenvalue in the overlap matrix is 4.6623608429E-04.
  Reciprocal condition number of the overlap matrix is 1.1608023801E-04.
    Using symmetric orthogonalization.

  ==> Pre-Iterations <==

  SCF Guess: Superposition of Atomic Densities via on-the-fly atomic UHF (no occupation information).


 WARNING: Atomic UHF is not converging! Try casting from a smaller basis or call Rob at CCMST.
   -------------------------
    Irrep   Nso     Nmo    
   -------------------------
     Ag        11      11 
     B1g        2       2 
     B2g        5       5 
     B3g        5       5 
     Au         2       2 
     B1u       11      11 
     B2u        5       5 
     B3u        5       5 
   -------------------------
    Total      46      46
   -------------------------

  ==> Iterations <==

                        Total Energy        Delta E     RMS |[F,P]|

   @RHF iter SAD:  -107.70104282024752   -1.07701e+02   0.00000e+00 
   @RHF iter   1:  -108.94695737654814   -1.24591e+00   6.72396e-03 DIIS
   @RHF iter   2:  -108.95715554547461   -1.01982e-02   1.46404e-03 DIIS
   @RHF iter   3:  -108.95769766328122   -5.42118e-04   3.69459e-04 DIIS
   @RHF iter   4:  -108.95773495377225   -3.72905e-05   6.16640e-05 DIIS
   @RHF iter   5:  -108.95773608551376   -1.13174e-06   1.11896e-05 DIIS
   @RHF iter   6:  -108.95773614003966   -5.45259e-08   1.31624e-06 DIIS
   @RHF iter   7:  -108.95773614078692   -7.47264e-10   1.38037e-07 DIIS
   @RHF iter   8:  -108.95773614079314   -6.22435e-12   9.26101e-09 DIIS
  Energy and wave function converged.


  ==> Post-Iterations <==

    Orbital Energies [Eh]
    ---------------------

    Doubly Occupied:                                                      

       1Ag   -15.703718     1B1u  -15.700603     2Ag    -1.467274  
       2B1u   -0.786530     3Ag    -0.633020     1B2u   -0.608527  
       1B3u   -0.608527  

    Virtual:                                                              

       3B1u    0.103916     1B3g    0.119749     1B2g    0.119749  
       4Ag     0.140003     2B2u    0.150902     2B3u    0.150902  
       5Ag     0.196090     2B3g    0.248658     2B2g    0.248658  
       4B1u    0.324842     1B1g    0.585536     6Ag     0.585536  
       7Ag     0.692523     5B1u    0.701688     3B2u    0.799081  
       3B3u    0.799081     1Au     0.863901     6B1u    0.863901  
       7B1u    0.947706     3B3g    0.977627     3B2g    0.977627  
       4B2u    1.084811     4B3u    1.084811     8Ag     1.140847  
       8B1u    1.302112     4B3g    1.383005     4B2g    1.383005  
       9Ag     1.892920     5B2u    2.213821     5B3u    2.213821  
      10Ag     2.250427     2B1g    2.250427     2Au     2.642860  
       9B1u    2.642860    11Ag     2.928861    10B1u    3.003756  
       5B3g    3.117592     5B2g    3.117592    11B1u    3.296029  

    Final Occupation by Irrep:
             Ag   B1g   B2g   B3g    Au   B1u   B2u   B3u 
    DOCC [     3,    0,    0,    0,    0,    2,    1,    1 ]

  @RHF Final Energy:  -108.95773614079314

   => Energetics <=

    Nuclear Repulsion Energy =             23.2744328813982229
    One-Electron Energy =                -193.4479394873644083
    Two-Electron Energy =                  61.2157704651730512
    Total Energy =                       -108.9577361407931448

Computation Completed


Properties will be evaluated at   0.000000,   0.000000,   0.000000 [a0]

Properties computed using the SCF density matrix

  Nuclear Dipole Moment: [e a0]
     X:     0.0000      Y:     0.0000      Z:    -0.0000

  Electronic Dipole Moment: [e a0]
     X:     0.0000      Y:     0.0000      Z:     0.0000

  Dipole Moment: [e a0]
     X:     0.0000      Y:     0.0000      Z:    -0.0000     Total:     0.0000

  Dipole Moment: [D]
     X:     0.0000      Y:     0.0000      Z:    -0.0000     Total:     0.0000


*** tstop() called on n412-039.vsc4.prov at Tue Jan 26 18:31:35 2021
Module time:
	user time   =      10.49 seconds =       0.17 minutes
	system time =       0.96 seconds =       0.02 minutes
	total time  =          1 seconds =       0.02 minutes
Total time:
	user time   =      10.49 seconds =       0.17 minutes
	system time =       0.96 seconds =       0.02 minutes
	total time  =          1 seconds =       0.02 minutes

*** tstart() called on n412-039.vsc4.prov
*** at Tue Jan 26 18:31:35 2021


	Wfn Parameters:
	--------------------
	Wavefunction         = CCSD_T
	Number of irreps     = 8
	Number of MOs        = 46
	Number of active MOs = 44
	AO-Basis             = NONE
	Semicanonical        = false
	Reference            = RHF
	Print Level          = 1

	IRREP	# MOs	# FZDC	# DOCC	# SOCC	# VIRT	# FZVR
	-----	-----	------	------	------	------	------
	 Ag	   11	    1	    2	    0	    8	    0
	 B1g	   2	    0	    0	    0	    2	    0
	 B2g	   5	    0	    0	    0	    5	    0
	 B3g	   5	    0	    0	    0	    5	    0
	 Au	   2	    0	    0	    0	    2	    0
	 B1u	   11	    1	    1	    0	    9	    0
	 B2u	   5	    0	    1	    0	    4	    0
	 B3u	   5	    0	    1	    0	    4	    0
	Transforming integrals...
	IWL integrals will be deleted.
	(OO|OO)...
	Presorting SO-basis two-electron integrals.
	Sorting File: SO Ints (nn|nn) nbuckets = 1
	Constructing frozen core operators
	Starting first half-transformation.
	Sorting half-transformed integrals.
	First half integral transformation complete.
	Starting second half-transformation.
	Two-electron integral transformation complete.
	(OO|OV)...
	Starting second half-transformation.
	Two-electron integral transformation complete.
	(OO|VV)...
	Starting second half-transformation.
	Two-electron integral transformation complete.
	(OV|OO)...
	Starting first half-transformation.
	Sorting half-transformed integrals.
	First half integral transformation complete.
	Starting second half-transformation.
	Two-electron integral transformation complete.
	(OV|OV)...
	Starting second half-transformation.
	Two-electron integral transformation complete.
	(OV|VV)...
	Starting second half-transformation.
	Two-electron integral transformation complete.
	(VV|OO)...
	Starting first half-transformation.
	Sorting half-transformed integrals.
	First half integral transformation complete.
	Starting second half-transformation.
	Two-electron integral transformation complete.
	(VV|OV)...
	Starting second half-transformation.
	Two-electron integral transformation complete.
	(VV|VV)...
	Starting second half-transformation.
	Two-electron integral transformation complete.
	Frozen core energy     =   -100.86576749847598

	Size of irrep 0 of <ab|cd> integrals:      0.055 (MW) /      0.442 (MB)
	Size of irrep 1 of <ab|cd> integrals:      0.022 (MW) /      0.180 (MB)
	Size of irrep 2 of <ab|cd> integrals:      0.035 (MW) /      0.283 (MB)
	Size of irrep 3 of <ab|cd> integrals:      0.035 (MW) /      0.283 (MB)
	Size of irrep 4 of <ab|cd> integrals:      0.022 (MW) /      0.175 (MB)
	Size of irrep 5 of <ab|cd> integrals:      0.054 (MW) /      0.431 (MB)
	Size of irrep 6 of <ab|cd> integrals:      0.036 (MW) /      0.289 (MB)
	Size of irrep 7 of <ab|cd> integrals:      0.036 (MW) /      0.289 (MB)
	Total:                                     0.296 (MW) /      2.371 (MB)

	Size of irrep 0 of <ia|bc> integrals:      0.008 (MW) /      0.062 (MB)
	Size of irrep 1 of <ia|bc> integrals:      0.002 (MW) /      0.017 (MB)
	Size of irrep 2 of <ia|bc> integrals:      0.005 (MW) /      0.038 (MB)
	Size of irrep 3 of <ia|bc> integrals:      0.005 (MW) /      0.038 (MB)
	Size of irrep 4 of <ia|bc> integrals:      0.002 (MW) /      0.019 (MB)
	Size of irrep 5 of <ia|bc> integrals:      0.008 (MW) /      0.067 (MB)
	Size of irrep 6 of <ia|bc> integrals:      0.004 (MW) /      0.035 (MB)
	Size of irrep 7 of <ia|bc> integrals:      0.004 (MW) /      0.035 (MB)
	Total:                                     0.039 (MW) /      0.310 (MB)

	Size of irrep 0 of tijab amplitudes:       0.002 (MW) /      0.013 (MB)
	Size of irrep 1 of tijab amplitudes:       0.000 (MW) /      0.002 (MB)
	Size of irrep 2 of tijab amplitudes:       0.000 (MW) /      0.003 (MB)
	Size of irrep 3 of tijab amplitudes:       0.000 (MW) /      0.003 (MB)
	Size of irrep 4 of tijab amplitudes:       0.000 (MW) /      0.000 (MB)
	Size of irrep 5 of tijab amplitudes:       0.001 (MW) /      0.007 (MB)
	Size of irrep 6 of tijab amplitudes:       0.001 (MW) /      0.006 (MB)
	Size of irrep 7 of tijab amplitudes:       0.001 (MW) /      0.006 (MB)
	Total:                                     0.005 (MW) /      0.041 (MB)

	Nuclear Rep. energy          =     23.27443288139822
	SCF energy                   =   -108.95773614079314
	One-electron energy          =    -54.52504646792050
	Two-electron energy          =     23.15864494420511
	Reference energy             =   -108.95773614079314

*** tstop() called on n412-039.vsc4.prov at Tue Jan 26 18:31:36 2021
Module time:
	user time   =       0.05 seconds =       0.00 minutes
	system time =       0.13 seconds =       0.00 minutes
	total time  =          1 seconds =       0.02 minutes
Total time:
	user time   =      10.54 seconds =       0.18 minutes
	system time =       1.09 seconds =       0.02 minutes
	total time  =          2 seconds =       0.03 minutes
            **************************
            *                        *
            *        CCENERGY        *
            *                        *
            **************************

    Nuclear Rep. energy (wfn)     =   23.274432881398223
    SCF energy          (wfn)     = -108.957736140793145
    Reference energy    (file100) = -108.957736140793145

    Input parameters:
    -----------------
    Wave function   =     CCSD_T
    Reference wfn   =     RHF
    Brueckner       =     No
    Memory (Mbytes) =     250000.0
    Maxiter         =     50
    R_Convergence   =     1.0e-07
    E_Convergence   =     1.0e-06
    Restart         =     Yes
    DIIS            =     Yes
    AO Basis        =     NONE
    ABCD            =     NEW
    Cache Level     =     2
    Cache Type      =     LOW
    Print Level     =     1
    Num. of threads =     48
    # Amps to Print =     10
    Print MP2 Amps? =     No
    Analyze T2 Amps =     No
    Print Pair Ener =     No
    Local CC        =     No
    SCS-MP2         =     False
    SCSN-MP2        =     False
    SCS-CCSD        =     False

MP2 correlation energy -0.3221925406059283
                Solving CC Amplitude Equations
                ------------------------------
  Iter             Energy              RMS        T1Diag      D1Diag    New D1Diag    D2Diag
  ----     ---------------------    ---------   ----------  ----------  ----------   --------
     0        -0.322192540605928    0.000e+00    0.000000    0.000000    0.000000    0.164579
     1        -0.308461639319841    5.887e-02    0.011498    0.022467    0.022467    0.157413
     2        -0.320221942069271    2.416e-02    0.011471    0.021585    0.021585    0.168190
     3        -0.323081741527200    9.504e-03    0.013223    0.024387    0.024387    0.174399
     4        -0.323435426915865    2.601e-03    0.013416    0.024569    0.024569    0.176262
     5        -0.323497885663525    5.505e-04    0.013448    0.024615    0.024615    0.176626
     6        -0.323496273322248    1.309e-04    0.013439    0.024606    0.024606    0.176651
     7        -0.323500290724938    2.962e-05    0.013437    0.024605    0.024605    0.176660
     8        -0.323500265943890    7.887e-06    0.013436    0.024604    0.024604    0.176662
     9        -0.323500031105441    1.878e-06    0.013436    0.024604    0.024604    0.176662
    10        -0.323500086763166    6.017e-07    0.013436    0.024604    0.024604    0.176662
    11        -0.323500078948196    1.796e-07    0.013436    0.024604    0.024604    0.176662
    12        -0.323500085269115    4.894e-08    0.013436    0.024604    0.024604    0.176662

    Iterations converged.


    Largest TIA Amplitudes:
              4  37         0.0201103191
              3  33         0.0201103188
              1   0        -0.0167844072
              2  24        -0.0100795976
              4  35         0.0100326051
              3  31         0.0100326044
              3  34         0.0097260506
              4  38         0.0097260505
              1   1        -0.0078468133
              2  27         0.0078090844

    Largest TIjAb Amplitudes:
      3   3  15  15        -0.0619009728
      4   4  10  10        -0.0619009725
      3   3  15  16        -0.0535784240
      3   3  16  15        -0.0535784240
      4   4  10  11        -0.0535784239
      4   4  11  10        -0.0535784239
      4   4  11  11        -0.0471631731
      3   3  16  16        -0.0471631729
      3   4  15  10        -0.0383845906
      4   3  10  15        -0.0383845906

    SCF energy       (wfn)                    = -108.957736140793145
    Reference energy (file100)                = -108.957736140793145

    Opposite-spin MP2 correlation energy      =   -0.236101547170929
    Same-spin MP2 correlation energy          =   -0.086090993435000
    Singles MP2 correlation energy            =   -0.000000000000000
    MP2 correlation energy                    =   -0.322192540605928
      * MP2 total energy                      = -109.279928681399070

    Opposite-spin CCSD correlation energy     =   -0.253969263596564
    Same-spin CCSD correlation energy         =   -0.069530821672551
    Singles CCSD correlation energy           =    0.000000000000000
    CCSD correlation energy                   =   -0.323500085269115
      * CCSD total energy                     = -109.281236226062262

            **************************
            *                        *
            *        CCTRIPLES       *
            *                        *
            **************************


    Wave function   =    CCSD_T
    Reference wfn   =      RHF

    Nuclear Rep. energy (wfn)                =   23.274432881398223
    SCF energy          (wfn)                = -108.957736140793145
    Reference energy    (file100)            = -108.957736140793145
    CCSD energy         (file100)            =   -0.323500085269115
    Total CCSD energy   (file100)            = -109.281236226062262

    Number of ijk index combinations:               35
    Memory available in words        :     31250000000
    ~Words needed per explicit thread:            2916
    Number of threads for explicit ijk threading:   48

    (T) energy                                =   -0.014073200791809
      * CCSD(T) total energy                  = -109.295309426854075


    Psi4 stopped on: Tuesday, 26 January 2021 06:31PM
    Psi4 wall time for execution: 0:00:04.22

*** Psi4 exiting successfully. Buy a developer a beer!
