
    -----------------------------------------------------------------------
          Psi4: An Open-Source Ab Initio Electronic Structure Package
                               Psi4 1.4a3.dev88 

                         Git: Rev {master} 262e345 


    D. G. A. Smith, L. A. Burns, A. C. Simmonett, R. M. Parrish,
    M. C. Schieber, R. Galvelis, P. Kraus, H. Kruse, R. Di Remigio,
    A. Alenaizan, A. M. James, S. Lehtola, J. P. Misiewicz, M. Scheurer,
    R. A. Shaw, J. B. Schriber, Y. Xie, Z. L. Glick, D. A. Sirianni,
    J. S. O'Brien, J. M. Waldrop, A. Kumar, E. G. Hohenstein,
    B. P. Pritchard, B. R. Brooks, H. F. Schaefer III, A. Yu. Sokolov,
    K. Patkowski, A. E. DePrince III, U. Bozkaya, R. A. King,
    F. A. Evangelista, J. M. Turney, T. D. Crawford, C. D. Sherrill,
    J. Chem. Phys. 152(18) 184108 (2020). https://doi.org/10.1063/5.0006002

                            Additional Code Authors
    E. T. Seidl, C. L. Janssen, E. F. Valeev, M. L. Leininger,
    J. F. Gonthier, R. M. Richard, H. R. McAlexander, M. Saitow, X. Wang,
    P. Verma, and M. H. Lechner

             Previous Authors, Complete List of Code Contributors,
                       and Citations for Specific Modules
    https://github.com/psi4/psi4/blob/master/codemeta.json
    https://github.com/psi4/psi4/graphs/contributors
    http://psicode.org/psi4manual/master/introduction.html#citing-psifour

    -----------------------------------------------------------------------


    Psi4 started on: Tuesday, 26 January 2021 06:19PM

    Process ID: 406318
    Host:       n412-040.vsc4.prov
    PSIDATADIR: /home/fs71337/gallo4/psi4/eri-6/psi4/build/stage/share/psi4
    Memory:     500.0 MiB
    Threads:    48
    
  ==> Input File <==

--------------------------------------------------------------------------
# Any line starting with the # character is a comment line
memory 250000 mb
molecule molecule{
0 1
N          0.0000000000        0.0000000000       -0.5570422157
N          0.0000000000        0.0000000000        0.5570422157
}

set {
  reference rhf
  basis aug-cc-pV(t+d)Z
  scf_type OUT_OF_CORE
  freeze_core true
}

energy('ccsd(t)')
--------------------------------------------------------------------------

  Memory set to 232.831 GiB by Python driver.

Scratch directory: /binfl/lv71337/airmler/temp/

*** tstart() called on n412-040.vsc4.prov
*** at Tue Jan 26 18:19:22 2021

   => Loading Basis Set <=

    Name: AUG-CC-PV(T+D)Z
    Role: ORBITAL
    Keyword: BASIS
    atoms 1-2 entry N          line   313 file /home/fs71337/gallo4/psi4/eri-6/psi4/build/stage/share/psi4/basis/aug-cc-pv_tpd_z.gbs 


         ---------------------------------------------------------
                                   SCF
               by Justin Turney, Rob Parrish, Andy Simmonett
                          and Daniel G. A. Smith
                              RHF Reference
                       48 Threads, 238418 MiB Core
         ---------------------------------------------------------

  ==> Geometry <==

    Molecular point group: d2h
    Full point group: D_inf_h

    Geometry (in Angstrom), charge = 0, multiplicity = 1:

       Center              X                  Y                   Z               Mass       
    ------------   -----------------  -----------------  -----------------  -----------------
         N            0.000000000000     0.000000000000    -0.557042215700    14.003074004430
         N            0.000000000000     0.000000000000     0.557042215700    14.003074004430

  Running in d2h symmetry.

  Rotational constants: A = ************  B =      1.93984  C =      1.93984 [cm^-1]
  Rotational constants: A = ************  B =  58155.07236  C =  58155.07236 [MHz]
  Nuclear repulsion =   23.274432881398223

  Charge       = 0
  Multiplicity = 1
  Electrons    = 14
  Nalpha       = 7
  Nbeta        = 7

  ==> Algorithm <==

  SCF Algorithm Type is OUT_OF_CORE.
  DIIS enabled.
  MOM disabled.
  Fractional occupation disabled.
  Guess Type is SAD.
  Energy threshold   = 1.00e-08
  Density threshold  = 1.00e-08
  Integral threshold = 1.00e-12

  ==> Primary Basis <==

  Basis Set: AUG-CC-PV(T+D)Z
    Blend: AUG-CC-PV(T+D)Z
    Number of shells: 28
    Number of basis function: 92
    Number of Cartesian functions: 110
    Spherical Harmonics?: true
    Max angular momentum: 3

  ==> Integral Setup <==

  ==> DiskJK: Disk-Based J/K Matrices <==

    J tasked:                  Yes
    K tasked:                  Yes
    wK tasked:                  No
    Memory [MiB]:           178813
    Schwarz Cutoff:          1E-12

  Minimum eigenvalue in the overlap matrix is 1.6813232507E-04.
  Reciprocal condition number of the overlap matrix is 3.3934750445E-05.
    Using symmetric orthogonalization.

  ==> Pre-Iterations <==

  SCF Guess: Superposition of Atomic Densities via on-the-fly atomic UHF (no occupation information).


 WARNING: Atomic UHF is not converging! Try casting from a smaller basis or call Rob at CCMST.
   -------------------------
    Irrep   Nso     Nmo    
   -------------------------
     Ag        19      19 
     B1g        5       5 
     B2g       11      11 
     B3g       11      11 
     Au         5       5 
     B1u       19      19 
     B2u       11      11 
     B3u       11      11 
   -------------------------
    Total      92      92
   -------------------------

  ==> Iterations <==

                        Total Energy        Delta E     RMS |[F,P]|

   @RHF iter SAD:   -99.55883565525926   -9.95588e+01   0.00000e+00 
   @RHF iter   1:  -108.94402884810572   -9.38519e+00   8.64840e-03 DIIS
   @RHF iter   2:  -108.97927099220504   -3.52421e-02   1.97412e-03 DIIS
   @RHF iter   3:  -108.98067359690144   -1.40260e-03   3.67533e-04 DIIS
   @RHF iter   4:  -108.98075770724067   -8.41103e-05   4.52796e-05 DIIS
   @RHF iter   5:  -108.98075983921264   -2.13197e-06   6.02441e-06 DIIS
   @RHF iter   6:  -108.98075988374069   -4.45281e-08   6.69611e-07 DIIS
   @RHF iter   7:  -108.98075988438310   -6.42416e-10   7.06667e-08 DIIS
   @RHF iter   8:  -108.98075988438886   -5.75540e-12   7.67839e-09 DIIS
  Energy and wave function converged.


  ==> Post-Iterations <==

    Orbital Energies [Eh]
    ---------------------

    Doubly Occupied:                                                      

       1Ag   -15.691416     1B1u  -15.688196     2Ag    -1.460643  
       2B1u   -0.785116     3Ag    -0.633146     1B3u   -0.607629  
       1B2u   -0.607629  

    Virtual:                                                              

       3B1u    0.082705     1B3g    0.114003     1B2g    0.114003  
       4Ag     0.116891     2B3u    0.125690     2B2u    0.125690  
       5Ag     0.160191     2B3g    0.204719     2B2g    0.204719  
       4B1u    0.280974     6Ag     0.413016     1B1g    0.413016  
       7Ag     0.479496     5B1u    0.529477     3B3u    0.568938  
       3B2u    0.568938     3B2g    0.578135     3B3g    0.578135  
       1Au     0.581843     6B1u    0.581843     4B3u    0.733138  
       4B2u    0.733138     7B1u    0.740736     8Ag     0.761401  
       4B2g    1.045307     4B3g    1.045307     8B1u    1.058050  
       9Ag     1.217088    10Ag     1.342132     2B1g    1.342132  
       5B2u    1.371265     5B3u    1.371265     6B3u    1.470259  
       6B2u    1.470259     9B1u    1.572414     2Au     1.572414  
      10B1u    1.600092    11Ag     1.694301     3B1g    1.698302  
      12Ag     1.698302     5B3g    1.716400     5B2g    1.716400  
       6B2g    1.719559     6B3g    1.719559    11B1u    1.993463  
       7B3u    2.148352     7B2u    2.148352    12B1u    2.302027  
       3Au     2.302027     7B2g    2.436343     7B3g    2.436343  
      13B1u    2.722621    13Ag     2.796277     8B3u    3.292020  
       8B2u    3.292020    14Ag     3.993187     8B2g    4.259891  
       8B3g    4.259891    15Ag     4.403036     4B1g    4.403036  
       9B3u    4.515342     9B2u    4.515342    14B1u    4.522558  
      16Ag     4.543224    10B2u    4.668395    10B3u    4.668395  
       9B3g    5.031732     9B2g    5.031732     5B1g    5.068033  
      17Ag     5.068033     4Au     5.153381    15B1u    5.153381  
      16B1u    5.157435    10B2g    5.421624    10B3g    5.421624  
      11B3u    5.570680    11B2u    5.570680     5Au     5.711231  
      17B1u    5.711231    18Ag     6.653806    18B1u    6.725741  
      11B2g    6.805998    11B3g    6.805998    19Ag    10.844948  
      19B1u   18.505202  

    Final Occupation by Irrep:
             Ag   B1g   B2g   B3g    Au   B1u   B2u   B3u 
    DOCC [     3,    0,    0,    0,    0,    2,    1,    1 ]

  @RHF Final Energy:  -108.98075988438886

   => Energetics <=

    Nuclear Repulsion Energy =             23.2744328813982229
    One-Electron Energy =                -193.5628377134802918
    Two-Electron Energy =                  61.3076449476932126
    Total Energy =                       -108.9807598843888741

Computation Completed


Properties will be evaluated at   0.000000,   0.000000,   0.000000 [a0]

Properties computed using the SCF density matrix

  Nuclear Dipole Moment: [e a0]
     X:     0.0000      Y:     0.0000      Z:    -0.0000

  Electronic Dipole Moment: [e a0]
     X:     0.0000      Y:     0.0000      Z:     0.0000

  Dipole Moment: [e a0]
     X:     0.0000      Y:     0.0000      Z:    -0.0000     Total:     0.0000

  Dipole Moment: [D]
     X:     0.0000      Y:     0.0000      Z:    -0.0000     Total:     0.0000


*** tstop() called on n412-040.vsc4.prov at Tue Jan 26 18:19:24 2021
Module time:
	user time   =      19.47 seconds =       0.32 minutes
	system time =       1.14 seconds =       0.02 minutes
	total time  =          2 seconds =       0.03 minutes
Total time:
	user time   =      19.47 seconds =       0.32 minutes
	system time =       1.14 seconds =       0.02 minutes
	total time  =          2 seconds =       0.03 minutes

*** tstart() called on n412-040.vsc4.prov
*** at Tue Jan 26 18:19:24 2021


	Wfn Parameters:
	--------------------
	Wavefunction         = CCSD_T
	Number of irreps     = 8
	Number of MOs        = 92
	Number of active MOs = 90
	AO-Basis             = NONE
	Semicanonical        = false
	Reference            = RHF
	Print Level          = 1

	IRREP	# MOs	# FZDC	# DOCC	# SOCC	# VIRT	# FZVR
	-----	-----	------	------	------	------	------
	 Ag	   19	    1	    2	    0	    16	    0
	 B1g	   5	    0	    0	    0	    5	    0
	 B2g	   11	    0	    0	    0	    11	    0
	 B3g	   11	    0	    0	    0	    11	    0
	 Au	   5	    0	    0	    0	    5	    0
	 B1u	   19	    1	    1	    0	    17	    0
	 B2u	   11	    0	    1	    0	    10	    0
	 B3u	   11	    0	    1	    0	    10	    0
	Transforming integrals...
	IWL integrals will be deleted.
	(OO|OO)...
	Presorting SO-basis two-electron integrals.
	Sorting File: SO Ints (nn|nn) nbuckets = 1
	Constructing frozen core operators
	Starting first half-transformation.
	Sorting half-transformed integrals.
	First half integral transformation complete.
	Starting second half-transformation.
	Two-electron integral transformation complete.
	(OO|OV)...
	Starting second half-transformation.
	Two-electron integral transformation complete.
	(OO|VV)...
	Starting second half-transformation.
	Two-electron integral transformation complete.
	(OV|OO)...
	Starting first half-transformation.
	Sorting half-transformed integrals.
	First half integral transformation complete.
	Starting second half-transformation.
	Two-electron integral transformation complete.
	(OV|OV)...
	Starting second half-transformation.
	Two-electron integral transformation complete.
	(OV|VV)...
	Starting second half-transformation.
	Two-electron integral transformation complete.
	(VV|OO)...
	Starting first half-transformation.
	Sorting half-transformed integrals.
	First half integral transformation complete.
	Starting second half-transformation.
	Two-electron integral transformation complete.
	(VV|OV)...
	Starting second half-transformation.
	Two-electron integral transformation complete.
	(VV|VV)...
	Starting second half-transformation.
	Two-electron integral transformation complete.
	Frozen core energy     =   -100.86662637212649

	Size of irrep 0 of <ab|cd> integrals:      1.075 (MW) /      8.603 (MB)
	Size of irrep 1 of <ab|cd> integrals:      0.596 (MW) /      4.768 (MB)
	Size of irrep 2 of <ab|cd> integrals:      0.814 (MW) /      6.509 (MB)
	Size of irrep 3 of <ab|cd> integrals:      0.814 (MW) /      6.509 (MB)
	Size of irrep 4 of <ab|cd> integrals:      0.593 (MW) /      4.743 (MB)
	Size of irrep 5 of <ab|cd> integrals:      1.069 (MW) /      8.553 (MB)
	Size of irrep 6 of <ab|cd> integrals:      0.817 (MW) /      6.538 (MB)
	Size of irrep 7 of <ab|cd> integrals:      0.817 (MW) /      6.538 (MB)
	Total:                                     6.595 (MW) /     52.760 (MB)

	Size of irrep 0 of <ia|bc> integrals:      0.072 (MW) /      0.572 (MB)
	Size of irrep 1 of <ia|bc> integrals:      0.027 (MW) /      0.216 (MB)
	Size of irrep 2 of <ia|bc> integrals:      0.049 (MW) /      0.390 (MB)
	Size of irrep 3 of <ia|bc> integrals:      0.049 (MW) /      0.390 (MB)
	Size of irrep 4 of <ia|bc> integrals:      0.028 (MW) /      0.228 (MB)
	Size of irrep 5 of <ia|bc> integrals:      0.074 (MW) /      0.596 (MB)
	Size of irrep 6 of <ia|bc> integrals:      0.047 (MW) /      0.376 (MB)
	Size of irrep 7 of <ia|bc> integrals:      0.047 (MW) /      0.376 (MB)
	Total:                                     0.393 (MW) /      3.144 (MB)

	Size of irrep 0 of tijab amplitudes:       0.007 (MW) /      0.058 (MB)
	Size of irrep 1 of tijab amplitudes:       0.002 (MW) /      0.012 (MB)
	Size of irrep 2 of tijab amplitudes:       0.002 (MW) /      0.014 (MB)
	Size of irrep 3 of tijab amplitudes:       0.002 (MW) /      0.014 (MB)
	Size of irrep 4 of tijab amplitudes:       0.000 (MW) /      0.000 (MB)
	Size of irrep 5 of tijab amplitudes:       0.004 (MW) /      0.033 (MB)
	Size of irrep 6 of tijab amplitudes:       0.004 (MW) /      0.029 (MB)
	Size of irrep 7 of tijab amplitudes:       0.004 (MW) /      0.029 (MB)
	Total:                                     0.024 (MW) /      0.190 (MB)

	Nuclear Rep. energy          =     23.27443288139822
	SCF energy                   =   -108.98075988438886
	One-electron energy          =    -54.58880879899572
	Two-electron energy          =     23.20024240533501
	Reference energy             =   -108.98075988438897

*** tstop() called on n412-040.vsc4.prov at Tue Jan 26 18:19:28 2021
Module time:
	user time   =       0.54 seconds =       0.01 minutes
	system time =       0.45 seconds =       0.01 minutes
	total time  =          4 seconds =       0.07 minutes
Total time:
	user time   =      20.01 seconds =       0.33 minutes
	system time =       1.59 seconds =       0.03 minutes
	total time  =          6 seconds =       0.10 minutes
            **************************
            *                        *
            *        CCENERGY        *
            *                        *
            **************************

    Nuclear Rep. energy (wfn)     =   23.274432881398223
    SCF energy          (wfn)     = -108.980759884388860
    Reference energy    (file100) = -108.980759884388974

    Input parameters:
    -----------------
    Wave function   =     CCSD_T
    Reference wfn   =     RHF
    Brueckner       =     No
    Memory (Mbytes) =     250000.0
    Maxiter         =     50
    R_Convergence   =     1.0e-07
    E_Convergence   =     1.0e-06
    Restart         =     Yes
    DIIS            =     Yes
    AO Basis        =     NONE
    ABCD            =     NEW
    Cache Level     =     2
    Cache Type      =     LOW
    Print Level     =     1
    Num. of threads =     48
    # Amps to Print =     10
    Print MP2 Amps? =     No
    Analyze T2 Amps =     No
    Print Pair Ener =     No
    Local CC        =     No
    SCS-MP2         =     False
    SCSN-MP2        =     False
    SCS-CCSD        =     False

MP2 correlation energy -0.3840400290630291
                Solving CC Amplitude Equations
                ------------------------------
  Iter             Energy              RMS        T1Diag      D1Diag    New D1Diag    D2Diag
  ----     ---------------------    ---------   ----------  ----------  ----------   --------
     0        -0.384040029063029    0.000e+00    0.000000    0.000000    0.000000    0.168131
     1        -0.363064710273704    6.243e-02    0.012500    0.025339    0.025339    0.157505
     2        -0.376805097187901    2.581e-02    0.011778    0.023459    0.023459    0.168345
     3        -0.379658645280893    9.216e-03    0.013471    0.026604    0.026604    0.174172
     4        -0.379931426000604    2.400e-03    0.013595    0.026745    0.026745    0.175707
     5        -0.380013577209241    5.937e-04    0.013632    0.026807    0.026807    0.176103
     6        -0.380014247332311    1.327e-04    0.013623    0.026794    0.026794    0.176132
     7        -0.380017987369709    2.942e-05    0.013622    0.026792    0.026792    0.176141
     8        -0.380018145374770    6.864e-06    0.013621    0.026792    0.026792    0.176142
     9        -0.380017909579612    1.581e-06    0.013621    0.026792    0.026792    0.176142
    10        -0.380017924730234    5.009e-07    0.013621    0.026792    0.026792    0.176142
    11        -0.380017930799157    1.525e-07    0.013621    0.026792    0.026792    0.176142
    12        -0.380017934059324    4.754e-08    0.013621    0.026792    0.026792    0.176142

    Iterations converged.


    Largest TIA Amplitudes:
              4  77         0.0190483779
              3  67         0.0190483767
              1   0        -0.0114760975
              4  75         0.0110527713
              3  65         0.0110527699
              3  69         0.0100690896
              4  79         0.0100690894
              2  53        -0.0099316224
              4  81         0.0082121854
              3  71         0.0082121854

    Largest TIjAb Amplitudes:
      4   4  22  22        -0.0520492891
      3   3  33  33        -0.0520492884
      4   4  21  22        -0.0493627718
      4   4  22  21        -0.0493627718
      3   3  32  33        -0.0493627718
      3   3  33  32        -0.0493627718
      3   3  32  32        -0.0472020898
      4   4  21  21        -0.0472020893
      3   4  33  22        -0.0325070467
      4   3  22  33        -0.0325070467

    SCF energy       (wfn)                    = -108.980759884388846
    Reference energy (file100)                = -108.980759884388846

    Opposite-spin MP2 correlation energy      =   -0.285843481967782
    Same-spin MP2 correlation energy          =   -0.098196547690704
    Singles MP2 correlation energy            =   -0.000000000000000
    MP2 correlation energy                    =   -0.384040029658487
      * MP2 total energy                      = -109.364799914047339

    Opposite-spin CCSD correlation energy     =   -0.299475747312184
    Same-spin CCSD correlation energy         =   -0.080542186747141
    Singles CCSD correlation energy           =    0.000000000000000
    CCSD correlation energy                   =   -0.380017934059324
      * CCSD total energy                     = -109.360777818448170

            **************************
            *                        *
            *        CCTRIPLES       *
            *                        *
            **************************


    Wave function   =    CCSD_T
    Reference wfn   =      RHF

    Nuclear Rep. energy (wfn)                =   23.274432881398223
    SCF energy          (wfn)                = -108.980759884388846
    Reference energy    (file100)            = -108.980759884388846
    CCSD energy         (file100)            =   -0.380017934059324
    Total CCSD energy   (file100)            = -109.360777818448170

    Number of ijk index combinations:               35
    Memory available in words        :     31250000000
    ~Words needed per explicit thread:           19652
    Number of threads for explicit ijk threading:   48

    (T) energy                                =   -0.019808615834553
      * CCSD(T) total energy                  = -109.380586434282719


    Psi4 stopped on: Tuesday, 26 January 2021 06:19PM
    Psi4 wall time for execution: 0:00:11.37

*** Psi4 exiting successfully. Buy a developer a beer!
