
    -----------------------------------------------------------------------
          Psi4: An Open-Source Ab Initio Electronic Structure Package
                               Psi4 1.2a1.dev939 

                         Git: Rev {HEAD} fa1ec19 


    R. M. Parrish, L. A. Burns, D. G. A. Smith, A. C. Simmonett,
    A. E. DePrince III, E. G. Hohenstein, U. Bozkaya, A. Yu. Sokolov,
    R. Di Remigio, R. M. Richard, J. F. Gonthier, A. M. James,
    H. R. McAlexander, A. Kumar, M. Saitow, X. Wang, B. P. Pritchard,
    P. Verma, H. F. Schaefer III, K. Patkowski, R. A. King, E. F. Valeev,
    F. A. Evangelista, J. M. Turney, T. D. Crawford, and C. D. Sherrill,
    J. Chem. Theory Comput. 13(7) pp 3185--3197 (2017).
    (doi: 10.1021/acs.jctc.7b00174)

    -----------------------------------------------------------------------


    Psi4 started on: Wednesday, 01 May 2019 04:02PM

    Process ID:  30249
    PSIDATADIR: /home/grueneis/src/psi4/objdir/stage/usr/local/psi4/share/psi4
    Memory:     500.0 MiB
    Threads:    1
    
  ==> Input File <==

--------------------------------------------------------------------------
# Any line starting with the # character is a comment line

memory 32000 mb

molecule molecule {
0 1
F          0.0000000000        0.0000000000       -0.0464431179
H          0.0000000000        0.0000000000        0.8753944384
}

set {
  reference rhf


  basis aug-cc-pv(5+d)z
  scf_type OUT_OF_CORE
  freeze_core true
}

energy('ccsd')
--------------------------------------------------------------------------

  Memory set to  29.802 GiB by Python driver.

*** tstart() called on cqc01
*** at Wed May  1 16:02:25 2019

   => Loading Basis Set <=

    Name: AUG-CC-PV(5+D)Z
    Role: ORBITAL
    Keyword: BASIS
    atoms 1 entry F          line   454 file /home/grueneis/src/psi4/objdir/stage/usr/local/psi4/share/psi4/basis/aug-cc-pv_5pd_z.gbs 
    atoms 2 entry H          line    56 file /home/grueneis/src/psi4/objdir/stage/usr/local/psi4/share/psi4/basis/aug-cc-pv_5pd_z.gbs 


         ---------------------------------------------------------
                                   SCF
            by Justin Turney, Rob Parrish, Andy Simmonett
                             and Daniel Smith
                              RHF Reference
                        1 Threads,  30517 MiB Core
         ---------------------------------------------------------

  ==> Geometry <==

    Molecular point group: c2v
    Full point group: C_inf_v

    Geometry (in Angstrom), charge = 0, multiplicity = 1:

       Center              X                  Y                   Z               Mass       
    ------------   -----------------  -----------------  -----------------  -----------------
           F          0.000000000000     0.000000000000    -0.046438086822    18.998403224000
           H          0.000000000000     0.000000000000     0.875399469478     1.007825032070

  Running in c2v symmetry.

  Rotational constants: A = ************  B =     20.72768  C =     20.72768 [cm^-1]
  Rotational constants: A = ************  B = 621400.18513  C = 621400.18513 [MHz]
  Nuclear repulsion =    5.166414456388319

  Charge       = 0
  Multiplicity = 1
  Electrons    = 10
  Nalpha       = 5
  Nbeta        = 5

  ==> Algorithm <==

  SCF Algorithm Type is OUT_OF_CORE.
  DIIS enabled.
  MOM disabled.
  Fractional occupation disabled.
  Guess Type is SAD.
  Energy threshold   = 1.00e-08
  Density threshold  = 1.00e-08
  Integral threshold = 0.00e+00

  ==> Primary Basis <==

  Basis Set: AUG-CC-PV(5+D)Z
    Blend: AUG-CC-PV(5+D)Z
    Number of shells: 47
    Number of basis function: 207
    Number of Cartesian functions: 287
    Spherical Harmonics?: true
    Max angular momentum: 5

  ==> Pre-Iterations <==

   -------------------------------------------------------
    Irrep   Nso     Nmo     Nalpha   Nbeta   Ndocc  Nsocc
   -------------------------------------------------------
     A1        77      77       0       0       0       0
     A2        30      30       0       0       0       0
     B1        50      50       0       0       0       0
     B2        50      50       0       0       0       0
   -------------------------------------------------------
    Total     207     207       5       5       5       0
   -------------------------------------------------------

  ==> Integral Setup <==

  ==> DiskJK: Disk-Based J/K Matrices <==

    J tasked:                  Yes
    K tasked:                  Yes
    wK tasked:                  No
    Memory (MB):             22888
    Schwarz Cutoff:          1E-12

  Minimum eigenvalue in the overlap matrix is 1.9298930491E-05.
  Using Symmetric Orthogonalization.

  SCF Guess: Superposition of Atomic Densities via on-the-fly atomic UHF.

  ==> Iterations <==

                        Total Energy        Delta E     RMS |[F,P]|

   @RHF iter   0:  -100.02494310487818   -1.00025e+02   1.15166e-02 
   @RHF iter   1:  -100.03396651527041   -9.02341e-03   2.77053e-03 
   @RHF iter   2:  -100.06241925309013   -2.84527e-02   1.57239e-03 DIIS
   @RHF iter   3:  -100.06968346465692   -7.26421e-03   2.73283e-04 DIIS
   @RHF iter   4:  -100.07023299629476   -5.49532e-04   8.29804e-05 DIIS
   @RHF iter   5:  -100.07031080565272   -7.78094e-05   1.59567e-05 DIIS
   @RHF iter   6:  -100.07031444519481   -3.63954e-06   1.96445e-06 DIIS
   @RHF iter   7:  -100.07031450368625   -5.84914e-08   2.78492e-07 DIIS
   @RHF iter   8:  -100.07031450474095   -1.05470e-09   5.72271e-08 DIIS
   @RHF iter   9:  -100.07031450478216   -4.12115e-11   7.04154e-09 DIIS

  ==> Post-Iterations <==

    Orbital Energies (a.u.)
    -----------------------

    Doubly Occupied:                                                      

       1A1   -26.294740     2A1    -1.599293     3A1    -0.766325  
       1B1    -0.649900     1B2    -0.649900  

    Virtual:                                                              

       4A1     0.023392     5A1     0.097753     2B1     0.133425  
       2B2     0.133425     6A1     0.138405     3B1     0.189455  
       3B2     0.189455     7A1     0.199535     8A1     0.314764  
       9A1     0.415320     1A2     0.466545    10A1     0.466545  
       4B1     0.480504     4B2     0.480504    11A1     0.531383  
       5B1     0.613645     5B2     0.613645     2A2     0.617268  
      12A1     0.617268     6B1     0.623878     6B2     0.623878  
      13A1     0.632840    14A1     0.730858    15A1     0.998330  
       7B1     1.033797     7B2     1.033797     8B1     1.138649  
       8B2     1.138649    16A1     1.219629     9B1     1.241001  
       9B2     1.241001    17A1     1.253856     3A2     1.254751  
      18A1     1.254751     4A2     1.509819    19A1     1.509819  
      10B1     1.527783    10B2     1.527783    20A1     1.531901  
      11B1     1.563366    11B2     1.563366    21A1     1.657556  
       5A2     1.662210    22A1     1.662210    12B1     1.816469  
      12B2     1.816469    23A1     2.014776    13B1     2.133256  
      13B2     2.133256    24A1     2.308951    14B1     2.453914  
      14B2     2.453914     6A2     2.488530    25A1     2.488530  
      26A1     2.848329     7A2     2.862461    27A1     2.862461  
      15B1     2.976613    15B2     2.976613    28A1     3.063870  
      29A1     3.088265     8A2     3.088265    16B1     3.169840  
      16B2     3.169840    30A1     3.265688    17B1     3.424247  
      17B2     3.424247    31A1     3.600626     9A2     3.600626  
      18B1     3.617819    18B2     3.617819    32A1     3.704707  
      33A1     3.897655    10A2     3.897655    19B1     3.935144  
      19B2     3.935144    34A1     4.001223    11A2     4.001223  
      20B1     4.012169    20B2     4.012169    35A1     4.071375  
      21B1     4.155186    21B2     4.155186    36A1     4.332636  
      12A2     4.618456    37A1     4.618456    38A1     4.720635  
      22B1     4.952302    22B2     4.952302    23B1     5.069408  
      23B2     5.069408    39A1     5.552787    13A2     5.552787  
      24B1     5.553294    24B2     5.553294    40A1     5.946752  
      41A1     6.303899    42A1     6.387592    14A2     6.387592  
      25B1     6.416618    25B2     6.416618    43A1     6.526437  
      26B1     6.780195    26B2     6.780195    44A1     7.714065  
      27B2     7.910970    27B1     7.910970    28B1     8.026290  
      28B2     8.026290    15A2     8.203794    45A1     8.203794  
      46A1     8.694204    29B1     8.755776    29B2     8.755776  
      16A2     9.106834    47A1     9.106834    30B2     9.294034  
      30B1     9.294034    48A1     9.297450    17A2     9.297450  
      31B2     9.344941    31B1     9.344941    49A1     9.478073  
      50A1     9.514221    18A2     9.514221    32B2     9.853817  
      32B1     9.853817    33B1    10.060620    33B2    10.060620  
      51A1    10.263915    52A1    10.487396    19A2    10.487396  
      53A1    10.864861    34B2    11.041246    34B1    11.041246  
      54A1    11.477457    20A2    11.477457    55A1    12.050789  
      35B2    12.787338    35B1    12.787338    36B1    13.003923  
      36B2    13.003923    56A1    13.167580    21A2    13.167580  
      57A1    13.992756    22A2    13.992756    58A1    14.151031  
      23A2    14.151031    37B2    14.307542    37B1    14.307542  
      59A1    14.332502    38B1    14.460277    38B2    14.460277  
      60A1    15.018124    39B2    15.617721    39B1    15.617721  
      61A1    15.741264    62A1    16.843892    24A2    16.843892  
      63A1    16.963140    40B1    17.080538    40B2    17.080538  
      64A1    18.423488    41B2    18.900549    41B1    18.900549  
      42B2    20.586712    42B1    20.586712    43B1    20.968168  
      43B2    20.968168    25A2    21.059005    65A1    21.059005  
      44B2    21.387857    44B1    21.387857    66A1    21.805264  
      67A1    22.098488    26A2    22.098488    68A1    22.311080  
      45B2    22.726454    45B1    22.726454    69A1    23.366686  
      27A2    24.587735    70A1    24.587735    46B2    24.722869  
      46B1    24.722869    71A1    25.021686    28A2    25.021686  
      47B2    25.641032    47B1    25.641032    48B1    25.744243  
      48B2    25.744243    72A1    25.782503    73A1    26.171460  
      29A2    26.171460    49B2    28.641869    49B1    28.641869  
      74A1    29.184753    30A2    29.184753    75A1    30.438268  
      50B2    30.672719    50B1    30.672719    76A1    32.516336  
      77A1    82.560989  

    Final Occupation by Irrep:
             A1    A2    B1    B2 
    DOCC [     3,    0,    1,    1 ]

  Energy converged.

  @RHF Final Energy:  -100.07031450478216

   => Energetics <=

    Nuclear Repulsion Energy =              5.1664144563883188
    One-Electron Energy =                -150.5531417293338450
    Two-Electron Energy =                  45.3164127681633815
    Total Energy =                       -100.0703145047821465



Properties will be evaluated at   0.000000,   0.000000,   0.000000 Bohr

Properties computed using the SCF density matrix

  Nuclear Dipole Moment: (a.u.)
     X:     0.0000      Y:     0.0000      Z:     0.8645

  Electronic Dipole Moment: (a.u.)
     X:     0.0000      Y:     0.0000      Z:    -0.1046

  Dipole Moment: (a.u.)
     X:     0.0000      Y:     0.0000      Z:     0.7599     Total:     0.7599

  Dipole Moment: (Debye)
     X:     0.0000      Y:     0.0000      Z:     1.9314     Total:     1.9314


*** tstop() called on cqc01 at Wed May  1 16:06:00 2019
Module time:
	user time   =      22.41 seconds =       0.37 minutes
	system time =       4.63 seconds =       0.08 minutes
	total time  =        215 seconds =       3.58 minutes
Total time:
	user time   =      22.41 seconds =       0.37 minutes
	system time =       4.63 seconds =       0.08 minutes
	total time  =        215 seconds =       3.58 minutes

*** tstart() called on cqc01
*** at Wed May  1 16:06:00 2019


	Wfn Parameters:
	--------------------
	Wavefunction         = CCSD
	Number of irreps     = 4
	Number of MOs        = 207
	Number of active MOs = 206
	AO-Basis             = NONE
	Semicanonical        = false
	Reference            = RHF
	Print Level          = 1

	IRREP	# MOs	# FZDC	# DOCC	# SOCC	# VIRT	# FZVR
	-----	-----	------	------	------	------	------
	 A1	   77	    1	    2	    0	    74	    0
	 A2	   30	    0	    0	    0	    30	    0
	 B1	   50	    0	    1	    0	    49	    0
	 B2	   50	    0	    1	    0	    49	    0
	Transforming integrals...
	IWL integrals will be deleted.
	(OO|OO)...
	Presorting SO-basis two-electron integrals.
	Sorting File: SO Ints (nn|nn) nbuckets = 1
	Transforming the one-electron integrals and constructing Fock matrices
	Starting first half-transformation.
	Sorting half-transformed integrals.
	First half integral transformation complete.
	Starting second half-transformation.
	Two-electron integral transformation complete.
	(OO|OV)...
	Starting second half-transformation.
	Two-electron integral transformation complete.
	(OO|VV)...
	Starting second half-transformation.
	Two-electron integral transformation complete.
	(OV|OO)...
	Starting first half-transformation.
	Sorting half-transformed integrals.
	First half integral transformation complete.
	Starting second half-transformation.
	Two-electron integral transformation complete.
	(OV|OV)...
	Starting second half-transformation.
	Two-electron integral transformation complete.
	(OV|VV)...
	Starting second half-transformation.
	Two-electron integral transformation complete.
	(VV|OO)...
	Starting first half-transformation.
	Sorting half-transformed integrals.
	First half integral transformation complete.
	Starting second half-transformation.
	Two-electron integral transformation complete.
	(VV|OV)...
	Starting second half-transformation.
	Two-electron integral transformation complete.
	(VV|VV)...
	Starting second half-transformation.
	Two-electron integral transformation complete.
	Frozen core energy     =    -76.62761042373943

	Size of irrep 0 of <ab|cd> integrals:    124.948 (MW) /    999.581 (MB)
	Size of irrep 1 of <ab|cd> integrals:     85.415 (MW) /    683.317 (MB)
	Size of irrep 2 of <ab|cd> integrals:    103.877 (MW) /    831.015 (MB)
	Size of irrep 3 of <ab|cd> integrals:    103.877 (MW) /    831.015 (MB)
	Total:                                   418.116 (MW) /   3344.928 (MB)

	Size of irrep 0 of <ia|bc> integrals:      2.750 (MW) /     21.998 (MB)
	Size of irrep 1 of <ia|bc> integrals:      1.460 (MW) /     11.682 (MB)
	Size of irrep 2 of <ia|bc> integrals:      2.059 (MW) /     16.470 (MB)
	Size of irrep 3 of <ia|bc> integrals:      2.059 (MW) /     16.470 (MB)
	Total:                                     8.328 (MW) /     66.621 (MB)

	Size of irrep 0 of tijab amplitudes:       0.067 (MW) /      0.537 (MB)
	Size of irrep 1 of tijab amplitudes:       0.018 (MW) /      0.148 (MB)
	Size of irrep 2 of tijab amplitudes:       0.041 (MW) /      0.326 (MB)
	Size of irrep 3 of tijab amplitudes:       0.041 (MW) /      0.326 (MB)
	Total:                                     0.167 (MW) /      1.337 (MB)

	Nuclear Rep. energy          =      5.16641445638832
	SCF energy                   =   -100.07031450478216
	One-electron energy          =    -49.88740233280702
	Two-electron energy          =     21.27828379537521
	Reference energy             =   -100.07031450478291

*** tstop() called on cqc01 at Wed May  1 16:09:25 2019
Module time:
	user time   =      32.98 seconds =       0.55 minutes
	system time =      30.57 seconds =       0.51 minutes
	total time  =        205 seconds =       3.42 minutes
Total time:
	user time   =      55.39 seconds =       0.92 minutes
	system time =      35.20 seconds =       0.59 minutes
	total time  =        420 seconds =       7.00 minutes

*** tstart() called on cqc01
*** at Wed May  1 16:09:25 2019

            **************************
            *                        *
            *        CCENERGY        *
            *                        *
            **************************

    Nuclear Rep. energy (wfn)     =    5.166414456388319
    SCF energy          (wfn)     = -100.070314504782161
    Reference energy    (file100) = -100.070314504782914

    Input parameters:
    -----------------
    Wave function   =     CCSD
    Reference wfn   =     RHF
    Brueckner       =     No
    Memory (Mbytes) =     32000.0
    Maxiter         =     50
    R_Convergence   =     1.0e-07
    E_Convergence   =     1.0e-06
    Restart         =     Yes
    DIIS            =     Yes
    AO Basis        =     NONE
    ABCD            =     NEW
    Cache Level     =     2
    Cache Type      =     LOW
    Print Level     =     1
    Num. of threads =     1
    # Amps to Print =     10
    Print MP2 Amps? =     No
    Analyze T2 Amps =     No
    Print Pair Ener =     No
    Local CC        =     No
    SCS-MP2         =     False
    SCSN-MP2        =     False
    SCS-CCSD        =     False

MP2 correlation energy -0.3102312570808232
                Solving CC Amplitude Equations
                ------------------------------
  Iter             Energy              RMS        T1Diag      D1Diag    New D1Diag    D2Diag
  ----     ---------------------    ---------   ----------  ----------  ----------   --------
     0        -0.310231257080730    0.000e+00    0.000000    0.000000    0.000000    0.113614
     1        -0.309873277667599    1.993e-01    0.016610    0.028979    0.028979    0.123755
     2        -0.311486191287010    3.088e-02    0.009227    0.015970    0.015970    0.123582
     3        -0.308219204308410    8.522e-03    0.009720    0.017102    0.017102    0.120704
     4        -0.307629925093394    2.106e-03    0.009233    0.016223    0.016223    0.119989
     5        -0.307680403271125    4.722e-04    0.009087    0.015970    0.015970    0.119824
     6        -0.307676477320754    1.380e-04    0.009062    0.015924    0.015924    0.119788
     7        -0.307670709108678    4.375e-05    0.009051    0.015902    0.015902    0.119777
     8        -0.307671756912546    1.051e-05    0.009050    0.015899    0.015899    0.119778
     9        -0.307671942294866    3.366e-06    0.009050    0.015898    0.015898    0.119778
    10        -0.307671860321593    9.796e-07    0.009050    0.015898    0.015898    0.119778
    11        -0.307671869649193    2.388e-07    0.009050    0.015898    0.015898    0.119779
    12        -0.307671885893557    7.442e-08    0.009050    0.015898    0.015898    0.119779
    12        -0.307671885893557    7.442e-08    0.009050    0.015898    0.015898    0.119779

    Iterations converged.


    CCSD corr. energy   =   -0.307671885893557
    PPL corr. energy    =    0.058646344672081
    OS PPL corr. energy =    0.048654238586122
    SS PPL corr. energy =    0.009992106085961
    Largest TIA Amplitudes:
              3 153        -0.0105785049
              2 104        -0.0105782563
              3 155        -0.0074909182
              2 106        -0.0074907548
              3 156        -0.0065170627
              2 107        -0.0065168641
              1   4         0.0039027586
              1  20         0.0034132563
              3 158        -0.0033713296
              2 109        -0.0033712463

    Largest TIjAb Amplitudes:
      1   1   5   5        -0.0259979189
      1   1  10  10        -0.0212501519
      3   3 156 156        -0.0188682112
      2   2 107 107        -0.0188681884
      1   1   2   5         0.0169457708
      1   1   5   2         0.0169457708
      1   1   4  10         0.0166239115
      1   1  10   4         0.0166239115
      1   1   5  10        -0.0165828334
      1   1  10   5        -0.0165828334

    SCF energy       (wfn)                    = -100.070314504782161
    Reference energy (file100)                = -100.070314504782914

    Opposite-spin MP2 correlation energy      =   -0.235412389959777
    Same-spin MP2 correlation energy          =   -0.074818867120953
    MP2 correlation energy                    =   -0.310231257080823
      * MP2 total energy                      = -100.380545761863743

    Opposite-spin CCSD correlation energy     =   -0.240866132687520
    Same-spin CCSD correlation energy         =   -0.066805751132342
    CCSD correlation energy                   =   -0.307671885893557
      * CCSD total energy                     = -100.377986390676469


*** tstop() called on cqc01 at Wed May  1 16:11:21 2019
Module time:
	user time   =       7.37 seconds =       0.12 minutes
	system time =      15.84 seconds =       0.26 minutes
	total time  =        116 seconds =       1.93 minutes
Total time:
	user time   =      62.76 seconds =       1.05 minutes
	system time =      51.04 seconds =       0.85 minutes
	total time  =        536 seconds =       8.93 minutes

*** Psi4 exiting successfully. Buy a developer a beer!
