
    -----------------------------------------------------------------------
          Psi4: An Open-Source Ab Initio Electronic Structure Package
                               Psi4 1.2a1.dev939 

                         Git: Rev {HEAD} fa1ec19 


    R. M. Parrish, L. A. Burns, D. G. A. Smith, A. C. Simmonett,
    A. E. DePrince III, E. G. Hohenstein, U. Bozkaya, A. Yu. Sokolov,
    R. Di Remigio, R. M. Richard, J. F. Gonthier, A. M. James,
    H. R. McAlexander, A. Kumar, M. Saitow, X. Wang, B. P. Pritchard,
    P. Verma, H. F. Schaefer III, K. Patkowski, R. A. King, E. F. Valeev,
    F. A. Evangelista, J. M. Turney, T. D. Crawford, and C. D. Sherrill,
    J. Chem. Theory Comput. 13(7) pp 3185--3197 (2017).
    (doi: 10.1021/acs.jctc.7b00174)

    -----------------------------------------------------------------------


    Psi4 started on: Friday, 26 April 2019 03:35PM

    Process ID:   2096
    PSIDATADIR: /home/grueneis/src/psi4/objdir/stage/usr/local/psi4/share/psi4
    Memory:     500.0 MiB
    Threads:    1
    
  ==> Input File <==

--------------------------------------------------------------------------
# Any line starting with the # character is a comment line

memory 32000 mb

molecule molecule {
0 1
F          0.0000000000        0.0000000000       -0.0464431179
H          0.0000000000        0.0000000000        0.8753944384
}

set {
  reference rhf
  basis aug-cc-pv(D+d)z
  scf_type OUT_OF_CORE
  freeze_core true
}

energy('ccsd')
--------------------------------------------------------------------------

  Memory set to  29.802 GiB by Python driver.

*** tstart() called on cqc01
*** at Fri Apr 26 15:35:47 2019

   => Loading Basis Set <=

    Name: AUG-CC-PV(D+D)Z
    Role: ORBITAL
    Keyword: BASIS
    atoms 1 entry F          line   306 file /home/grueneis/src/psi4/objdir/stage/usr/local/psi4/share/psi4/basis/aug-cc-pv_dpd_z.gbs 
    atoms 2 entry H          line    56 file /home/grueneis/src/psi4/objdir/stage/usr/local/psi4/share/psi4/basis/aug-cc-pv_dpd_z.gbs 


         ---------------------------------------------------------
                                   SCF
            by Justin Turney, Rob Parrish, Andy Simmonett
                             and Daniel Smith
                              RHF Reference
                        1 Threads,  30517 MiB Core
         ---------------------------------------------------------

  ==> Geometry <==

    Molecular point group: c2v
    Full point group: C_inf_v

    Geometry (in Angstrom), charge = 0, multiplicity = 1:

       Center              X                  Y                   Z               Mass       
    ------------   -----------------  -----------------  -----------------  -----------------
           F          0.000000000000     0.000000000000    -0.046438086822    18.998403224000
           H          0.000000000000     0.000000000000     0.875399469478     1.007825032070

  Running in c2v symmetry.

  Rotational constants: A = ************  B =     20.72768  C =     20.72768 [cm^-1]
  Rotational constants: A = ************  B = 621400.18513  C = 621400.18513 [MHz]
  Nuclear repulsion =    5.166414456388319

  Charge       = 0
  Multiplicity = 1
  Electrons    = 10
  Nalpha       = 5
  Nbeta        = 5

  ==> Algorithm <==

  SCF Algorithm Type is OUT_OF_CORE.
  DIIS enabled.
  MOM disabled.
  Fractional occupation disabled.
  Guess Type is SAD.
  Energy threshold   = 1.00e-08
  Density threshold  = 1.00e-08
  Integral threshold = 0.00e+00

  ==> Primary Basis <==

  Basis Set: AUG-CC-PV(D+D)Z
    Blend: AUG-CC-PV(D+D)Z
    Number of shells: 14
    Number of basis function: 32
    Number of Cartesian functions: 34
    Spherical Harmonics?: true
    Max angular momentum: 2

  ==> Pre-Iterations <==

   -------------------------------------------------------
    Irrep   Nso     Nmo     Nalpha   Nbeta   Ndocc  Nsocc
   -------------------------------------------------------
     A1        16      16       0       0       0       0
     A2         2       2       0       0       0       0
     B1         7       7       0       0       0       0
     B2         7       7       0       0       0       0
   -------------------------------------------------------
    Total      32      32       5       5       5       0
   -------------------------------------------------------

  ==> Integral Setup <==

  ==> DiskJK: Disk-Based J/K Matrices <==

    J tasked:                  Yes
    K tasked:                  Yes
    wK tasked:                  No
    Memory (MB):             22888
    Schwarz Cutoff:          1E-12

  Minimum eigenvalue in the overlap matrix is 2.1533741909E-03.
  Using Symmetric Orthogonalization.

  SCF Guess: Superposition of Atomic Densities via on-the-fly atomic UHF.

  ==> Iterations <==

                        Total Energy        Delta E     RMS |[F,P]|

   @RHF iter   0:   -99.89853205371436   -9.98985e+01   6.41940e-02 
   @RHF iter   1:  -100.00246322032640   -1.03931e-01   1.46108e-02 
   @RHF iter   2:  -100.02602819677674   -2.35650e-02   8.15444e-03 DIIS
   @RHF iter   3:  -100.03295637986290   -6.92818e-03   1.06987e-03 DIIS
   @RHF iter   4:  -100.03320608830283   -2.49708e-04   3.17781e-04 DIIS
   @RHF iter   5:  -100.03324048591607   -3.43976e-05   6.49320e-05 DIIS
   @RHF iter   6:  -100.03324247336832   -1.98745e-06   7.04905e-06 DIIS
   @RHF iter   7:  -100.03324249747014   -2.41018e-08   6.34131e-07 DIIS
   @RHF iter   8:  -100.03324249760325   -1.33113e-10   7.99603e-08 DIIS
   @RHF iter   9:  -100.03324249760529   -2.03215e-12   7.02922e-09 DIIS

  ==> Post-Iterations <==

    Orbital Energies (a.u.)
    -----------------------

    Doubly Occupied:                                                      

       1A1   -26.311014     2A1    -1.605843     3A1    -0.769382  
       1B1    -0.650275     1B2    -0.650275  

    Virtual:                                                              

       4A1     0.035659     5A1     0.194172     2B1     0.244218  
       2B2     0.244218     6A1     0.256011     7A1     0.360891  
       3B1     0.402219     3B2     0.402219     8A1     0.659630  
       9A1     0.938421    10A1     1.346639     1A2     1.346639  
       4B2     1.431522     4B1     1.431522    11A1     1.623565  
       5B1     1.670051     5B2     1.670051    12A1     2.065589  
       6B1     2.158693     6B2     2.158693    13A1     2.658789  
      14A1     3.592324     2A2     4.852751    15A1     4.852751  
       7B1     4.925859     7B2     4.925859    16A1     5.144331  

    Final Occupation by Irrep:
             A1    A2    B1    B2 
    DOCC [     3,    0,    1,    1 ]

  Energy converged.

  @RHF Final Energy:  -100.03324249760529

   => Energetics <=

    Nuclear Repulsion Energy =              5.1664144563883188
    One-Electron Energy =                -150.4257363069887106
    Two-Electron Energy =                  45.2260793529951144
    PCM Polarization Energy =               0.0000000000000000
    Total Energy =                       -100.0332424976052863

    Alert: EFP and PCM quantities not currently incorporated into SCF psivars.

Properties will be evaluated at   0.000000,   0.000000,   0.000000 Bohr

Properties computed using the SCF density matrix

  Nuclear Dipole Moment: (a.u.)
     X:     0.0000      Y:     0.0000      Z:     0.8645

  Electronic Dipole Moment: (a.u.)
     X:     0.0000      Y:     0.0000      Z:    -0.1010

  Dipole Moment: (a.u.)
     X:     0.0000      Y:     0.0000      Z:     0.7635     Total:     0.7635

  Dipole Moment: (Debye)
     X:     0.0000      Y:     0.0000      Z:     1.9405     Total:     1.9405


*** tstop() called on cqc01 at Fri Apr 26 15:35:47 2019
Module time:
	user time   =       0.44 seconds =       0.01 minutes
	system time =       0.26 seconds =       0.00 minutes
	total time  =          0 seconds =       0.00 minutes
Total time:
	user time   =       0.44 seconds =       0.01 minutes
	system time =       0.26 seconds =       0.00 minutes
	total time  =          0 seconds =       0.00 minutes

*** tstart() called on cqc01
*** at Fri Apr 26 15:35:47 2019


	Wfn Parameters:
	--------------------
	Wavefunction         = CCSD
	Number of irreps     = 4
	Number of MOs        = 32
	Number of active MOs = 31
	AO-Basis             = NONE
	Semicanonical        = false
	Reference            = RHF
	Print Level          = 1

	IRREP	# MOs	# FZDC	# DOCC	# SOCC	# VIRT	# FZVR
	-----	-----	------	------	------	------	------
	 A1	   16	    1	    2	    0	    13	    0
	 A2	   2	    0	    0	    0	    2	    0
	 B1	   7	    0	    1	    0	    6	    0
	 B2	   7	    0	    1	    0	    6	    0
	Transforming integrals...
	IWL integrals will be deleted.
	(OO|OO)...
	Presorting SO-basis two-electron integrals.
	Sorting File: SO Ints (nn|nn) nbuckets = 1
	Transforming the one-electron integrals and constructing Fock matrices
	Starting first half-transformation.
	Sorting half-transformed integrals.
	First half integral transformation complete.
	Starting second half-transformation.
	Two-electron integral transformation complete.
	(OO|OV)...
	Starting second half-transformation.
	Two-electron integral transformation complete.
	(OO|VV)...
	Starting second half-transformation.
	Two-electron integral transformation complete.
	(OV|OO)...
	Starting first half-transformation.
	Sorting half-transformed integrals.
	First half integral transformation complete.
	Starting second half-transformation.
	Two-electron integral transformation complete.
	(OV|OV)...
	Starting second half-transformation.
	Two-electron integral transformation complete.
	(OV|VV)...
	Starting second half-transformation.
	Two-electron integral transformation complete.
	(VV|OO)...
	Starting first half-transformation.
	Sorting half-transformed integrals.
	First half integral transformation complete.
	Starting second half-transformation.
	Two-electron integral transformation complete.
	(VV|OV)...
	Starting second half-transformation.
	Two-electron integral transformation complete.
	(VV|VV)...
	Starting second half-transformation.
	Two-electron integral transformation complete.
	Frozen core energy     =    -76.62537629727512

	Size of irrep 0 of <ab|cd> integrals:      0.060 (MW) /      0.480 (MB)
	Size of irrep 1 of <ab|cd> integrals:      0.015 (MW) /      0.123 (MB)
	Size of irrep 2 of <ab|cd> integrals:      0.032 (MW) /      0.259 (MB)
	Size of irrep 3 of <ab|cd> integrals:      0.032 (MW) /      0.259 (MB)
	Total:                                     0.140 (MW) /      1.122 (MB)

	Size of irrep 0 of <ia|bc> integrals:      0.009 (MW) /      0.074 (MB)
	Size of irrep 1 of <ia|bc> integrals:      0.002 (MW) /      0.016 (MB)
	Size of irrep 2 of <ia|bc> integrals:      0.005 (MW) /      0.039 (MB)
	Size of irrep 3 of <ia|bc> integrals:      0.005 (MW) /      0.039 (MB)
	Total:                                     0.021 (MW) /      0.168 (MB)

	Size of irrep 0 of tijab amplitudes:       0.001 (MW) /      0.012 (MB)
	Size of irrep 1 of tijab amplitudes:       0.000 (MW) /      0.002 (MB)
	Size of irrep 2 of tijab amplitudes:       0.001 (MW) /      0.006 (MB)
	Size of irrep 3 of tijab amplitudes:       0.001 (MW) /      0.006 (MB)
	Total:                                     0.003 (MW) /      0.025 (MB)

	Nuclear Rep. energy          =      5.16641445638832
	SCF energy                   =   -100.03324249760529
	One-electron energy          =    -49.79701275512024
	Two-electron energy          =     21.22273209840164
	Reference energy             =   -100.03324249760540

*** tstop() called on cqc01 at Fri Apr 26 15:35:47 2019
Module time:
	user time   =       0.03 seconds =       0.00 minutes
	system time =       0.06 seconds =       0.00 minutes
	total time  =          0 seconds =       0.00 minutes
Total time:
	user time   =       0.47 seconds =       0.01 minutes
	system time =       0.32 seconds =       0.01 minutes
	total time  =          0 seconds =       0.00 minutes

*** tstart() called on cqc01
*** at Fri Apr 26 15:35:47 2019

            **************************
            *                        *
            *        CCENERGY        *
            *                        *
            **************************

    Nuclear Rep. energy (wfn)     =    5.166414456388319
    SCF energy          (wfn)     = -100.033242497605286
    Reference energy    (file100) = -100.033242497605400

    Input parameters:
    -----------------
    Wave function   =     CCSD
    Reference wfn   =     RHF
    Brueckner       =     No
    Memory (Mbytes) =     32000.0
    Maxiter         =     50
    R_Convergence   =     1.0e-07
    E_Convergence   =     1.0e-06
    Restart         =     Yes
    DIIS            =     Yes
    AO Basis        =     NONE
    ABCD            =     NEW
    Cache Level     =     2
    Cache Type      =     LOW
    Print Level     =     1
    Num. of threads =     1
    # Amps to Print =     10
    Print MP2 Amps? =     No
    Analyze T2 Amps =     No
    Print Pair Ener =     No
    Local CC        =     No
    SCS-MP2         =     False
    SCSN-MP2        =     False
    SCS-CCSD        =     False

MP2 correlation energy -0.2225523670737393
                Solving CC Amplitude Equations
                ------------------------------
  Iter             Energy              RMS        T1Diag      D1Diag    New D1Diag    D2Diag
  ----     ---------------------    ---------   ----------  ----------  ----------   --------
     0        -0.222552367073738    0.000e+00    0.000000    0.000000    0.000000    0.109227
     1        -0.233875759793297    1.839e-01    0.022244    0.038754    0.038754    0.125165
     2        -0.229554944501313    3.668e-02    0.012493    0.021716    0.021716    0.122787
     3        -0.226501016130071    8.142e-03    0.013149    0.023164    0.023164    0.119950
     4        -0.226303482124727    1.694e-03    0.012673    0.022369    0.022369    0.119365
     5        -0.226237646884921    4.351e-04    0.012541    0.022141    0.022141    0.119187
     6        -0.226229436012870    1.110e-04    0.012511    0.022087    0.022087    0.119148
     7        -0.226233840793454    2.441e-05    0.012508    0.022079    0.022079    0.119149
     8        -0.226233990124675    6.658e-06    0.012507    0.022076    0.022076    0.119149
     9        -0.226233679914396    1.819e-06    0.012507    0.022075    0.022075    0.119149
    10        -0.226233702436241    4.934e-07    0.012507    0.022075    0.022075    0.119149
    11        -0.226233715596791    1.321e-07    0.012507    0.022075    0.022075    0.119149
    12        -0.226233715455972    3.082e-08    0.012507    0.022075    0.022075    0.119149
    12        -0.226233715455972    3.082e-08    0.012507    0.022075    0.022075    0.119149

    Iterations converged.


    CCSD corr. energy   =   -0.226233715455972
    PPL corr. energy    =    0.038438071343374
    OS PPL corr. energy =    0.031048012571967
    SS PPL corr. energy =    0.007390058771407
    Largest TIA Amplitudes:
              3  21        -0.0195560183
              2  15        -0.0195560091
              3  22        -0.0098614660
              2  16        -0.0098614618
              1   1         0.0095048808
              1   3         0.0078295336
              1   9        -0.0053313755
              0   3         0.0045105731
              0   2         0.0041166474
              1   0         0.0038009911

    Largest TIjAb Amplitudes:
      3   3  24  24        -0.0431276788
      2   2  18  18        -0.0431276786
      1   1   5   5        -0.0317609059
      2   3  18  24        -0.0295594743
      3   2  24  18        -0.0295594743
      1   1   4   4        -0.0248201550
      1   1   1   1        -0.0243349961
      3   3  21  24        -0.0230762270
      3   3  24  21        -0.0230762270
      2   2  15  18        -0.0230762251

    SCF energy       (wfn)                    = -100.033242497605286
    Reference energy (file100)                = -100.033242497605400

    Opposite-spin MP2 correlation energy      =   -0.163055536749815
    Same-spin MP2 correlation energy          =   -0.059496830323924
    MP2 correlation energy                    =   -0.222552367073739
      * MP2 total energy                      = -100.255794864679146

    Opposite-spin CCSD correlation energy     =   -0.173339850603377
    Same-spin CCSD correlation energy         =   -0.052893865333867
    CCSD correlation energy                   =   -0.226233715455972
      * CCSD total energy                     = -100.259476213061376


*** tstop() called on cqc01 at Fri Apr 26 15:35:51 2019
Module time:
	user time   =       0.33 seconds =       0.01 minutes
	system time =       0.95 seconds =       0.02 minutes
	total time  =          4 seconds =       0.07 minutes
Total time:
	user time   =       0.80 seconds =       0.01 minutes
	system time =       1.27 seconds =       0.02 minutes
	total time  =          4 seconds =       0.07 minutes

*** Psi4 exiting successfully. Buy a developer a beer!
