
    -----------------------------------------------------------------------
          Psi4: An Open-Source Ab Initio Electronic Structure Package
                               Psi4 1.2a1.dev939 

                         Git: Rev {HEAD} fa1ec19 


    R. M. Parrish, L. A. Burns, D. G. A. Smith, A. C. Simmonett,
    A. E. DePrince III, E. G. Hohenstein, U. Bozkaya, A. Yu. Sokolov,
    R. Di Remigio, R. M. Richard, J. F. Gonthier, A. M. James,
    H. R. McAlexander, A. Kumar, M. Saitow, X. Wang, B. P. Pritchard,
    P. Verma, H. F. Schaefer III, K. Patkowski, R. A. King, E. F. Valeev,
    F. A. Evangelista, J. M. Turney, T. D. Crawford, and C. D. Sherrill,
    J. Chem. Theory Comput. 13(7) pp 3185--3197 (2017).
    (doi: 10.1021/acs.jctc.7b00174)

    -----------------------------------------------------------------------


    Psi4 started on: Friday, 26 April 2019 06:41PM

    Process ID:  29105
    PSIDATADIR: /home/grueneis/src/psi4/objdir/stage/usr/local/psi4/share/psi4
    Memory:     500.0 MiB
    Threads:    1
    
  ==> Input File <==

--------------------------------------------------------------------------
# Any line starting with the # character is a comment line

memory 32000 mb

molecule molecule {
0 1
F          0.0000000000        0.0000000000       -0.0464431179
H          0.0000000000        0.0000000000        0.8753944384
}

set {
  reference rhf
  basis aug-cc-pv(T+d)z
  scf_type OUT_OF_CORE
  freeze_core true
}

energy('ccsd')
--------------------------------------------------------------------------

  Memory set to  29.802 GiB by Python driver.

*** tstart() called on cqc01
*** at Fri Apr 26 18:41:52 2019

   => Loading Basis Set <=

    Name: AUG-CC-PV(T+D)Z
    Role: ORBITAL
    Keyword: BASIS
    atoms 1 entry F          line   393 file /home/grueneis/src/psi4/objdir/stage/usr/local/psi4/share/psi4/basis/aug-cc-pv_tpd_z.gbs 
    atoms 2 entry H          line    56 file /home/grueneis/src/psi4/objdir/stage/usr/local/psi4/share/psi4/basis/aug-cc-pv_tpd_z.gbs 


         ---------------------------------------------------------
                                   SCF
            by Justin Turney, Rob Parrish, Andy Simmonett
                             and Daniel Smith
                              RHF Reference
                        1 Threads,  30517 MiB Core
         ---------------------------------------------------------

  ==> Geometry <==

    Molecular point group: c2v
    Full point group: C_inf_v

    Geometry (in Angstrom), charge = 0, multiplicity = 1:

       Center              X                  Y                   Z               Mass       
    ------------   -----------------  -----------------  -----------------  -----------------
           F          0.000000000000     0.000000000000    -0.046438086822    18.998403224000
           H          0.000000000000     0.000000000000     0.875399469478     1.007825032070

  Running in c2v symmetry.

  Rotational constants: A = ************  B =     20.72768  C =     20.72768 [cm^-1]
  Rotational constants: A = ************  B = 621400.18513  C = 621400.18513 [MHz]
  Nuclear repulsion =    5.166414456388319

  Charge       = 0
  Multiplicity = 1
  Electrons    = 10
  Nalpha       = 5
  Nbeta        = 5

  ==> Algorithm <==

  SCF Algorithm Type is OUT_OF_CORE.
  DIIS enabled.
  MOM disabled.
  Fractional occupation disabled.
  Guess Type is SAD.
  Energy threshold   = 1.00e-08
  Density threshold  = 1.00e-08
  Integral threshold = 0.00e+00

  ==> Primary Basis <==

  Basis Set: AUG-CC-PV(T+D)Z
    Blend: AUG-CC-PV(T+D)Z
    Number of shells: 23
    Number of basis function: 69
    Number of Cartesian functions: 80
    Spherical Harmonics?: true
    Max angular momentum: 3

  ==> Pre-Iterations <==

   -------------------------------------------------------
    Irrep   Nso     Nmo     Nalpha   Nbeta   Ndocc  Nsocc
   -------------------------------------------------------
     A1        30      30       0       0       0       0
     A2         7       7       0       0       0       0
     B1        16      16       0       0       0       0
     B2        16      16       0       0       0       0
   -------------------------------------------------------
    Total      69      69       5       5       5       0
   -------------------------------------------------------

  ==> Integral Setup <==

  ==> DiskJK: Disk-Based J/K Matrices <==

    J tasked:                  Yes
    K tasked:                  Yes
    wK tasked:                  No
    Memory (MB):             22888
    Schwarz Cutoff:          1E-12

  Minimum eigenvalue in the overlap matrix is 3.6610833182E-04.
  Using Symmetric Orthogonalization.

  SCF Guess: Superposition of Atomic Densities via on-the-fly atomic UHF.

  ==> Iterations <==

                        Total Energy        Delta E     RMS |[F,P]|

   @RHF iter   0:   -99.95978518959052   -9.99598e+01   3.21226e-02 
   @RHF iter   1:  -100.02561660287250   -6.58314e-02   7.80606e-03 
   @RHF iter   2:  -100.05277927928618   -2.71627e-02   4.61351e-03 DIIS
   @RHF iter   3:  -100.06038274533626   -7.60347e-03   6.52139e-04 DIIS
   @RHF iter   4:  -100.06077116366286   -3.88418e-04   2.05717e-04 DIIS
   @RHF iter   5:  -100.06083023777488   -5.90741e-05   4.21697e-05 DIIS
   @RHF iter   6:  -100.06083349855024   -3.26078e-06   5.10850e-06 DIIS
   @RHF iter   7:  -100.06083354916626   -5.06160e-08   4.97711e-07 DIIS
   @RHF iter   8:  -100.06083354952347   -3.57204e-10   7.19771e-08 DIIS
   @RHF iter   9:  -100.06083354953083   -7.36122e-12   1.17995e-08 DIIS
   @RHF iter  10:  -100.06083354953094   -1.13687e-13   2.10640e-09 DIIS

  ==> Post-Iterations <==

    Orbital Energies (a.u.)
    -----------------------

    Doubly Occupied:                                                      

       1A1   -26.299523     2A1    -1.601107     3A1    -0.766783  
       1B2    -0.650048     1B1    -0.650048  

    Virtual:                                                              

       4A1     0.030436     5A1     0.138681     2B2     0.201350  
       2B1     0.201350     6A1     0.207757     3B2     0.285346  
       3B1     0.285346     7A1     0.310681     8A1     0.426623  
       9A1     0.708986     1A2     0.759815    10A1     0.759815  
       4B2     0.827102     4B1     0.827102    11A1     0.948531  
       5B2     1.041397     5B1     1.041397    12A1     1.070271  
       2A2     1.085203    13A1     1.085203     6B2     1.145012  
       6B1     1.145012    14A1     1.149386     7B2     1.666871  
       7B1     1.666871    15A1     1.979758    16A1     2.388813  
      17A1     2.737578     3A2     2.808322    18A1     2.808322  
       8B2     2.903118     8B1     2.903118     9B2     2.934551  
       9B1     2.934551     4A2     3.158369    19A1     3.158369  
      20A1     3.159910    10B2     3.623159    10B1     3.623159  
      21A1     4.084887    22A1     4.160641     5A2     4.160641  
      11B2     4.301487    11B1     4.301487    12B2     4.767783  
      12B1     4.767783    23A1     5.053996    24A1     5.646328  
      13B2     6.062388    13B1     6.062388    25A1     7.538834  
      14B2     8.829900    14B1     8.829900    26A1     8.918949  
       6A2     8.918949    15B1     9.234908    15B2     9.234908  
      27A1     9.343514    28A1     9.358708     7A2     9.358708  
      16B1     9.548786    16B2     9.548786    29A1     9.875151  
      30A1    14.565601  

    Final Occupation by Irrep:
             A1    A2    B1    B2 
    DOCC [     3,    0,    1,    1 ]

  Energy converged.

  @RHF Final Energy:  -100.06083354953094

   => Energetics <=

    Nuclear Repulsion Energy =              5.1664144563883188
    One-Electron Energy =                -150.5194753694790677
    Two-Electron Energy =                  45.2922273635598174
    Total Energy =                       -100.0608335495309404



Properties will be evaluated at   0.000000,   0.000000,   0.000000 Bohr

Properties computed using the SCF density matrix

  Nuclear Dipole Moment: (a.u.)
     X:     0.0000      Y:     0.0000      Z:     0.8645

  Electronic Dipole Moment: (a.u.)
     X:     0.0000      Y:     0.0000      Z:    -0.1032

  Dipole Moment: (a.u.)
     X:     0.0000      Y:     0.0000      Z:     0.7612     Total:     0.7612

  Dipole Moment: (Debye)
     X:     0.0000      Y:     0.0000      Z:     1.9348     Total:     1.9348


*** tstop() called on cqc01 at Fri Apr 26 18:41:53 2019
Module time:
	user time   =       0.78 seconds =       0.01 minutes
	system time =       0.59 seconds =       0.01 minutes
	total time  =          1 seconds =       0.02 minutes
Total time:
	user time   =       0.78 seconds =       0.01 minutes
	system time =       0.59 seconds =       0.01 minutes
	total time  =          1 seconds =       0.02 minutes

*** tstart() called on cqc01
*** at Fri Apr 26 18:41:53 2019


	Wfn Parameters:
	--------------------
	Wavefunction         = CCSD
	Number of irreps     = 4
	Number of MOs        = 69
	Number of active MOs = 68
	AO-Basis             = NONE
	Semicanonical        = false
	Reference            = RHF
	Print Level          = 1

	IRREP	# MOs	# FZDC	# DOCC	# SOCC	# VIRT	# FZVR
	-----	-----	------	------	------	------	------
	 A1	   30	    1	    2	    0	    27	    0
	 A2	   7	    0	    0	    0	    7	    0
	 B1	   16	    0	    1	    0	    15	    0
	 B2	   16	    0	    1	    0	    15	    0
	Transforming integrals...
	IWL integrals will be deleted.
	(OO|OO)...
	Presorting SO-basis two-electron integrals.
	Sorting File: SO Ints (nn|nn) nbuckets = 1
	Transforming the one-electron integrals and constructing Fock matrices
	Starting first half-transformation.
	Sorting half-transformed integrals.
	First half integral transformation complete.
	Starting second half-transformation.
	Two-electron integral transformation complete.
	(OO|OV)...
	Starting second half-transformation.
	Two-electron integral transformation complete.
	(OO|VV)...
	Starting second half-transformation.
	Two-electron integral transformation complete.
	(OV|OO)...
	Starting first half-transformation.
	Sorting half-transformed integrals.
	First half integral transformation complete.
	Starting second half-transformation.
	Two-electron integral transformation complete.
	(OV|OV)...
	Starting second half-transformation.
	Two-electron integral transformation complete.
	(OV|VV)...
	Starting second half-transformation.
	Two-electron integral transformation complete.
	(VV|OO)...
	Starting first half-transformation.
	Sorting half-transformed integrals.
	First half integral transformation complete.
	Starting second half-transformation.
	Two-electron integral transformation complete.
	(VV|OV)...
	Starting second half-transformation.
	Two-electron integral transformation complete.
	(VV|VV)...
	Starting second half-transformation.
	Two-electron integral transformation complete.
	Frozen core energy     =    -76.62592195316162

	Size of irrep 0 of <ab|cd> integrals:      1.508 (MW) /     12.064 (MB)
	Size of irrep 1 of <ab|cd> integrals:      0.686 (MW) /      5.485 (MB)
	Size of irrep 2 of <ab|cd> integrals:      1.040 (MW) /      8.323 (MB)
	Size of irrep 3 of <ab|cd> integrals:      1.040 (MW) /      8.323 (MB)
	Total:                                     4.274 (MW) /     34.195 (MB)

	Size of irrep 0 of <ia|bc> integrals:      0.103 (MW) /      0.825 (MB)
	Size of irrep 1 of <ia|bc> integrals:      0.036 (MW) /      0.291 (MB)
	Size of irrep 2 of <ia|bc> integrals:      0.065 (MW) /      0.522 (MB)
	Size of irrep 3 of <ia|bc> integrals:      0.065 (MW) /      0.522 (MB)
	Total:                                     0.270 (MW) /      2.161 (MB)

	Size of irrep 0 of tijab amplitudes:       0.007 (MW) /      0.059 (MB)
	Size of irrep 1 of tijab amplitudes:       0.002 (MW) /      0.013 (MB)
	Size of irrep 2 of tijab amplitudes:       0.004 (MW) /      0.033 (MB)
	Size of irrep 3 of tijab amplitudes:       0.004 (MW) /      0.033 (MB)
	Total:                                     0.017 (MW) /      0.137 (MB)

	Nuclear Rep. energy          =      5.16641445638832
	SCF energy                   =   -100.06083354953094
	One-electron energy          =    -49.86667745880371
	Two-electron energy          =     21.26535140604621
	Reference energy             =   -100.06083354953081

*** tstop() called on cqc01 at Fri Apr 26 18:42:00 2019
Module time:
	user time   =       0.27 seconds =       0.00 minutes
	system time =       0.14 seconds =       0.00 minutes
	total time  =          7 seconds =       0.12 minutes
Total time:
	user time   =       1.05 seconds =       0.02 minutes
	system time =       0.73 seconds =       0.01 minutes
	total time  =          8 seconds =       0.13 minutes

*** tstart() called on cqc01
*** at Fri Apr 26 18:42:00 2019

            **************************
            *                        *
            *        CCENERGY        *
            *                        *
            **************************

    Nuclear Rep. energy (wfn)     =    5.166414456388319
    SCF energy          (wfn)     = -100.060833549530940
    Reference energy    (file100) = -100.060833549530813

    Input parameters:
    -----------------
    Wave function   =     CCSD
    Reference wfn   =     RHF
    Brueckner       =     No
    Memory (Mbytes) =     32000.0
    Maxiter         =     50
    R_Convergence   =     1.0e-07
    E_Convergence   =     1.0e-06
    Restart         =     Yes
    DIIS            =     Yes
    AO Basis        =     NONE
    ABCD            =     NEW
    Cache Level     =     2
    Cache Type      =     LOW
    Print Level     =     1
    Num. of threads =     1
    # Amps to Print =     10
    Print MP2 Amps? =     No
    Analyze T2 Amps =     No
    Print Pair Ener =     No
    Local CC        =     No
    SCS-MP2         =     False
    SCSN-MP2        =     False
    SCS-CCSD        =     False

MP2 correlation energy -0.2800572721267666
                Solving CC Amplitude Equations
                ------------------------------
  Iter             Energy              RMS        T1Diag      D1Diag    New D1Diag    D2Diag
  ----     ---------------------    ---------   ----------  ----------  ----------   --------
     0        -0.280057272126765    0.000e+00    0.000000    0.000000    0.000000    0.112284
     1        -0.286819423572943    1.935e-01    0.018512    0.032321    0.032321    0.124641
     2        -0.285014014007202    3.260e-02    0.010263    0.017797    0.017797    0.123624
     3        -0.281683303303066    8.620e-03    0.010861    0.019131    0.019131    0.120729
     4        -0.281166148851536    1.997e-03    0.010363    0.018255    0.018255    0.120034
     5        -0.281209758889696    4.426e-04    0.010224    0.018016    0.018016    0.119886
     6        -0.281200078390366    1.270e-04    0.010199    0.017970    0.017970    0.119847
     7        -0.281195377306506    3.841e-05    0.010190    0.017950    0.017950    0.119837
     8        -0.281196932595176    8.492e-06    0.010188    0.017947    0.017947    0.119839
     9        -0.281197043789120    2.347e-06    0.010188    0.017946    0.017946    0.119839
    10        -0.281196978921878    7.445e-07    0.010188    0.017946    0.017946    0.119839
    11        -0.281197006279407    1.757e-07    0.010188    0.017946    0.017946    0.119839
    12        -0.281197014076634    4.700e-08    0.010188    0.017946    0.017946    0.119839
    12        -0.281197014076634    4.700e-08    0.010188    0.017946    0.017946    0.119839

    Iterations converged.


    CCSD corr. energy   =   -0.281197014076634
    PPL corr. energy    =    0.050325406061582
    OS PPL corr. energy =    0.041023863007748
    SS PPL corr. energy =    0.009301543053834
    Largest TIA Amplitudes:
              2  34        -0.0148001333
              3  49        -0.0148000958
              2  35        -0.0068466731
              3  50        -0.0068466583
              1   1         0.0062026620
              2  38        -0.0048335170
              3  53        -0.0048334926
              1   4        -0.0047486567
              1  19        -0.0041518217
              1   3        -0.0037395106

    Largest TIjAb Amplitudes:
      2   2  38  38        -0.0402273463
      3   3  53  53        -0.0402273444
      1   1   4   4        -0.0308781848
      1   1   5   5        -0.0273778214
      2   3  38  53        -0.0272371284
      3   2  53  38        -0.0272371284
      1   1  10  10        -0.0213351546
      2   2  34  38        -0.0211687114
      2   2  38  34        -0.0211687114
      3   3  49  53        -0.0211687077

    SCF energy       (wfn)                    = -100.060833549530940
    Reference energy (file100)                = -100.060833549530813

    Opposite-spin MP2 correlation energy      =   -0.208774002969605
    Same-spin MP2 correlation energy          =   -0.071283269157161
    MP2 correlation energy                    =   -0.280057272126767
      * MP2 total energy                      = -100.340890821657581

    Opposite-spin CCSD correlation energy     =   -0.217504517188615
    Same-spin CCSD correlation energy         =   -0.063692496835924
    CCSD correlation energy                   =   -0.281197014076634
      * CCSD total energy                     = -100.342030563607452


*** tstop() called on cqc01 at Fri Apr 26 18:42:04 2019
Module time:
	user time   =       0.88 seconds =       0.01 minutes
	system time =       2.58 seconds =       0.04 minutes
	total time  =          4 seconds =       0.07 minutes
Total time:
	user time   =       1.93 seconds =       0.03 minutes
	system time =       3.31 seconds =       0.06 minutes
	total time  =         12 seconds =       0.20 minutes

*** Psi4 exiting successfully. Buy a developer a beer!
