
    -----------------------------------------------------------------------
          Psi4: An Open-Source Ab Initio Electronic Structure Package
                               Psi4 1.4a3.dev88 

                         Git: Rev {master} 262e345 


    D. G. A. Smith, L. A. Burns, A. C. Simmonett, R. M. Parrish,
    M. C. Schieber, R. Galvelis, P. Kraus, H. Kruse, R. Di Remigio,
    A. Alenaizan, A. M. James, S. Lehtola, J. P. Misiewicz, M. Scheurer,
    R. A. Shaw, J. B. Schriber, Y. Xie, Z. L. Glick, D. A. Sirianni,
    J. S. O'Brien, J. M. Waldrop, A. Kumar, E. G. Hohenstein,
    B. P. Pritchard, B. R. Brooks, H. F. Schaefer III, A. Yu. Sokolov,
    K. Patkowski, A. E. DePrince III, U. Bozkaya, R. A. King,
    F. A. Evangelista, J. M. Turney, T. D. Crawford, C. D. Sherrill,
    J. Chem. Phys. 152(18) 184108 (2020). https://doi.org/10.1063/5.0006002

                            Additional Code Authors
    E. T. Seidl, C. L. Janssen, E. F. Valeev, M. L. Leininger,
    J. F. Gonthier, R. M. Richard, H. R. McAlexander, M. Saitow, X. Wang,
    P. Verma, and M. H. Lechner

             Previous Authors, Complete List of Code Contributors,
                       and Citations for Specific Modules
    https://github.com/psi4/psi4/blob/master/codemeta.json
    https://github.com/psi4/psi4/graphs/contributors
    http://psicode.org/psi4manual/master/introduction.html#citing-psifour

    -----------------------------------------------------------------------


    Psi4 started on: Wednesday, 20 January 2021 10:08PM

    Process ID: 147433
    Host:       n412-041.vsc4.prov
    PSIDATADIR: /home/fs71337/gallo4/psi4/psi4/build/stage/share/psi4
    Memory:     500.0 MiB
    Threads:    48
    
  ==> Input File <==

--------------------------------------------------------------------------
# Any line starting with the # character is a comment line
memory 250000 mb
molecule molecule{
-1 1
F          0.0000000000        0.0000000000        0.0000000000
}

set {
  reference rhf
  basis aug-cc-pv(5+d)z
  scf_type OUT_OF_CORE
  freeze_core true
}

energy('ccsd(t)')
--------------------------------------------------------------------------

  Memory set to 232.831 GiB by Python driver.

Scratch directory: /binfl/lv71337/airmler/temp/

*** tstart() called on n412-041.vsc4.prov
*** at Wed Jan 20 22:08:25 2021

   => Loading Basis Set <=

    Name: AUG-CC-PV(5+D)Z
    Role: ORBITAL
    Keyword: BASIS
    atoms 1 entry F          line   645 file /home/fs71337/gallo4/psi4/psi4/build/stage/share/psi4/basis/aug-cc-pv_5pd_z.gbs 


         ---------------------------------------------------------
                                   SCF
               by Justin Turney, Rob Parrish, Andy Simmonett
                          and Daniel G. A. Smith
                              RHF Reference
                       48 Threads, 238418 MiB Core
         ---------------------------------------------------------

  ==> Geometry <==

    Molecular point group: d2h
    Geometry (in Angstrom), charge = -1, multiplicity = 1:

       Center              X                  Y                   Z               Mass       
    ------------   -----------------  -----------------  -----------------  -----------------
         F            0.000000000000     0.000000000000     0.000000000000    18.998403162730

  Running in d2h symmetry.

  Rotational constants: A = ************  B = ************  C = ************ [cm^-1]
  Rotational constants: A = ************  B = ************  C = ************ [MHz]
  Nuclear repulsion =    0.000000000000000

  Charge       = -1
  Multiplicity = 1
  Electrons    = 10
  Nalpha       = 5
  Nbeta        = 5

  ==> Algorithm <==

  SCF Algorithm Type is OUT_OF_CORE.
  DIIS enabled.
  MOM disabled.
  Fractional occupation disabled.
  Guess Type is CORE.
  Energy threshold   = 1.00e-08
  Density threshold  = 1.00e-08
  Integral threshold = 1.00e-12

  ==> Primary Basis <==

  Basis Set: AUG-CC-PV(5+D)Z
    Blend: AUG-CC-PV(5+D)Z
    Number of shells: 27
    Number of basis function: 127
    Number of Cartesian functions: 182
    Spherical Harmonics?: true
    Max angular momentum: 5

  ==> Integral Setup <==

  ==> DiskJK: Disk-Based J/K Matrices <==

    J tasked:                  Yes
    K tasked:                  Yes
    wK tasked:                  No
    Memory [MiB]:           178813
    Schwarz Cutoff:          1E-12

  Minimum eigenvalue in the overlap matrix is 1.6434294920E-03.
  Reciprocal condition number of the overlap matrix is 4.1838376709E-04.
    Using symmetric orthogonalization.

  ==> Pre-Iterations <==

  SCF Guess: Core (One-Electron) Hamiltonian.

   -------------------------------------------------------
    Irrep   Nso     Nmo     Nalpha   Nbeta   Ndocc  Nsocc
   -------------------------------------------------------
     Ag        26      26       2       2       2       0
     B1g       11      11       0       0       0       0
     B2g       11      11       0       0       0       0
     B3g       11      11       0       0       0       0
     Au         8       8       0       0       0       0
     B1u       20      20       1       1       1       0
     B2u       20      20       1       1       1       0
     B3u       20      20       1       1       1       0
   -------------------------------------------------------
    Total     127     127       5       5       5       0
   -------------------------------------------------------

  ==> Iterations <==

                        Total Energy        Delta E     RMS |[F,P]|

   @RHF iter   1:   -83.09050926672975   -8.30905e+01   2.43736e-01 DIIS
   @RHF iter   2:   -82.62115777808022    4.69351e-01   5.74806e-02 DIIS
   @RHF iter   3:   -94.45814386666109   -1.18370e+01   9.99311e-02 DIIS
   @RHF iter   4:   -97.01015607419866   -2.55201e+00   6.41382e-02 DIIS
   @RHF iter   5:   -99.02577101241189   -2.01561e+00   2.32791e-02 DIIS
   @RHF iter   6:   -99.45621663773591   -4.30446e-01   1.67235e-03 DIIS
   @RHF iter   7:   -99.45909846554721   -2.88183e-03   4.69741e-04 DIIS
   @RHF iter   8:   -99.45925992414990   -1.61459e-04   2.67054e-05 DIIS
   @RHF iter   9:   -99.45926073435638   -8.10206e-07   6.42746e-06 DIIS
   @RHF iter  10:   -99.45926076656889   -3.22125e-08   1.38166e-06 DIIS
   @RHF iter  11:   -99.45926076778774   -1.21885e-09   1.15766e-07 DIIS
   @RHF iter  12:   -99.45926076780147   -1.37277e-11   2.61731e-09 DIIS
  Energy and wave function converged.


  ==> Post-Iterations <==

    Orbital Energies [Eh]
    ---------------------

    Doubly Occupied:                                                      

       1Ag   -25.829663     2Ag    -1.074592     1B3u   -0.180970  
       1B2u   -0.180970     1B1u   -0.180970  

    Virtual:                                                              

       2B2u    0.333540     2B3u    0.333540     2B1u    0.333540  
       3Ag     0.413027     4Ag     0.815694     1B3g    0.815694  
       5Ag     0.815694     1B1g    0.815694     1B2g    0.815694  
       3B2u    0.917190     3B3u    0.917190     3B1u    0.917190  
       6Ag     1.291902     4B1u    1.683345     4B2u    1.683345  
       1Au     1.683345     5B1u    1.683345     4B3u    1.683345  
       5B2u    1.683345     5B3u    1.683345     7Ag     2.036710  
       2B2g    2.036710     2B3g    2.036710     2B1g    2.036710  
       8Ag     2.036710     6B3u    2.430326     6B2u    2.430326  
       6B1u    2.430326     9Ag     3.736440    10Ag     3.736440  
       3B1g    3.736440    11Ag     3.736440     3B2g    3.736440  
       3B3g    3.736440     4B1g    3.736440     4B2g    3.736440  
       4B3g    3.736440    12Ag     4.082643     7B2u    4.300378  
       7B3u    4.300378     7B1u    4.300378     8B2u    4.300378  
       2Au     4.300378     8B3u    4.300378     8B1u    4.300378  
       5B3g    4.688714    13Ag     4.688714     5B2g    4.688714  
      14Ag     4.688714     5B1g    4.688714     9B2u    6.446804  
       9B3u    6.446804     9B1u    6.446804    10B2u    8.435362  
      10B3u    8.435362    11B2u    8.435362    10B1u    8.435362  
      11B1u    8.435362    11B3u    8.435362     3Au     8.435362  
      12B3u    8.435362    12B1u    8.435362    12B2u    8.435362  
       4Au     8.435362    15Ag     9.466059     6B2g    9.466059  
       6B1g    9.466059    16Ag     9.466059     6B3g    9.466059  
      17Ag     9.466059     7B3g    9.466059     7B1g    9.466059  
       7B2g    9.466059    13B2u   10.341872    13B3u   10.341872  
      14B2u   10.341872    13B1u   10.341872    14B3u   10.341872  
       5Au    10.341872    14B1u   10.341872     8B3g   11.345515  
       8B2g   11.345515    18Ag    11.345515     8B1g   11.345515  
      19Ag    11.345515    20Ag    13.331284    15B3u   19.757260  
      15B2u   19.757260    15B1u   19.757260    16B3u   21.402293  
      16B1u   21.402293    16B2u   21.402293    17B3u   21.402293  
      17B2u   21.402293    18B3u   21.402293     6Au    21.402293  
       7Au    21.402293    17B1u   21.402293    18B1u   21.402293  
      18B2u   21.402293    21Ag    24.992710    22Ag    24.992710  
       9B2g   24.992710     9B1g   24.992710    23Ag    24.992710  
       9B3g   24.992710    10B3g   24.992710    10B2g   24.992710  
      10B1g   24.992710    19B2u   26.100092    19B3u   26.100092  
      20B2u   26.100092    19B1u   26.100092    20B1u   26.100092  
      20B3u   26.100092     8Au    26.100092    24Ag    29.321044  
      11B1g   29.321044    11B3g   29.321044    25Ag    29.321044  
      11B2g   29.321044    26Ag    77.134108  

    Final Occupation by Irrep:
             Ag   B1g   B2g   B3g    Au   B1u   B2u   B3u 
    DOCC [     2,    0,    0,    0,    0,    1,    1,    1 ]

  @RHF Final Energy:   -99.45926076780147

   => Energetics <=

    Nuclear Repulsion Energy =              0.0000000000000000
    One-Electron Energy =                -144.0241927519232377
    Two-Electron Energy =                  44.5649319841217846
    Total Energy =                        -99.4592607678014531

Computation Completed


Properties will be evaluated at   0.000000,   0.000000,   0.000000 [a0]

Properties computed using the SCF density matrix

  Nuclear Dipole Moment: [e a0]
     X:     0.0000      Y:     0.0000      Z:     0.0000

  Electronic Dipole Moment: [e a0]
     X:     0.0000      Y:     0.0000      Z:     0.0000

  Dipole Moment: [e a0]
     X:     0.0000      Y:     0.0000      Z:     0.0000     Total:     0.0000

  Dipole Moment: [D]
     X:     0.0000      Y:     0.0000      Z:     0.0000     Total:     0.0000


*** tstop() called on n412-041.vsc4.prov at Wed Jan 20 22:08:41 2021
Module time:
	user time   =      26.82 seconds =       0.45 minutes
	system time =       1.17 seconds =       0.02 minutes
	total time  =         16 seconds =       0.27 minutes
Total time:
	user time   =      26.82 seconds =       0.45 minutes
	system time =       1.17 seconds =       0.02 minutes
	total time  =         16 seconds =       0.27 minutes

*** tstart() called on n412-041.vsc4.prov
*** at Wed Jan 20 22:08:41 2021


	Wfn Parameters:
	--------------------
	Wavefunction         = CCSD_T
	Number of irreps     = 8
	Number of MOs        = 127
	Number of active MOs = 126
	AO-Basis             = NONE
	Semicanonical        = false
	Reference            = RHF
	Print Level          = 1

	IRREP	# MOs	# FZDC	# DOCC	# SOCC	# VIRT	# FZVR
	-----	-----	------	------	------	------	------
	 Ag	   26	    1	    1	    0	    24	    0
	 B1g	   11	    0	    0	    0	    11	    0
	 B2g	   11	    0	    0	    0	    11	    0
	 B3g	   11	    0	    0	    0	    11	    0
	 Au	   8	    0	    0	    0	    8	    0
	 B1u	   20	    0	    1	    0	    19	    0
	 B2u	   20	    0	    1	    0	    19	    0
	 B3u	   20	    0	    1	    0	    19	    0
	Transforming integrals...
	IWL integrals will be deleted.
	(OO|OO)...
	Presorting SO-basis two-electron integrals.
	Sorting File: SO Ints (nn|nn) nbuckets = 1
	Constructing frozen core operators
	Starting first half-transformation.
	Sorting half-transformed integrals.
	First half integral transformation complete.
	Starting second half-transformation.
	Two-electron integral transformation complete.
	(OO|OV)...
	Starting second half-transformation.
	Two-electron integral transformation complete.
	(OO|VV)...
	Starting second half-transformation.
	Two-electron integral transformation complete.
	(OV|OO)...
	Starting first half-transformation.
	Sorting half-transformed integrals.
	First half integral transformation complete.
	Starting second half-transformation.
	Two-electron integral transformation complete.
	(OV|OV)...
	Starting second half-transformation.
	Two-electron integral transformation complete.
	(OV|VV)...
	Starting second half-transformation.
	Two-electron integral transformation complete.
	(VV|OO)...
	Starting first half-transformation.
	Sorting half-transformed integrals.
	First half integral transformation complete.
	Starting second half-transformation.
	Two-electron integral transformation complete.
	(VV|OV)...
	Starting second half-transformation.
	Two-electron integral transformation complete.
	(VV|VV)...
	Starting second half-transformation.
	Two-electron integral transformation complete.
	Frozen core energy     =    -75.47956585410854

	Size of irrep 0 of <ab|cd> integrals:      4.351 (MW) /     34.811 (MB)
	Size of irrep 1 of <ab|cd> integrals:      3.226 (MW) /     25.805 (MB)
	Size of irrep 2 of <ab|cd> integrals:      3.226 (MW) /     25.805 (MB)
	Size of irrep 3 of <ab|cd> integrals:      3.226 (MW) /     25.805 (MB)
	Size of irrep 4 of <ab|cd> integrals:      2.683 (MW) /     21.464 (MB)
	Size of irrep 5 of <ab|cd> integrals:      3.702 (MW) /     29.614 (MB)
	Size of irrep 6 of <ab|cd> integrals:      3.702 (MW) /     29.614 (MB)
	Size of irrep 7 of <ab|cd> integrals:      3.702 (MW) /     29.614 (MB)
	Total:                                    27.817 (MW) /    222.533 (MB)

	Size of irrep 0 of <ia|bc> integrals:      0.169 (MW) /      1.352 (MB)
	Size of irrep 1 of <ia|bc> integrals:      0.102 (MW) /      0.819 (MB)
	Size of irrep 2 of <ia|bc> integrals:      0.102 (MW) /      0.819 (MB)
	Size of irrep 3 of <ia|bc> integrals:      0.102 (MW) /      0.819 (MB)
	Size of irrep 4 of <ia|bc> integrals:      0.067 (MW) /      0.537 (MB)
	Size of irrep 5 of <ia|bc> integrals:      0.125 (MW) /      1.000 (MB)
	Size of irrep 6 of <ia|bc> integrals:      0.125 (MW) /      1.000 (MB)
	Size of irrep 7 of <ia|bc> integrals:      0.125 (MW) /      1.000 (MB)
	Total:                                     0.918 (MW) /      7.347 (MB)

	Size of irrep 0 of tijab amplitudes:       0.008 (MW) /      0.067 (MB)
	Size of irrep 1 of tijab amplitudes:       0.004 (MW) /      0.029 (MB)
	Size of irrep 2 of tijab amplitudes:       0.004 (MW) /      0.029 (MB)
	Size of irrep 3 of tijab amplitudes:       0.004 (MW) /      0.029 (MB)
	Size of irrep 4 of tijab amplitudes:       0.000 (MW) /      0.000 (MB)
	Size of irrep 5 of tijab amplitudes:       0.004 (MW) /      0.031 (MB)
	Size of irrep 6 of tijab amplitudes:       0.004 (MW) /      0.031 (MB)
	Size of irrep 7 of tijab amplitudes:       0.004 (MW) /      0.031 (MB)
	Total:                                     0.031 (MW) /      0.245 (MB)

	Nuclear Rep. energy          =      0.00000000000000
	SCF energy                   =    -99.45926076780147
	One-electron energy          =    -44.72438798324342
	Two-electron energy          =     20.74469306955042
	Reference energy             =    -99.45926076780155

*** tstop() called on n412-041.vsc4.prov at Wed Jan 20 22:08:53 2021
Module time:
	user time   =       1.68 seconds =       0.03 minutes
	system time =       1.63 seconds =       0.03 minutes
	total time  =         12 seconds =       0.20 minutes
Total time:
	user time   =      28.50 seconds =       0.47 minutes
	system time =       2.80 seconds =       0.05 minutes
	total time  =         28 seconds =       0.47 minutes
            **************************
            *                        *
            *        CCENERGY        *
            *                        *
            **************************

    Nuclear Rep. energy (wfn)     =    0.000000000000000
    SCF energy          (wfn)     =  -99.459260767801467
    Reference energy    (file100) =  -99.459260767801553

    Input parameters:
    -----------------
    Wave function   =     CCSD_T
    Reference wfn   =     RHF
    Brueckner       =     No
    Memory (Mbytes) =     250000.0
    Maxiter         =     50
    R_Convergence   =     1.0e-07
    E_Convergence   =     1.0e-06
    Restart         =     Yes
    DIIS            =     Yes
    AO Basis        =     NONE
    ABCD            =     NEW
    Cache Level     =     2
    Cache Type      =     LOW
    Print Level     =     1
    Num. of threads =     48
    # Amps to Print =     10
    Print MP2 Amps? =     No
    Analyze T2 Amps =     No
    Print Pair Ener =     No
    Local CC        =     No
    SCS-MP2         =     False
    SCSN-MP2        =     False
    SCS-CCSD        =     False

MP2 correlation energy -0.3262959029431123
                Solving CC Amplitude Equations
                ------------------------------
  Iter             Energy              RMS        T1Diag      D1Diag    New D1Diag    D2Diag
  ----     ---------------------    ---------   ----------  ----------  ----------   --------
     0        -0.326295902943112    0.000e+00    0.000000    0.000000    0.000000    0.118662
     1        -0.306651727252844    6.587e-02    0.019131    0.031059    0.031059    0.108533
     2        -0.313628544304604    3.591e-02    0.014838    0.023976    0.023976    0.114628
     3        -0.315746603319254    9.850e-03    0.017368    0.028095    0.028095    0.116700
     4        -0.315798906653478    3.709e-03    0.019094    0.030898    0.030898    0.117572
     5        -0.315617862727273    9.843e-04    0.019330    0.031289    0.031289    0.117555
     6        -0.315634471854376    4.580e-04    0.019527    0.031615    0.031615    0.117577
     7        -0.315632210795529    1.007e-04    0.019545    0.031647    0.031647    0.117562
     8        -0.315627989235801    3.068e-05    0.019550    0.031654    0.031654    0.117555
     9        -0.315627971752952    4.669e-06    0.019551    0.031657    0.031657    0.117555
    10        -0.315627882930094    9.779e-07    0.019551    0.031658    0.031658    0.117555
    11        -0.315627825674903    1.931e-07    0.019551    0.031658    0.031658    0.117555
    12        -0.315627832913952    4.766e-08    0.019551    0.031658    0.031658    0.117555

    Iterations converged.


    Largest TIA Amplitudes:
              1  65        -0.0289443211
              2  84        -0.0289443211
              3 103        -0.0289443211
              1  66        -0.0105040174
              2  85        -0.0105040174
              3 104        -0.0105040174
              0   0        -0.0060692888
              1  69         0.0057594034
              2  88         0.0057594034
              3 107         0.0057594034

    Largest TIjAb Amplitudes:
      1   1  66  66        -0.0320139405
      2   2  85  85        -0.0320139405
      3   3 104 104        -0.0320139405
      2   3  85 104        -0.0224912593
      3   2 104  85        -0.0224912593
      1   3  66 104        -0.0224912593
      3   1 104  66        -0.0224912593
      1   2  66  85        -0.0224912593
      2   1  85  66        -0.0224912593
      1   1  66  69        -0.0206865050

    SCF energy       (wfn)                    =  -99.459260767801467
    Reference energy (file100)                =  -99.459260767801553

    Opposite-spin MP2 correlation energy      =   -0.244277811987954
    Same-spin MP2 correlation energy          =   -0.082018090955158
    Singles MP2 correlation energy            =   -0.000000000000000
    MP2 correlation energy                    =   -0.326295902943112
      * MP2 total energy                      =  -99.785556670744668

    Opposite-spin CCSD correlation energy     =   -0.245082279916594
    Same-spin CCSD correlation energy         =   -0.070545552997358
    Singles CCSD correlation energy           =    0.000000000000000
    CCSD correlation energy                   =   -0.315627832913952
      * CCSD total energy                     =  -99.774888600715499

            **************************
            *                        *
            *        CCTRIPLES       *
            *                        *
            **************************


    Wave function   =    CCSD_T
    Reference wfn   =      RHF

    Nuclear Rep. energy (wfn)                =    0.000000000000000
    SCF energy          (wfn)                =  -99.459260767801467
    Reference energy    (file100)            =  -99.459260767801553
    CCSD energy         (file100)            =   -0.315627832913952
    Total CCSD energy   (file100)            =  -99.774888600715499

    Number of ijk index combinations:               20
    Memory available in words        :     31250000000
    ~Words needed per explicit thread:           55296
    Number of threads for explicit ijk threading:   48

    (T) energy                                =   -0.011673960899289
      * CCSD(T) total energy                  =  -99.786562561614787


    Psi4 stopped on: Wednesday, 20 January 2021 10:09PM
    Psi4 wall time for execution: 0:00:35.39

*** Psi4 exiting successfully. Buy a developer a beer!
