
    -----------------------------------------------------------------------
          Psi4: An Open-Source Ab Initio Electronic Structure Package
                               Psi4 1.4a3.dev88 

                         Git: Rev {master} 262e345 


    D. G. A. Smith, L. A. Burns, A. C. Simmonett, R. M. Parrish,
    M. C. Schieber, R. Galvelis, P. Kraus, H. Kruse, R. Di Remigio,
    A. Alenaizan, A. M. James, S. Lehtola, J. P. Misiewicz, M. Scheurer,
    R. A. Shaw, J. B. Schriber, Y. Xie, Z. L. Glick, D. A. Sirianni,
    J. S. O'Brien, J. M. Waldrop, A. Kumar, E. G. Hohenstein,
    B. P. Pritchard, B. R. Brooks, H. F. Schaefer III, A. Yu. Sokolov,
    K. Patkowski, A. E. DePrince III, U. Bozkaya, R. A. King,
    F. A. Evangelista, J. M. Turney, T. D. Crawford, C. D. Sherrill,
    J. Chem. Phys. 152(18) 184108 (2020). https://doi.org/10.1063/5.0006002

                            Additional Code Authors
    E. T. Seidl, C. L. Janssen, E. F. Valeev, M. L. Leininger,
    J. F. Gonthier, R. M. Richard, H. R. McAlexander, M. Saitow, X. Wang,
    P. Verma, and M. H. Lechner

             Previous Authors, Complete List of Code Contributors,
                       and Citations for Specific Modules
    https://github.com/psi4/psi4/blob/master/codemeta.json
    https://github.com/psi4/psi4/graphs/contributors
    http://psicode.org/psi4manual/master/introduction.html#citing-psifour

    -----------------------------------------------------------------------


    Psi4 started on: Tuesday, 26 January 2021 06:05PM

    Process ID: 401540
    Host:       n412-040.vsc4.prov
    PSIDATADIR: /home/fs71337/gallo4/psi4/eri-6/psi4/build/stage/share/psi4
    Memory:     500.0 MiB
    Threads:    48
    
  ==> Input File <==

--------------------------------------------------------------------------
# Any line starting with the # character is a comment line
memory 250000 mb
molecule molecule{
-1 1
F          0.0000000000        0.0000000000        0.0000000000
}

set {
  reference rhf
  basis aug-cc-pV(t+d)Z
  scf_type OUT_OF_CORE
  freeze_core true
}

energy('ccsd(t)')
--------------------------------------------------------------------------

  Memory set to 232.831 GiB by Python driver.

Scratch directory: /binfl/lv71337/airmler/temp/

*** tstart() called on n412-040.vsc4.prov
*** at Tue Jan 26 18:05:11 2021

   => Loading Basis Set <=

    Name: AUG-CC-PV(T+D)Z
    Role: ORBITAL
    Keyword: BASIS
    atoms 1 entry F          line   405 file /home/fs71337/gallo4/psi4/eri-6/psi4/build/stage/share/psi4/basis/aug-cc-pv_tpd_z.gbs 


         ---------------------------------------------------------
                                   SCF
               by Justin Turney, Rob Parrish, Andy Simmonett
                          and Daniel G. A. Smith
                              RHF Reference
                       48 Threads, 238418 MiB Core
         ---------------------------------------------------------

  ==> Geometry <==

    Molecular point group: d2h
    Geometry (in Angstrom), charge = -1, multiplicity = 1:

       Center              X                  Y                   Z               Mass       
    ------------   -----------------  -----------------  -----------------  -----------------
         F            0.000000000000     0.000000000000     0.000000000000    18.998403162730

  Running in d2h symmetry.

  Rotational constants: A = ************  B = ************  C = ************ [cm^-1]
  Rotational constants: A = ************  B = ************  C = ************ [MHz]
  Nuclear repulsion =    0.000000000000000

  Charge       = -1
  Multiplicity = 1
  Electrons    = 10
  Nalpha       = 5
  Nbeta        = 5

  ==> Algorithm <==

  SCF Algorithm Type is OUT_OF_CORE.
  DIIS enabled.
  MOM disabled.
  Fractional occupation disabled.
  Guess Type is CORE.
  Energy threshold   = 1.00e-08
  Density threshold  = 1.00e-08
  Integral threshold = 1.00e-12

  ==> Primary Basis <==

  Basis Set: AUG-CC-PV(T+D)Z
    Blend: AUG-CC-PV(T+D)Z
    Number of shells: 14
    Number of basis function: 46
    Number of Cartesian functions: 55
    Spherical Harmonics?: true
    Max angular momentum: 3

  ==> Integral Setup <==

  ==> DiskJK: Disk-Based J/K Matrices <==

    J tasked:                  Yes
    K tasked:                  Yes
    wK tasked:                  No
    Memory [MiB]:           178813
    Schwarz Cutoff:          1E-12

  Minimum eigenvalue in the overlap matrix is 2.8456599490E-02.
  Reciprocal condition number of the overlap matrix is 1.0693255427E-02.
    Using symmetric orthogonalization.

  ==> Pre-Iterations <==

  SCF Guess: Core (One-Electron) Hamiltonian.

   -------------------------------------------------------
    Irrep   Nso     Nmo     Nalpha   Nbeta   Ndocc  Nsocc
   -------------------------------------------------------
     Ag        11      11       2       2       2       0
     B1g        3       3       0       0       0       0
     B2g        3       3       0       0       0       0
     B3g        3       3       0       0       0       0
     Au         2       2       0       0       0       0
     B1u        8       8       1       1       1       0
     B2u        8       8       1       1       1       0
     B3u        8       8       1       1       1       0
   -------------------------------------------------------
    Total      46      46       5       5       5       0
   -------------------------------------------------------

  ==> Iterations <==

                        Total Energy        Delta E     RMS |[F,P]|

   @RHF iter   1:   -84.75153807099153   -8.47515e+01   4.62680e-01 DIIS
   @RHF iter   2:   -84.52165069056284    2.29887e-01   1.58182e-01 DIIS
   @RHF iter   3:   -95.38562465000197   -1.08640e+01   2.28684e-01 DIIS
   @RHF iter   4:   -98.18710815145892   -2.80148e+00   1.12588e-01 DIIS
   @RHF iter   5:   -99.36593744393615   -1.17883e+00   2.43034e-02 DIIS
   @RHF iter   6:   -99.44982380610915   -8.38864e-02   2.83911e-03 DIIS
   @RHF iter   7:   -99.45077068805570   -9.46882e-04   5.34681e-04 DIIS
   @RHF iter   8:   -99.45080668539519   -3.59973e-05   3.19648e-05 DIIS
   @RHF iter   9:   -99.45080697429871   -2.88904e-07   2.11175e-05 DIIS
   @RHF iter  10:   -99.45080702227172   -4.79730e-08   5.07272e-07 DIIS
   @RHF iter  11:   -99.45080702230162   -2.98996e-11   5.56462e-08 DIIS
   @RHF iter  12:   -99.45080702230203   -4.12115e-13   7.84525e-09 DIIS
  Energy and wave function converged.


  ==> Post-Iterations <==

    Orbital Energies [Eh]
    ---------------------

    Doubly Occupied:                                                      

       1Ag   -25.833682     2Ag    -1.076019     1B3u   -0.180947  
       1B1u   -0.180947     1B2u   -0.180947  

    Virtual:                                                              

       2B1u    0.442532     2B3u    0.442532     2B2u    0.442532  
       3Ag     0.485648     1B1g    1.228480     4Ag     1.228480  
       1B2g    1.228480     5Ag     1.228480     1B3g    1.228480  
       3B1u    1.526002     3B2u    1.526002     3B3u    1.526002  
       6Ag     2.051155     7Ag     3.283338     2B2g    3.283338  
       2B3g    3.283338     2B1g    3.283338     8Ag     3.283338  
       4B1u    3.331721     5B1u    3.331721     4B3u    3.331721  
       4B2u    3.331721     1Au     3.331721     5B3u    3.331721  
       5B2u    3.331721     6B1u    5.672254     6B3u    5.672254  
       6B2u    5.672254     7B1u    9.267994     7B2u    9.267994  
       2Au     9.267994     8B1u    9.267994     8B2u    9.267994  
       7B3u    9.267994     8B3u    9.267994     3B2g    9.745165  
       3B1g    9.745165     9Ag     9.745165     3B3g    9.745165  
      10Ag     9.745165    11Ag    10.965644  

    Final Occupation by Irrep:
             Ag   B1g   B2g   B3g    Au   B1u   B2u   B3u 
    DOCC [     2,    0,    0,    0,    0,    1,    1,    1 ]

  @RHF Final Energy:   -99.45080702230203

   => Energetics <=

    Nuclear Repulsion Energy =              0.0000000000000000
    One-Electron Energy =                -143.9965321523335149
    Two-Electron Energy =                  44.5457251300314852
    Total Energy =                        -99.4508070223020297

Computation Completed


Properties will be evaluated at   0.000000,   0.000000,   0.000000 [a0]

Properties computed using the SCF density matrix

  Nuclear Dipole Moment: [e a0]
     X:     0.0000      Y:     0.0000      Z:     0.0000

  Electronic Dipole Moment: [e a0]
     X:     0.0000      Y:     0.0000      Z:     0.0000

  Dipole Moment: [e a0]
     X:     0.0000      Y:     0.0000      Z:     0.0000     Total:     0.0000

  Dipole Moment: [D]
     X:     0.0000      Y:     0.0000      Z:     0.0000     Total:     0.0000


*** tstop() called on n412-040.vsc4.prov at Tue Jan 26 18:05:11 2021
Module time:
	user time   =       7.29 seconds =       0.12 minutes
	system time =       0.21 seconds =       0.00 minutes
	total time  =          0 seconds =       0.00 minutes
Total time:
	user time   =       7.29 seconds =       0.12 minutes
	system time =       0.21 seconds =       0.00 minutes
	total time  =          0 seconds =       0.00 minutes

*** tstart() called on n412-040.vsc4.prov
*** at Tue Jan 26 18:05:11 2021


	Wfn Parameters:
	--------------------
	Wavefunction         = CCSD_T
	Number of irreps     = 8
	Number of MOs        = 46
	Number of active MOs = 45
	AO-Basis             = NONE
	Semicanonical        = false
	Reference            = RHF
	Print Level          = 1

	IRREP	# MOs	# FZDC	# DOCC	# SOCC	# VIRT	# FZVR
	-----	-----	------	------	------	------	------
	 Ag	   11	    1	    1	    0	    9	    0
	 B1g	   3	    0	    0	    0	    3	    0
	 B2g	   3	    0	    0	    0	    3	    0
	 B3g	   3	    0	    0	    0	    3	    0
	 Au	   2	    0	    0	    0	    2	    0
	 B1u	   8	    0	    1	    0	    7	    0
	 B2u	   8	    0	    1	    0	    7	    0
	 B3u	   8	    0	    1	    0	    7	    0
	Transforming integrals...
	IWL integrals will be deleted.
	(OO|OO)...
	Presorting SO-basis two-electron integrals.
	Sorting File: SO Ints (nn|nn) nbuckets = 1
	Constructing frozen core operators
	Starting first half-transformation.
	Sorting half-transformed integrals.
	First half integral transformation complete.
	Starting second half-transformation.
	Two-electron integral transformation complete.
	(OO|OV)...
	Starting second half-transformation.
	Two-electron integral transformation complete.
	(OO|VV)...
	Starting second half-transformation.
	Two-electron integral transformation complete.
	(OV|OO)...
	Starting first half-transformation.
	Sorting half-transformed integrals.
	First half integral transformation complete.
	Starting second half-transformation.
	Two-electron integral transformation complete.
	(OV|OV)...
	Starting second half-transformation.
	Two-electron integral transformation complete.
	(OV|VV)...
	Starting second half-transformation.
	Two-electron integral transformation complete.
	(VV|OO)...
	Starting first half-transformation.
	Sorting half-transformed integrals.
	First half integral transformation complete.
	Starting second half-transformation.
	Two-electron integral transformation complete.
	(VV|OV)...
	Starting second half-transformation.
	Two-electron integral transformation complete.
	(VV|VV)...
	Starting second half-transformation.
	Two-electron integral transformation complete.
	Frozen core energy     =    -75.47789007772892

	Size of irrep 0 of <ab|cd> integrals:      0.067 (MW) /      0.537 (MB)
	Size of irrep 1 of <ab|cd> integrals:      0.039 (MW) /      0.314 (MB)
	Size of irrep 2 of <ab|cd> integrals:      0.039 (MW) /      0.314 (MB)
	Size of irrep 3 of <ab|cd> integrals:      0.039 (MW) /      0.314 (MB)
	Size of irrep 4 of <ab|cd> integrals:      0.026 (MW) /      0.210 (MB)
	Size of irrep 5 of <ab|cd> integrals:      0.049 (MW) /      0.394 (MB)
	Size of irrep 6 of <ab|cd> integrals:      0.049 (MW) /      0.394 (MB)
	Size of irrep 7 of <ab|cd> integrals:      0.049 (MW) /      0.394 (MB)
	Total:                                     0.359 (MW) /      2.870 (MB)

	Size of irrep 0 of <ia|bc> integrals:      0.008 (MW) /      0.062 (MB)
	Size of irrep 1 of <ia|bc> integrals:      0.004 (MW) /      0.030 (MB)
	Size of irrep 2 of <ia|bc> integrals:      0.004 (MW) /      0.030 (MB)
	Size of irrep 3 of <ia|bc> integrals:      0.004 (MW) /      0.030 (MB)
	Size of irrep 4 of <ia|bc> integrals:      0.002 (MW) /      0.014 (MB)
	Size of irrep 5 of <ia|bc> integrals:      0.005 (MW) /      0.039 (MB)
	Size of irrep 6 of <ia|bc> integrals:      0.005 (MW) /      0.039 (MB)
	Size of irrep 7 of <ia|bc> integrals:      0.005 (MW) /      0.039 (MB)
	Total:                                     0.035 (MW) /      0.284 (MB)

	Size of irrep 0 of tijab amplitudes:       0.001 (MW) /      0.008 (MB)
	Size of irrep 1 of tijab amplitudes:       0.000 (MW) /      0.003 (MB)
	Size of irrep 2 of tijab amplitudes:       0.000 (MW) /      0.003 (MB)
	Size of irrep 3 of tijab amplitudes:       0.000 (MW) /      0.003 (MB)
	Size of irrep 4 of tijab amplitudes:       0.000 (MW) /      0.000 (MB)
	Size of irrep 5 of tijab amplitudes:       0.000 (MW) /      0.004 (MB)
	Size of irrep 6 of tijab amplitudes:       0.000 (MW) /      0.004 (MB)
	Size of irrep 7 of tijab amplitudes:       0.000 (MW) /      0.004 (MB)
	Total:                                     0.004 (MW) /      0.028 (MB)

	Nuclear Rep. energy          =      0.00000000000000
	SCF energy                   =    -99.45080702230203
	One-electron energy          =    -44.70811519169386
	Two-electron energy          =     20.73519824712067
	Reference energy             =    -99.45080702230210

*** tstop() called on n412-040.vsc4.prov at Tue Jan 26 18:05:13 2021
Module time:
	user time   =       0.06 seconds =       0.00 minutes
	system time =       0.11 seconds =       0.00 minutes
	total time  =          2 seconds =       0.03 minutes
Total time:
	user time   =       7.35 seconds =       0.12 minutes
	system time =       0.32 seconds =       0.01 minutes
	total time  =          2 seconds =       0.03 minutes
            **************************
            *                        *
            *        CCENERGY        *
            *                        *
            **************************

    Nuclear Rep. energy (wfn)     =    0.000000000000000
    SCF energy          (wfn)     =  -99.450807022302030
    Reference energy    (file100) =  -99.450807022302101

    Input parameters:
    -----------------
    Wave function   =     CCSD_T
    Reference wfn   =     RHF
    Brueckner       =     No
    Memory (Mbytes) =     250000.0
    Maxiter         =     50
    R_Convergence   =     1.0e-07
    E_Convergence   =     1.0e-06
    Restart         =     Yes
    DIIS            =     Yes
    AO Basis        =     NONE
    ABCD            =     NEW
    Cache Level     =     2
    Cache Type      =     LOW
    Print Level     =     1
    Num. of threads =     48
    # Amps to Print =     10
    Print MP2 Amps? =     No
    Analyze T2 Amps =     No
    Print Pair Ener =     No
    Local CC        =     No
    SCS-MP2         =     False
    SCSN-MP2        =     False
    SCS-CCSD        =     False

MP2 correlation energy -0.2950715292140001
                Solving CC Amplitude Equations
                ------------------------------
  Iter             Energy              RMS        T1Diag      D1Diag    New D1Diag    D2Diag
  ----     ---------------------    ---------   ----------  ----------  ----------   --------
     0        -0.295071529214000    0.000e+00    0.000000    0.000000    0.000000    0.116787
     1        -0.279620019419761    6.689e-02    0.020087    0.032581    0.032581    0.108265
     2        -0.286686071630817    3.284e-02    0.016170    0.026113    0.026113    0.114613
     3        -0.288944185958379    9.195e-03    0.019482    0.031493    0.031493    0.117171
     4        -0.288544807223643    2.093e-03    0.020398    0.032973    0.032973    0.117533
     5        -0.288501059035597    4.768e-04    0.020576    0.033271    0.033271    0.117563
     6        -0.288500548980437    1.373e-04    0.020618    0.033342    0.033342    0.117560
     7        -0.288494481264228    3.873e-05    0.020625    0.033355    0.033355    0.117549
     8        -0.288494275754554    5.698e-06    0.020627    0.033358    0.033358    0.117548
     9        -0.288494179780939    1.066e-06    0.020627    0.033358    0.033358    0.117548
    10        -0.288494139095209    2.429e-07    0.020627    0.033358    0.033358    0.117548
    11        -0.288494151343660    7.126e-08    0.020627    0.033358    0.033358    0.117548

    Iterations converged.


    Largest TIA Amplitudes:
              1  20        -0.0327950829
              2  27        -0.0327950829
              3  34        -0.0327950829
              0   0        -0.0078200968
              1  24         0.0060604761
              2  31         0.0060604761
              3  38         0.0060604761
              0   8         0.0019605434
              1  21        -0.0007280587
              2  28        -0.0007280587

    Largest TIjAb Amplitudes:
      1   1  21  21        -0.0367664307
      2   2  28  28        -0.0367664307
      3   3  35  35        -0.0367664307
      1   1  20  20        -0.0281201781
      2   2  27  27        -0.0281201781
      3   3  34  34        -0.0281201781
      1   1  20  21        -0.0263407122
      1   1  21  20        -0.0263407122
      2   2  27  28        -0.0263407122
      2   2  28  27        -0.0263407122

    SCF energy       (wfn)                    =  -99.450807022302030
    Reference energy (file100)                =  -99.450807022302101

    Opposite-spin MP2 correlation energy      =   -0.216790258905948
    Same-spin MP2 correlation energy          =   -0.078281270308053
    Singles MP2 correlation energy            =   -0.000000000000000
    MP2 correlation energy                    =   -0.295071529214000
      * MP2 total energy                      =  -99.745878551516100

    Opposite-spin CCSD correlation energy     =   -0.221210562740388
    Same-spin CCSD correlation energy         =   -0.067283588603271
    Singles CCSD correlation energy           =    0.000000000000000
    CCSD correlation energy                   =   -0.288494151343660
      * CCSD total energy                     =  -99.739301173645757

            **************************
            *                        *
            *        CCTRIPLES       *
            *                        *
            **************************


    Wave function   =    CCSD_T
    Reference wfn   =      RHF

    Nuclear Rep. energy (wfn)                =    0.000000000000000
    SCF energy          (wfn)                =  -99.450807022302030
    Reference energy    (file100)            =  -99.450807022302101
    CCSD energy         (file100)            =   -0.288494151343660
    Total CCSD energy   (file100)            =  -99.739301173645757

    Number of ijk index combinations:               20
    Memory available in words        :     31250000000
    ~Words needed per explicit thread:            2916
    Number of threads for explicit ijk threading:   48

    (T) energy                                =   -0.010236457841363
      * CCSD(T) total energy                  =  -99.749537631487129


    Psi4 stopped on: Tuesday, 26 January 2021 06:05PM
    Psi4 wall time for execution: 0:00:04.39

*** Psi4 exiting successfully. Buy a developer a beer!
