
    -----------------------------------------------------------------------
          Psi4: An Open-Source Ab Initio Electronic Structure Package
                               Psi4 1.4a3.dev88 

                         Git: Rev {master} 262e345 


    D. G. A. Smith, L. A. Burns, A. C. Simmonett, R. M. Parrish,
    M. C. Schieber, R. Galvelis, P. Kraus, H. Kruse, R. Di Remigio,
    A. Alenaizan, A. M. James, S. Lehtola, J. P. Misiewicz, M. Scheurer,
    R. A. Shaw, J. B. Schriber, Y. Xie, Z. L. Glick, D. A. Sirianni,
    J. S. O'Brien, J. M. Waldrop, A. Kumar, E. G. Hohenstein,
    B. P. Pritchard, B. R. Brooks, H. F. Schaefer III, A. Yu. Sokolov,
    K. Patkowski, A. E. DePrince III, U. Bozkaya, R. A. King,
    F. A. Evangelista, J. M. Turney, T. D. Crawford, C. D. Sherrill,
    J. Chem. Phys. 152(18) 184108 (2020). https://doi.org/10.1063/5.0006002

                            Additional Code Authors
    E. T. Seidl, C. L. Janssen, E. F. Valeev, M. L. Leininger,
    J. F. Gonthier, R. M. Richard, H. R. McAlexander, M. Saitow, X. Wang,
    P. Verma, and M. H. Lechner

             Previous Authors, Complete List of Code Contributors,
                       and Citations for Specific Modules
    https://github.com/psi4/psi4/blob/master/codemeta.json
    https://github.com/psi4/psi4/graphs/contributors
    http://psicode.org/psi4manual/master/introduction.html#citing-psifour

    -----------------------------------------------------------------------


    Psi4 started on: Tuesday, 26 January 2021 06:15PM

    Process ID: 400718
    Host:       n412-039.vsc4.prov
    PSIDATADIR: /home/fs71337/gallo4/psi4/eri-6/psi4/build/stage/share/psi4
    Memory:     500.0 MiB
    Threads:    48
    
  ==> Input File <==

--------------------------------------------------------------------------
# Any line starting with the # character is a comment line
memory 250000 mb
molecule molecule{
-1 1
F          0.0000000000        0.0000000000        0.0000000000
}

set {
  reference rhf
  basis aug-cc-pV(d+d)Z
  scf_type OUT_OF_CORE
  freeze_core true
}

energy('ccsd(t)')
--------------------------------------------------------------------------

  Memory set to 232.831 GiB by Python driver.

Scratch directory: /binfl/lv71337/airmler/temp/

*** tstart() called on n412-039.vsc4.prov
*** at Tue Jan 26 18:15:17 2021

   => Loading Basis Set <=

    Name: AUG-CC-PV(D+D)Z
    Role: ORBITAL
    Keyword: BASIS
    atoms 1 entry F          line   318 file /home/fs71337/gallo4/psi4/eri-6/psi4/build/stage/share/psi4/basis/aug-cc-pv_dpd_z.gbs 


         ---------------------------------------------------------
                                   SCF
               by Justin Turney, Rob Parrish, Andy Simmonett
                          and Daniel G. A. Smith
                              RHF Reference
                       48 Threads, 238418 MiB Core
         ---------------------------------------------------------

  ==> Geometry <==

    Molecular point group: d2h
    Geometry (in Angstrom), charge = -1, multiplicity = 1:

       Center              X                  Y                   Z               Mass       
    ------------   -----------------  -----------------  -----------------  -----------------
         F            0.000000000000     0.000000000000     0.000000000000    18.998403162730

  Running in d2h symmetry.

  Rotational constants: A = ************  B = ************  C = ************ [cm^-1]
  Rotational constants: A = ************  B = ************  C = ************ [MHz]
  Nuclear repulsion =    0.000000000000000

  Charge       = -1
  Multiplicity = 1
  Electrons    = 10
  Nalpha       = 5
  Nbeta        = 5

  ==> Algorithm <==

  SCF Algorithm Type is OUT_OF_CORE.
  DIIS enabled.
  MOM disabled.
  Fractional occupation disabled.
  Guess Type is CORE.
  Energy threshold   = 1.00e-08
  Density threshold  = 1.00e-08
  Integral threshold = 1.00e-12

  ==> Primary Basis <==

  Basis Set: AUG-CC-PV(D+D)Z
    Blend: AUG-CC-PV(D+D)Z
    Number of shells: 9
    Number of basis function: 23
    Number of Cartesian functions: 25
    Spherical Harmonics?: true
    Max angular momentum: 2

  ==> Integral Setup <==

  ==> DiskJK: Disk-Based J/K Matrices <==

    J tasked:                  Yes
    K tasked:                  Yes
    wK tasked:                  No
    Memory [MiB]:           178813
    Schwarz Cutoff:          1E-12

  Minimum eigenvalue in the overlap matrix is 9.7441601769E-02.
  Reciprocal condition number of the overlap matrix is 4.4315832532E-02.
    Using symmetric orthogonalization.

  ==> Pre-Iterations <==

  SCF Guess: Core (One-Electron) Hamiltonian.

   -------------------------------------------------------
    Irrep   Nso     Nmo     Nalpha   Nbeta   Ndocc  Nsocc
   -------------------------------------------------------
     Ag         8       8       2       2       2       0
     B1g        2       2       0       0       0       0
     B2g        2       2       0       0       0       0
     B3g        2       2       0       0       0       0
     Au         0       0       0       0       0       0
     B1u        3       3       1       1       1       0
     B2u        3       3       1       1       1       0
     B3u        3       3       1       1       1       0
   -------------------------------------------------------
    Total      23      23       5       5       5       0
   -------------------------------------------------------

  ==> Iterations <==

                        Total Energy        Delta E     RMS |[F,P]|

   @RHF iter   1:   -93.01340747979896   -9.30134e+01   3.01886e-01 DIIS
   @RHF iter   2:   -89.37865363223021    3.63475e+00   2.79363e-01 DIIS
   @RHF iter   3:   -98.58967204016693   -9.21102e+00   1.52229e-01 DIIS
   @RHF iter   4:   -99.28890732566849   -6.99235e-01   5.88989e-02 DIIS
   @RHF iter   5:   -99.42748651616634   -1.38579e-01   3.34654e-03 DIIS
   @RHF iter   6:   -99.42798352808983   -4.97012e-04   3.15413e-03 DIIS
   @RHF iter   7:   -99.42827121062753   -2.87683e-04   6.04557e-04 DIIS
   @RHF iter   8:   -99.42828234202560   -1.11314e-05   4.88068e-05 DIIS
   @RHF iter   9:   -99.42828244174073   -9.97151e-08   9.55679e-07 DIIS
   @RHF iter  10:   -99.42828244180181   -6.10783e-11   1.64286e-07 DIIS
   @RHF iter  11:   -99.42828244180278   -9.66338e-13   1.26124e-08 DIIS
   @RHF iter  12:   -99.42828244180279   -1.42109e-14   1.00555e-10 DIIS
  Energy and wave function converged.


  ==> Post-Iterations <==

    Orbital Energies [Eh]
    ---------------------

    Doubly Occupied:                                                      

       1Ag   -25.847835     2Ag    -1.080190     1B1u   -0.181215  
       1B2u   -0.181215     1B3u   -0.181215  

    Virtual:                                                              

       2B1u    0.508973     2B2u    0.508973     2B3u    0.508973  
       3Ag     0.536926     1B3g    1.735924     1B1g    1.735924  
       4Ag     1.735924     1B2g    1.735924     5Ag     1.735924  
       3B3u    2.067744     3B2u    2.067744     3B1u    2.067744  
       6Ag     2.682833     7Ag     5.299270     2B1g    5.299270  
       2B3g    5.299270     2B2g    5.299270     8Ag     5.299270  

    Final Occupation by Irrep:
             Ag   B1g   B2g   B3g    Au   B1u   B2u   B3u 
    DOCC [     2,    0,    0,    0,    0,    1,    1,    1 ]

  @RHF Final Energy:   -99.42828244180279

   => Energetics <=

    Nuclear Repulsion Energy =              0.0000000000000000
    One-Electron Energy =                -143.9132229571557957
    Two-Electron Energy =                  44.4849405153530029
    Total Energy =                        -99.4282824418027928

Computation Completed


Properties will be evaluated at   0.000000,   0.000000,   0.000000 [a0]

Properties computed using the SCF density matrix

  Nuclear Dipole Moment: [e a0]
     X:     0.0000      Y:     0.0000      Z:     0.0000

  Electronic Dipole Moment: [e a0]
     X:     0.0000      Y:     0.0000      Z:     0.0000

  Dipole Moment: [e a0]
     X:     0.0000      Y:     0.0000      Z:     0.0000     Total:     0.0000

  Dipole Moment: [D]
     X:     0.0000      Y:     0.0000      Z:     0.0000     Total:     0.0000


*** tstop() called on n412-039.vsc4.prov at Tue Jan 26 18:15:17 2021
Module time:
	user time   =       5.18 seconds =       0.09 minutes
	system time =       0.22 seconds =       0.00 minutes
	total time  =          0 seconds =       0.00 minutes
Total time:
	user time   =       5.18 seconds =       0.09 minutes
	system time =       0.22 seconds =       0.00 minutes
	total time  =          0 seconds =       0.00 minutes

*** tstart() called on n412-039.vsc4.prov
*** at Tue Jan 26 18:15:17 2021


	Wfn Parameters:
	--------------------
	Wavefunction         = CCSD_T
	Number of irreps     = 8
	Number of MOs        = 23
	Number of active MOs = 22
	AO-Basis             = NONE
	Semicanonical        = false
	Reference            = RHF
	Print Level          = 1

	IRREP	# MOs	# FZDC	# DOCC	# SOCC	# VIRT	# FZVR
	-----	-----	------	------	------	------	------
	 Ag	   8	    1	    1	    0	    6	    0
	 B1g	   2	    0	    0	    0	    2	    0
	 B2g	   2	    0	    0	    0	    2	    0
	 B3g	   2	    0	    0	    0	    2	    0
	 Au	   0	    0	    0	    0	    0	    0
	 B1u	   3	    0	    1	    0	    2	    0
	 B2u	   3	    0	    1	    0	    2	    0
	 B3u	   3	    0	    1	    0	    2	    0
	Transforming integrals...
	IWL integrals will be deleted.
	(OO|OO)...
	Presorting SO-basis two-electron integrals.
	Sorting File: SO Ints (nn|nn) nbuckets = 1
	Constructing frozen core operators
	Starting first half-transformation.
	Sorting half-transformed integrals.
	First half integral transformation complete.
	Starting second half-transformation.
	Two-electron integral transformation complete.
	(OO|OV)...
	Starting second half-transformation.
	Two-electron integral transformation complete.
	(OO|VV)...
	Starting second half-transformation.
	Two-electron integral transformation complete.
	(OV|OO)...
	Starting first half-transformation.
	Sorting half-transformed integrals.
	First half integral transformation complete.
	Starting second half-transformation.
	Two-electron integral transformation complete.
	(OV|OV)...
	Starting second half-transformation.
	Two-electron integral transformation complete.
	(OV|VV)...
	Starting second half-transformation.
	Two-electron integral transformation complete.
	(VV|OO)...
	Starting first half-transformation.
	Sorting half-transformed integrals.
	First half integral transformation complete.
	Starting second half-transformation.
	Two-electron integral transformation complete.
	(VV|OV)...
	Starting second half-transformation.
	Two-electron integral transformation complete.
	(VV|VV)...
	Starting second half-transformation.
	Two-electron integral transformation complete.
	Frozen core energy     =    -75.47741876090430

	Size of irrep 0 of <ab|cd> integrals:      0.004 (MW) /      0.029 (MB)
	Size of irrep 1 of <ab|cd> integrals:      0.002 (MW) /      0.013 (MB)
	Size of irrep 2 of <ab|cd> integrals:      0.002 (MW) /      0.013 (MB)
	Size of irrep 3 of <ab|cd> integrals:      0.002 (MW) /      0.013 (MB)
	Size of irrep 4 of <ab|cd> integrals:      0.001 (MW) /      0.005 (MB)
	Size of irrep 5 of <ab|cd> integrals:      0.002 (MW) /      0.013 (MB)
	Size of irrep 6 of <ab|cd> integrals:      0.002 (MW) /      0.013 (MB)
	Size of irrep 7 of <ab|cd> integrals:      0.002 (MW) /      0.013 (MB)
	Total:                                     0.014 (MW) /      0.110 (MB)

	Size of irrep 0 of <ia|bc> integrals:      0.001 (MW) /      0.006 (MB)
	Size of irrep 1 of <ia|bc> integrals:      0.000 (MW) /      0.002 (MB)
	Size of irrep 2 of <ia|bc> integrals:      0.000 (MW) /      0.002 (MB)
	Size of irrep 3 of <ia|bc> integrals:      0.000 (MW) /      0.002 (MB)
	Size of irrep 4 of <ia|bc> integrals:      0.000 (MW) /      0.001 (MB)
	Size of irrep 5 of <ia|bc> integrals:      0.000 (MW) /      0.004 (MB)
	Size of irrep 6 of <ia|bc> integrals:      0.000 (MW) /      0.004 (MB)
	Size of irrep 7 of <ia|bc> integrals:      0.000 (MW) /      0.004 (MB)
	Total:                                     0.003 (MW) /      0.024 (MB)

	Size of irrep 0 of tijab amplitudes:       0.000 (MW) /      0.002 (MB)
	Size of irrep 1 of tijab amplitudes:       0.000 (MW) /      0.001 (MB)
	Size of irrep 2 of tijab amplitudes:       0.000 (MW) /      0.001 (MB)
	Size of irrep 3 of tijab amplitudes:       0.000 (MW) /      0.001 (MB)
	Size of irrep 4 of tijab amplitudes:       0.000 (MW) /      0.000 (MB)
	Size of irrep 5 of tijab amplitudes:       0.000 (MW) /      0.001 (MB)
	Size of irrep 6 of tijab amplitudes:       0.000 (MW) /      0.001 (MB)
	Size of irrep 7 of tijab amplitudes:       0.000 (MW) /      0.001 (MB)
	Total:                                     0.001 (MW) /      0.006 (MB)

	Nuclear Rep. energy          =      0.00000000000000
	SCF energy                   =    -99.42828244180279
	One-electron energy          =    -44.65405499091080
	Two-electron energy          =     20.70319131001231
	Reference energy             =    -99.42828244180279

*** tstop() called on n412-039.vsc4.prov at Tue Jan 26 18:15:17 2021
Module time:
	user time   =       0.02 seconds =       0.00 minutes
	system time =       0.04 seconds =       0.00 minutes
	total time  =          0 seconds =       0.00 minutes
Total time:
	user time   =       5.20 seconds =       0.09 minutes
	system time =       0.26 seconds =       0.00 minutes
	total time  =          0 seconds =       0.00 minutes
            **************************
            *                        *
            *        CCENERGY        *
            *                        *
            **************************

    Nuclear Rep. energy (wfn)     =    0.000000000000000
    SCF energy          (wfn)     =  -99.428282441802793
    Reference energy    (file100) =  -99.428282441802793

    Input parameters:
    -----------------
    Wave function   =     CCSD_T
    Reference wfn   =     RHF
    Brueckner       =     No
    Memory (Mbytes) =     250000.0
    Maxiter         =     50
    R_Convergence   =     1.0e-07
    E_Convergence   =     1.0e-06
    Restart         =     Yes
    DIIS            =     Yes
    AO Basis        =     NONE
    ABCD            =     NEW
    Cache Level     =     2
    Cache Type      =     LOW
    Print Level     =     1
    Num. of threads =     48
    # Amps to Print =     10
    Print MP2 Amps? =     No
    Analyze T2 Amps =     No
    Print Pair Ener =     No
    Local CC        =     No
    SCS-MP2         =     False
    SCSN-MP2        =     False
    SCS-CCSD        =     False

MP2 correlation energy -0.2376657351764563
                Solving CC Amplitude Equations
                ------------------------------
  Iter             Energy              RMS        T1Diag      D1Diag    New D1Diag    D2Diag
  ----     ---------------------    ---------   ----------  ----------  ----------   --------
     0        -0.237665735176456    0.000e+00    0.000000    0.000000    0.000000    0.112955
     1        -0.226209281485504    6.977e-02    0.022092    0.035737    0.035737    0.106382
     2        -0.232880285401199    3.021e-02    0.018587    0.029923    0.029923    0.113030
     3        -0.234674606188875    9.575e-03    0.022708    0.036600    0.036600    0.115986
     4        -0.234437602529726    1.120e-03    0.023089    0.037210    0.037210    0.116151
     5        -0.234409587656209    2.508e-04    0.023134    0.037292    0.037292    0.116155
     6        -0.234410353905640    6.511e-05    0.023153    0.037326    0.037326    0.116159
     7        -0.234407990648687    1.754e-05    0.023156    0.037332    0.037332    0.116156
     8        -0.234408005980498    2.354e-06    0.023156    0.037333    0.037333    0.116155
     9        -0.234407937329523    5.443e-07    0.023157    0.037333    0.037333    0.116155
    10        -0.234407930253817    9.176e-08    0.023157    0.037333    0.037333    0.116155

    Iterations converged.


    Largest TIA Amplitudes:
              1  12        -0.0372105465
              2  14        -0.0372105465
              3  16        -0.0372105465
              0   0        -0.0101470837
              1  13         0.0030219657
              2  15         0.0030219657
              3  17         0.0030219657
              0   3        -0.0023655538

    Largest TIjAb Amplitudes:
      1   1  12  12        -0.0370455192
      2   2  14  14        -0.0370455192
      3   3  16  16        -0.0370455192
      1   1  13  13        -0.0366479104
      2   2  15  15        -0.0366479104
      3   3  17  17        -0.0366479104
      2   3  14  16        -0.0269161768
      3   2  16  14        -0.0269161768
      1   3  12  16        -0.0269161768
      3   1  16  12        -0.0269161768

    SCF energy       (wfn)                    =  -99.428282441802793
    Reference energy (file100)                =  -99.428282441802793

    Opposite-spin MP2 correlation energy      =   -0.171476750966179
    Same-spin MP2 correlation energy          =   -0.066188984210277
    Singles MP2 correlation energy            =   -0.000000000000000
    MP2 correlation energy                    =   -0.237665735176456
      * MP2 total energy                      =  -99.665948176979242

    Opposite-spin CCSD correlation energy     =   -0.178068734412514
    Same-spin CCSD correlation energy         =   -0.056339195841303
    Singles CCSD correlation energy           =    0.000000000000000
    CCSD correlation energy                   =   -0.234407930253817
      * CCSD total energy                     =  -99.662690372056616

            **************************
            *                        *
            *        CCTRIPLES       *
            *                        *
            **************************


    Wave function   =    CCSD_T
    Reference wfn   =      RHF

    Nuclear Rep. energy (wfn)                =    0.000000000000000
    SCF energy          (wfn)                =  -99.428282441802793
    Reference energy    (file100)            =  -99.428282441802793
    CCSD energy         (file100)            =   -0.234407930253817
    Total CCSD energy   (file100)            =  -99.662690372056616

    Number of ijk index combinations:               20
    Memory available in words        :     31250000000
    ~Words needed per explicit thread:             864
    Number of threads for explicit ijk threading:   48

    (T) energy                                =   -0.005943420343610
      * CCSD(T) total energy                  =  -99.668633792400215


    Psi4 stopped on: Tuesday, 26 January 2021 06:15PM
    Psi4 wall time for execution: 0:00:02.38

*** Psi4 exiting successfully. Buy a developer a beer!
