
    -----------------------------------------------------------------------
          Psi4: An Open-Source Ab Initio Electronic Structure Package
                               Psi4 1.2a1.dev938 

                         Git: Rev {HEAD} fc51d9a dirty


    R. M. Parrish, L. A. Burns, D. G. A. Smith, A. C. Simmonett,
    A. E. DePrince III, E. G. Hohenstein, U. Bozkaya, A. Yu. Sokolov,
    R. Di Remigio, R. M. Richard, J. F. Gonthier, A. M. James,
    H. R. McAlexander, A. Kumar, M. Saitow, X. Wang, B. P. Pritchard,
    P. Verma, H. F. Schaefer III, K. Patkowski, R. A. King, E. F. Valeev,
    F. A. Evangelista, J. M. Turney, T. D. Crawford, and C. D. Sherrill,
    J. Chem. Theory Comput. 13(7) pp 3185--3197 (2017).
    (doi: 10.1021/acs.jctc.7b00174)

    -----------------------------------------------------------------------


    Psi4 started on: Thursday, 20 August 2020 08:57PM

    Process ID: 424562
    PSIDATADIR: /home/irmler/Programs/psi4/beforeGrueneis3/stage/usr/local/psi4/share/psi4
    Memory:     500.0 MiB
    Threads:    4
    
  ==> Input File <==

--------------------------------------------------------------------------
# Any line starting with the # character is a comment line
memory 250000 mb
molecule molecule{
1 2
Cl         0.0000000000        0.0000000000        0.0362353546
H          0.0000000000        0.0000000000       -1.2745322422
}

set {
  reference uhf
  basis aug-cc-pv(q+d)z
  scf_type OUT_OF_CORE
  freeze_core true
}

energy('ccsd')
--------------------------------------------------------------------------

  Memory set to 232.831 GiB by Python driver.

*** tstart() called on cqc05
*** at Thu Aug 20 20:57:59 2020

   => Loading Basis Set <=

    Name: AUG-CC-PV(Q+D)Z
    Role: ORBITAL
    Keyword: BASIS
    atoms 1 entry CL         line  1246 file /home/irmler/Programs/psi4/beforeGrueneis3/stage/usr/local/psi4/share/psi4/basis/aug-cc-pv_qpd_z.gbs 
    atoms 2 entry H          line    56 file /home/irmler/Programs/psi4/beforeGrueneis3/stage/usr/local/psi4/share/psi4/basis/aug-cc-pv_qpd_z.gbs 


         ---------------------------------------------------------
                                   SCF
            by Justin Turney, Rob Parrish, Andy Simmonett
                             and Daniel Smith
                              UHF Reference
                        4 Threads, 238418 MiB Core
         ---------------------------------------------------------

  ==> Geometry <==

    Molecular point group: c2v
    Full point group: C_inf_v

    Geometry (in Angstrom), charge = 1, multiplicity = 2:

       Center              X                  Y                   Z               Mass       
    ------------   -----------------  -----------------  -----------------  -----------------
          CL          0.000000000000     0.000000000000     0.036718910117    34.968852682000
           H          0.000000000000     0.000000000000    -1.274048686683     1.007825032070

  Running in c2v symmetry.

  Rotational constants: A = ************  B =     10.01612  C =     10.01612 [cm^-1]
  Rotational constants: A = ************  B = 300275.80072  C = 300275.80072 [MHz]
  Nuclear repulsion =    6.863163666840807

  Charge       = 1
  Multiplicity = 2
  Electrons    = 17
  Nalpha       = 9
  Nbeta        = 8

  ==> Algorithm <==

  SCF Algorithm Type is OUT_OF_CORE.
  DIIS enabled.
  MOM disabled.
  Fractional occupation disabled.
  Guess Type is GWH.
  Energy threshold   = 1.00e-08
  Density threshold  = 1.00e-08
  Integral threshold = 0.00e+00

  ==> Primary Basis <==

  Basis Set: AUG-CC-PV(Q+D)Z
    Blend: AUG-CC-PV(Q+D)Z
    Number of shells: 37
    Number of basis function: 135
    Number of Cartesian functions: 170
    Spherical Harmonics?: true
    Max angular momentum: 4

  ==> Pre-Iterations <==

   -------------------------------------------------------
    Irrep   Nso     Nmo     Nalpha   Nbeta   Ndocc  Nsocc
   -------------------------------------------------------
     A1        54      54       0       0       0       0
     A2        17      17       0       0       0       0
     B1        32      32       0       0       0       0
     B2        32      32       0       0       0       0
   -------------------------------------------------------
    Total     135     135       9       8       8       1
   -------------------------------------------------------

  ==> Integral Setup <==

  ==> DiskJK: Disk-Based J/K Matrices <==

    J tasked:                  Yes
    K tasked:                  Yes
    wK tasked:                  No
    Memory (MB):            178813
    Schwarz Cutoff:          1E-12

  Minimum eigenvalue in the overlap matrix is 1.0319632068E-04.
  Using Symmetric Orthogonalization.

  SCF Guess: Generalized Wolfsberg-Helmholtz.

  ==> Iterations <==

                        Total Energy        Delta E     RMS |[F,P]|

    Occupation by irrep:
             A1    A2    B1    B2 
    DOCC [     5,    0,    1,    2 ]
    SOCC [     0,    0,    1,    0 ]

   @UHF iter   1:  -424.82770052646879   -4.24828e+02   3.70621e-01 
   @UHF iter   2:  -450.20546695224516   -2.53778e+01   1.26267e-01 DIIS
   @UHF iter   3:  -459.06105463230324   -8.85559e+00   3.20433e-02 DIIS
   @UHF iter   4:  -459.68101701395886   -6.19962e-01   5.48390e-03 DIIS
   @UHF iter   5:  -459.68818781207779   -7.17080e-03   1.23608e-03 DIIS
   @UHF iter   6:  -459.68894116284048   -7.53351e-04   3.00853e-04 DIIS
   @UHF iter   7:  -459.68902814033152   -8.69775e-05   9.25506e-05 DIIS
   @UHF iter   8:  -459.68904004625807   -1.19059e-05   2.64288e-05 DIIS
   @UHF iter   9:  -459.68904155796383   -1.51171e-06   8.63506e-06 DIIS
   @UHF iter  10:  -459.68904173596684   -1.78003e-07   2.52106e-06 DIIS
   @UHF iter  11:  -459.68904175425183   -1.82850e-08   8.73743e-07 DIIS
   @UHF iter  12:  -459.68904175682189   -2.57006e-09   3.45142e-07 DIIS
   @UHF iter  13:  -459.68904175729244   -4.70550e-10   9.59049e-08 DIIS
   @UHF iter  14:  -459.68904175732285   -3.04112e-11   2.25468e-08 DIIS
   @UHF iter  15:  -459.68904175732416   -1.30740e-12   3.53150e-09 DIIS

  ==> Post-Iterations <==

   @Spin Contamination Metric:   1.225363149E-02
   @S^2 Expected:                7.500000000E-01
   @S^2 Observed:                7.622536315E-01
   @S   Expected:                5.000000000E-01
   @S   Observed:                5.000000000E-01

    Orbital Energies (a.u.)
    -----------------------

    Alpha Occupied:                                                       

       1A1  -105.302621     2A1   -11.021253     1B1    -8.507324  
       3A1    -8.483088     1B2    -8.481153     4A1    -1.550703  
       5A1    -0.999706     2B1    -0.950259     2B2    -0.869278  

    Alpha Virtual:                                                        

       6A1    -0.173456     7A1    -0.104508     3B1    -0.079246  
       8A1    -0.078157     3B2    -0.071659     4B1    -0.030175  
       9A1    -0.026121     4B2    -0.015983     1A2     0.006417  
      10A1     0.008273    11A1     0.073241     5B1     0.106959  
       5B2     0.117103    12A1     0.131588    13A1     0.203385  
       6B1     0.204781     6B2     0.225267    14A1     0.248234  
       7B1     0.282610     2A2     0.298736    15A1     0.300382  
       7B2     0.304457    16A1     0.414125     3A2     0.415668  
      17A1     0.440964     8B1     0.466241     8B2     0.479019  
       9B1     0.536070     9B2     0.536106    18A1     0.549294  
      19A1     0.655611    10B1     0.658871    10B2     0.673111  
       4A2     0.694727    20A1     0.696056    21A1     0.822500  
      11B1     0.991566    11B2     1.011979    22A1     1.063044  
      12B1     1.210167    23A1     1.218728     5A2     1.223687  
      24A1     1.241068    12B2     1.241456    13B1     1.305152  
      13B2     1.305256    25A1     1.414982    14B1     1.441052  
      14B2     1.480059     6A2     1.530327    26A1     1.530327  
      27A1     1.567936     7A2     1.572719    28A1     1.582251  
      15B1     1.588877    15B2     1.602515    16B1     1.680487  
      16B2     1.680807     8A2     1.684833    29A1     1.685109  
      17B1     1.749385    17B2     1.771929    18B1     1.774265  
      18B2     1.781482    30A1     1.802206     9A2     1.811148  
      31A1     1.839978    19B1     2.152475    19B2     2.176220  
      32A1     2.229910    33A1     2.416503    34A1     2.703720  
      10A2     2.780030    35A1     2.780482    20B1     2.786877  
      20B2     2.802820    36A1     3.063304    21B1     3.177242  
      21B2     3.201263    11A2     3.347760    37A1     3.350665  
      38A1     3.580766    22B1     3.754243    22B2     3.790630  
      39A1     3.805285    12A2     4.237291    40A1     4.237793  
      23B1     4.261482    23B2     4.264645    24B1     4.294412  
      41A1     4.297356    13A2     4.297359    24B2     4.322968  
      25B1     4.325406    25B2     4.333764    42A1     4.434053  
      14A2     4.435954    43A1     4.636862    26B1     4.868934  
      26B2     4.902591    44A1     4.925884    27B1     5.767622  
      27B2     5.817398    28B1     6.231218    28B2     6.231219  
      45A1     6.669603    15A2     6.669677    46A1     6.781180  
      29B1     7.243492    29B2     7.256864    47A1     7.514333  
      48A1     7.807941    16A2     8.289841    49A1     8.289872  
      30B1     8.365129    30B2     8.376900    31B1     9.002666  
      31B2     9.010073    50A1     9.325036    51A1    10.636065  
      52A1    10.936454    17A2    10.936546    32B1    11.148720  
      32B2    11.177667    53A1    11.722844    54A1    25.127672  

    Beta Occupied:                                                        

       1A1  -105.290083     2A1   -11.008344     3A1    -8.476076  
       1B2    -8.474499     1B1    -8.453552     4A1    -1.434113  
       5A1    -0.979586     2B2    -0.844927  

    Beta Virtual:                                                         

       2B1    -0.375866     6A1    -0.163229     7A1    -0.097237  
       8A1    -0.076841     3B2    -0.070995     3B1    -0.066442  
       9A1    -0.022120     4B2    -0.015833     4B1    -0.010938  
       1A2     0.028764    10A1     0.028793    11A1     0.078483  
       5B2     0.117895     5B1     0.121730    12A1     0.135116  
      13A1     0.206788     6B2     0.227718     6B1     0.243942  
      14A1     0.253501     7B2     0.306777     7B1     0.317163  
       2A2     0.349695    15A1     0.350303     3A2     0.423467  
      16A1     0.423660    17A1     0.447296     8B2     0.479705  
       8B1     0.482530     9B2     0.544907     9B1     0.544916  
      18A1     0.557229    19A1     0.662155    10B1     0.667342  
      10B2     0.673313     4A2     0.700336    20A1     0.701011  
      21A1     0.833720    11B2     1.014896    11B1     1.017264  
      22A1     1.069634    12B1     1.241531    23A1     1.241797  
      12B2     1.243773     5A2     1.262152    24A1     1.262384  
      13B1     1.309106    13B2     1.309117    25A1     1.419129  
      14B2     1.485668    14B1     1.489668    26A1     1.541549  
       6A2     1.541551    27A1     1.577666     7A2     1.585963  
      28A1     1.588690    15B1     1.597017    15B2     1.603840  
       8A2     1.685970    29A1     1.686154    16B1     1.714478  
      16B2     1.714479    17B1     1.770818    17B2     1.776712  
      18B1     1.780940    18B2     1.783540    30A1     1.823371  
       9A2     1.825513    31A1     1.840970    19B1     2.170744  
      19B2     2.178259    32A1     2.239423    33A1     2.422159  
      34A1     2.714904    10A2     2.784266    35A1     2.784468  
      20B1     2.792791    20B2     2.802337    36A1     3.077552  
      21B1     3.189115    21B2     3.201858    11A2     3.367951  
      37A1     3.368376    38A1     3.585984    22B1     3.774947  
      22B2     3.794704    39A1     3.814741    12A2     4.260403  
      40A1     4.260451    23B1     4.301726    23B2     4.302432  
      24B1     4.318263    41A1     4.326615    13A2     4.326616  
      24B2     4.332900    25B1     4.347017    25B2     4.347170  
      42A1     4.453443    14A2     4.453909    43A1     4.644031  
      26B1     4.886290    26B2     4.903932    44A1     4.933521  
      27B1     5.817467    27B2     5.824184    28B1     6.231625  
      28B2     6.231625    45A1     6.671902    15A2     6.671968  
      46A1     6.784616    29B1     7.247759    29B2     7.256323  
      47A1     7.516103    48A1     7.806872    16A2     8.288929  
      49A1     8.288946    30B1     8.368044    30B2     8.376022  
      31B1     9.003061    31B2     9.008872    50A1     9.324376  
      51A1    10.637298    52A1    10.951999    17A2    10.952038  
      32B1    11.164681    32B2    11.180295    53A1    11.729779  
      54A1    25.141441  

    Final Occupation by Irrep:
             A1    A2    B1    B2 
    DOCC [     5,    0,    1,    2 ]
    SOCC [     0,    0,    1,    0 ]

  Energy converged.

  @UHF Final Energy:  -459.68904175732416

   => Energetics <=

    Nuclear Repulsion Energy =              6.8631636668408067
    One-Electron Energy =                -641.9778465422912177
    Two-Electron Energy =                 175.4256411181262365
    Total Energy =                       -459.6890417573241621


  UHF NO Occupations:
  HONO-2 :    4 A1 1.9995245
  HONO-1 :    5 A1 1.9947040
  HONO-0 :    2 B1 1.0000000
  LUNO+0 :    6 A1 0.0052960
  LUNO+1 :    7 A1 0.0004755
  LUNO+2 :    3 B2 0.0003651
  LUNO+3 :    3 B1 0.0000040



Properties will be evaluated at   0.000000,   0.000000,   0.000000 Bohr

Properties computed using the SCF density matrix

  Nuclear Dipole Moment: (a.u.)
     X:     0.0000      Y:     0.0000      Z:    -1.2280

  Electronic Dipole Moment: (a.u.)
     X:     0.0000      Y:     0.0000      Z:     0.5366

  Dipole Moment: (a.u.)
     X:     0.0000      Y:     0.0000      Z:    -0.6914     Total:     0.6914

  Dipole Moment: (Debye)
     X:     0.0000      Y:     0.0000      Z:    -1.7573     Total:     1.7573


*** tstop() called on cqc05 at Thu Aug 20 20:58:06 2020
Module time:
	user time   =       7.73 seconds =       0.13 minutes
	system time =       0.37 seconds =       0.01 minutes
	total time  =          7 seconds =       0.12 minutes
Total time:
	user time   =       7.73 seconds =       0.13 minutes
	system time =       0.37 seconds =       0.01 minutes
	total time  =          7 seconds =       0.12 minutes

*** tstart() called on cqc05
*** at Thu Aug 20 20:58:06 2020


	Wfn Parameters:
	--------------------
	Wavefunction         = CCSD
	Number of irreps     = 4
	Number of MOs        = 135
	Number of active MOs = 130
	AO-Basis             = NONE
	Semicanonical        = false
	Reference            = UHF
	Print Level          = 1

	IRREP	# MOs	# FZDC	# DOCC	# SOCC	# VIRT	# FZVR
	-----	-----	------	------	------	------	------
	 A1	   54	    3	    2	    0	    49	    0
	 A2	   17	    0	    0	    0	    17	    0
	 B1	   32	    1	    0	    1	    30	    0
	 B2	   32	    1	    1	    0	    30	    0
	Transforming integrals...
	IWL integrals will be deleted.
	(OO|OO)...
	Presorting SO-basis two-electron integrals.
	Sorting File: SO Ints (nn|nn) nbuckets = 1
	Transforming the one-electron integrals and constructing Fock matrices
	Starting AA/AB first half-transformation.
	Sorting AA/AB half-transformed integrals.
	Starting BB first half-transformation.
	Sorting BB half-transformed integrals.
	First half integral transformation complete.
	Starting AA second half-transformation.
	Starting AB second half-transformation.
	Starting BB second half-transformation.
	Two-electron integral transformation complete.
	(OO|OV)...
	Starting AA second half-transformation.
	Starting AB second half-transformation.
	Starting BB second half-transformation.
	Two-electron integral transformation complete.
	(OO|VV)...
	Starting AA second half-transformation.
	Starting AB second half-transformation.
	Starting BB second half-transformation.
	Two-electron integral transformation complete.
	(OV|OO)...
	Starting AA/AB first half-transformation.
	Sorting AA/AB half-transformed integrals.
	Starting BB first half-transformation.
	Sorting BB half-transformed integrals.
	First half integral transformation complete.
	Starting AA second half-transformation.
	Starting AB second half-transformation.
	Starting BB second half-transformation.
	Two-electron integral transformation complete.
	(OV|OV)...
	Starting AA second half-transformation.
	Starting AB second half-transformation.
	Starting BB second half-transformation.
	Two-electron integral transformation complete.
	(OV|VV)...
	Starting AA second half-transformation.
	Starting AB second half-transformation.
	Starting BB second half-transformation.
	Two-electron integral transformation complete.
	(VV|OO)...
	Starting AA/AB first half-transformation.
	Sorting AA/AB half-transformed integrals.
	Starting BB first half-transformation.
	Sorting BB half-transformed integrals.
	First half integral transformation complete.
	Starting AA second half-transformation.
	Starting AB second half-transformation.
	Starting BB second half-transformation.
	Two-electron integral transformation complete.
	(VV|OV)...
	Starting AA second half-transformation.
	Starting AB second half-transformation.
	Starting BB second half-transformation.
	Two-electron integral transformation complete.
	(VV|VV)...
	Starting AA second half-transformation.
	Starting AB second half-transformation.
	Starting BB second half-transformation.
	Two-electron integral transformation complete.
	Frozen core energy     =   -448.78471331149547

	Size of irrep 0 of <AB|CD> integrals:      4.761 (MW) /     38.089 (MB)
	Size of irrep 1 of <AB|CD> integrals:      3.003 (MW) /     24.026 (MB)
	Size of irrep 2 of <AB|CD> integrals:      3.920 (MW) /     31.363 (MB)
	Size of irrep 3 of <AB|CD> integrals:      3.920 (MW) /     31.363 (MB)
	Total:                                    15.605 (MW) /    124.842 (MB)

	Size of irrep 0 of <ab|cd> integrals:      4.893 (MW) /     39.144 (MB)
	Size of irrep 1 of <ab|cd> integrals:      3.108 (MW) /     24.865 (MB)
	Size of irrep 2 of <ab|cd> integrals:      4.117 (MW) /     32.935 (MB)
	Size of irrep 3 of <ab|cd> integrals:      3.988 (MW) /     31.904 (MB)
	Total:                                    16.106 (MW) /    128.848 (MB)

	Size of irrep 0 of <Ab|Cd> integrals:     20.430 (MW) /    163.443 (MB)
	Size of irrep 1 of <Ab|Cd> integrals:     12.222 (MW) /     97.776 (MB)
	Size of irrep 2 of <Ab|Cd> integrals:     16.072 (MW) /    128.577 (MB)
	Size of irrep 3 of <Ab|Cd> integrals:     15.817 (MW) /    126.532 (MB)
	Total:                                    64.541 (MW) /    516.328 (MB)

	Size of irrep 0 of <IA|BC> integrals:      0.709 (MW) /      5.675 (MB)
	Size of irrep 1 of <IA|BC> integrals:      0.326 (MW) /      2.606 (MB)
	Size of irrep 2 of <IA|BC> integrals:      0.499 (MW) /      3.992 (MB)
	Size of irrep 3 of <IA|BC> integrals:      0.499 (MW) /      3.992 (MB)
	Total:                                     2.033 (MW) /     16.265 (MB)

	Size of irrep 0 of <ia|bc> integrals:      0.583 (MW) /      4.660 (MB)
	Size of irrep 1 of <ia|bc> integrals:      0.229 (MW) /      1.834 (MB)
	Size of irrep 2 of <ia|bc> integrals:      0.321 (MW) /      2.565 (MB)
	Size of irrep 3 of <ia|bc> integrals:      0.435 (MW) /      3.483 (MB)
	Total:                                     1.568 (MW) /     12.541 (MB)

	Size of irrep 0 of <Ia|Bc> integrals:      0.719 (MW) /      5.749 (MB)
	Size of irrep 1 of <Ia|Bc> integrals:      0.332 (MW) /      2.657 (MB)
	Size of irrep 2 of <Ia|Bc> integrals:      0.513 (MW) /      4.105 (MB)
	Size of irrep 3 of <Ia|Bc> integrals:      0.501 (MW) /      4.009 (MB)
	Total:                                     2.065 (MW) /     16.520 (MB)

	Size of irrep 0 of <iA|bC> integrals:      0.579 (MW) /      4.628 (MB)
	Size of irrep 1 of <iA|bC> integrals:      0.224 (MW) /      1.790 (MB)
	Size of irrep 2 of <iA|bC> integrals:      0.309 (MW) /      2.470 (MB)
	Size of irrep 3 of <iA|bC> integrals:      0.433 (MW) /      3.468 (MB)
	Total:                                     1.544 (MW) /     12.356 (MB)

	Size of irrep 0 of tIjAb amplitudes:       0.023 (MW) /      0.181 (MB)
	Size of irrep 1 of tIjAb amplitudes:       0.003 (MW) /      0.028 (MB)
	Size of irrep 2 of tIjAb amplitudes:       0.008 (MW) /      0.064 (MB)
	Size of irrep 3 of tIjAb amplitudes:       0.016 (MW) /      0.127 (MB)
	Total:                                     0.050 (MW) /      0.400 (MB)

	Nuclear Rep. energy          =      6.86316366684081
	SCF energy                   =   -459.68904175732416
	One-electron energy          =    -27.90641276432957
	Two-electron (AA) energy     =      2.62260105947904
	Two-electron (BB) energy     =      1.25527228509125
	Two-electron (AB) energy     =      6.26104730709059
	Two-electron energy          =     10.13892065166088
	Reference energy             =   -459.68904175732337

*** tstop() called on cqc05 at Thu Aug 20 20:58:17 2020
Module time:
	user time   =       6.16 seconds =       0.10 minutes
	system time =       4.04 seconds =       0.07 minutes
	total time  =         11 seconds =       0.18 minutes
Total time:
	user time   =      13.89 seconds =       0.23 minutes
	system time =       4.41 seconds =       0.07 minutes
	total time  =         18 seconds =       0.30 minutes

*** tstart() called on cqc05
*** at Thu Aug 20 20:58:17 2020

            **************************
            *                        *
            *        CCENERGY        *
            *                        *
            **************************

    Nuclear Rep. energy (wfn)     =    6.863163666840807
    SCF energy          (wfn)     = -459.689041757324162
    Reference energy    (file100) = -459.689041757323366

    Input parameters:
    -----------------
    Wave function   =     CCSD
    Reference wfn   =     UHF
    Brueckner       =     No
    Memory (Mbytes) =     250000.0
    Maxiter         =     50
    R_Convergence   =     1.0e-07
    E_Convergence   =     1.0e-06
    Restart         =     Yes
    DIIS            =     Yes
    AO Basis        =     NONE
    ABCD            =     NEW
    Cache Level     =     2
    Cache Type      =     LRU
    Print Level     =     1
    Num. of threads =     4
    # Amps to Print =     10
    Print MP2 Amps? =     No
    Analyze T2 Amps =     No
    Print Pair Ener =     No
    Local CC        =     No
    SCS-MP2         =     False
    SCSN-MP2        =     False
    SCS-CCSD        =     False

MP2 correlation energy -0.1772424750105240
                Solving CC Amplitude Equations
                ------------------------------
  Iter             Energy              RMS        T1Diag      D1Diag    New D1Diag    D2Diag
  ----     ---------------------    ---------   ----------  ----------  ----------   --------
     0        -0.177242475010524    0.000e+00    0.000000    0.000000    0.000000    0.000000
     1        -0.194847939042636    4.278e-02    0.007841    0.000000    0.000000    0.000000
     2        -0.200977155768935    1.485e-02    0.011602    0.000000    0.000000    0.000000
     3        -0.201249067063169    3.678e-03    0.012762    0.000000    0.000000    0.000000
     4        -0.201266141837872    1.104e-03    0.013061    0.000000    0.000000    0.000000
     5        -0.201257661385062    3.375e-04    0.013112    0.000000    0.000000    0.000000
     6        -0.201258259726353    1.116e-04    0.013122    0.000000    0.000000    0.000000
     7        -0.201259681703624    3.515e-05    0.013121    0.000000    0.000000    0.000000
     8        -0.201259657461790    1.097e-05    0.013120    0.000000    0.000000    0.000000
     9        -0.201259563511327    3.760e-06    0.013120    0.000000    0.000000    0.000000
    10        -0.201259569558793    1.425e-06    0.013119    0.000000    0.000000    0.000000
    11        -0.201259582671762    5.579e-07    0.013119    0.000000    0.000000    0.000000
    12        -0.201259592758239    1.842e-07    0.013119    0.000000    0.000000    0.000000
    13        -0.201259591941016    5.937e-08    0.013119    0.000000    0.000000    0.000000
    13        -0.201259591941016    5.937e-08    0.013119    0.000000    0.000000    0.000000

    Iterations converged.


    CCSD corr. energy   =   -0.201259591941016
    PPL corr. energy    =    0.054622157243009
    OS PPL corr. energy =    0.046648954287801
    SS PPL corr. energy =    0.007973202955207
    Largest TIA Amplitudes:
              2  67         0.0062551445
              1  11        -0.0055355451
              1   1         0.0054534290
              1   8        -0.0044546698
              1   0        -0.0041212494
              2  70        -0.0040123781
              0   9        -0.0038385296
              1  12        -0.0037737144
              0   1         0.0035347090
              1  18         0.0034860538

    Largest Tia Amplitudes:
              0   9         0.0127797743
              0   0        -0.0098637723
              0   4        -0.0097527836
              1   9        -0.0069866332
              0   1         0.0068194196
              1   4         0.0061157582
              2  98        -0.0060413844
              0   5         0.0057886276
              0  18         0.0054897718
              2 101         0.0051644869

    Largest TIJAB Amplitudes:
      3   2  50   9         0.0274125191
      3   2  49   9         0.0227632041
      3   2  50   4         0.0224398501
      3   2  49   4         0.0203332705
      2   1  67   1         0.0162457881
      2   1  67   0        -0.0158149323
      3   1  97   0         0.0150203061
      3   1  97   1        -0.0142495344
      2   1  70   1        -0.0139360491
      3   1 100   1         0.0133972522

    Largest Tijab Amplitudes:
      2   0  66  50         0.0171343925
      2   1  98   1        -0.0157307394
      2   1 101   1         0.0142746259
      2   1  98   0         0.0138769077
      2   0  66  49         0.0131401070
      1   0  71  66         0.0122980364
      2   1 101   0        -0.0115127173
      2   1 100   0         0.0105922149
      1   0  68  66        -0.0102324935
      2   1 100   1        -0.0101536450

    Largest TIjAb Amplitudes:
      1   1   0   0        -0.0520459635
      1   1   0   1         0.0435119660
      3   0  50  66        -0.0408828989
      2   0   9  66         0.0388932955
      1   1   1   0         0.0357029502
      1   1   1   1        -0.0349188901
      3   0  49  66        -0.0334359079
      3   2  50  50        -0.0320103180
      3   2   9   9         0.0314789488
      2   0   4  66         0.0311481461

    SCF energy       (wfn)                    = -459.689041757324162
    Reference energy (file100)                = -459.689041757323366

    Opposite-spin MP2 correlation energy      =   -0.141036218074992
    Same-spin MP2 correlation energy          =   -0.036206256935527
    MP2 correlation energy                    =   -0.177242475010524
      * MP2 total energy                      = -459.866284232333896

    Opposite-spin CCSD correlation energy     =   -0.164553176141335
    Same-spin CCSD correlation energy         =   -0.036706416185200
    CCSD correlation energy                   =   -0.201259591941016
      * CCSD total energy                     = -459.890301349264405


*** tstop() called on cqc05 at Thu Aug 20 20:58:27 2020
Module time:
	user time   =       3.96 seconds =       0.07 minutes
	system time =       3.91 seconds =       0.07 minutes
	total time  =         10 seconds =       0.17 minutes
Total time:
	user time   =      17.85 seconds =       0.30 minutes
	system time =       8.32 seconds =       0.14 minutes
	total time  =         28 seconds =       0.47 minutes

*** Psi4 exiting successfully. Buy a developer a beer!
