
    -----------------------------------------------------------------------
          Psi4: An Open-Source Ab Initio Electronic Structure Package
                               Psi4 1.4a3.dev88 

                         Git: Rev {master} 262e345 


    D. G. A. Smith, L. A. Burns, A. C. Simmonett, R. M. Parrish,
    M. C. Schieber, R. Galvelis, P. Kraus, H. Kruse, R. Di Remigio,
    A. Alenaizan, A. M. James, S. Lehtola, J. P. Misiewicz, M. Scheurer,
    R. A. Shaw, J. B. Schriber, Y. Xie, Z. L. Glick, D. A. Sirianni,
    J. S. O'Brien, J. M. Waldrop, A. Kumar, E. G. Hohenstein,
    B. P. Pritchard, B. R. Brooks, H. F. Schaefer III, A. Yu. Sokolov,
    K. Patkowski, A. E. DePrince III, U. Bozkaya, R. A. King,
    F. A. Evangelista, J. M. Turney, T. D. Crawford, C. D. Sherrill,
    J. Chem. Phys. 152(18) 184108 (2020). https://doi.org/10.1063/5.0006002

                            Additional Code Authors
    E. T. Seidl, C. L. Janssen, E. F. Valeev, M. L. Leininger,
    J. F. Gonthier, R. M. Richard, H. R. McAlexander, M. Saitow, X. Wang,
    P. Verma, and M. H. Lechner

             Previous Authors, Complete List of Code Contributors,
                       and Citations for Specific Modules
    https://github.com/psi4/psi4/blob/master/codemeta.json
    https://github.com/psi4/psi4/graphs/contributors
    http://psicode.org/psi4manual/master/introduction.html#citing-psifour

    -----------------------------------------------------------------------


    Psi4 started on: Saturday, 30 January 2021 04:40PM

    Process ID: 226116
    Host:       l43
    PSIDATADIR: /home/fs71337/gallo4/psi4/eri-6/psi4/build/stage/share/psi4
    Memory:     500.0 MiB
    Threads:    1
    
  ==> Input File <==

--------------------------------------------------------------------------
# Any line starting with the # character is a comment line
memory 550000 mb
molecule molecule{
0 1
C         -0.0000000000        0.0000000000       -1.2269371074
Cl         0.0000000000        0.0000000000        0.5495574478
H          1.0284771469        0.0000000000       -1.5697755158
H         -0.5142385735        0.8906873364       -1.5697755158
H         -0.5142385735       -0.8906873364       -1.5697755158
}

set {
  reference rhf
  basis aug-cc-pV(q+d)Z
  scf_type OUT_OF_CORE
  freeze_core true
}

energy('ccsd(t)')
--------------------------------------------------------------------------

  Memory set to 512.227 GiB by Python driver.

Scratch directory: /tmp/

*** tstart() called on l43
*** at Sat Jan 30 16:40:31 2021

   => Loading Basis Set <=

    Name: AUG-CC-PV(Q+D)Z
    Role: ORBITAL
    Keyword: BASIS
    atoms 1   entry C          line   331 file /home/fs71337/gallo4/psi4/eri-6/psi4/build/stage/share/psi4/basis/aug-cc-pv_qpd_z.gbs 
    atoms 2   entry CL         line  1262 file /home/fs71337/gallo4/psi4/eri-6/psi4/build/stage/share/psi4/basis/aug-cc-pv_qpd_z.gbs 
    atoms 3-5 entry H          line    68 file /home/fs71337/gallo4/psi4/eri-6/psi4/build/stage/share/psi4/basis/aug-cc-pv_qpd_z.gbs 


         ---------------------------------------------------------
                                   SCF
               by Justin Turney, Rob Parrish, Andy Simmonett
                          and Daniel G. A. Smith
                              RHF Reference
                        1 Threads, 524520 MiB Core
         ---------------------------------------------------------

  ==> Geometry <==

    Molecular point group: cs
    Full point group: C3v

    Geometry (in Angstrom), charge = 0, multiplicity = 1:

       Center              X                  Y                   Z               Mass       
    ------------   -----------------  -----------------  -----------------  -----------------
         C           -0.000000000001     1.221895753116     0.000000000000    12.000000000000
         CL          -0.000000000001    -0.554598802084     0.000000000000    34.968852682000
         H           -0.514238573427     1.564734161516     0.890687336442     1.007825032230
         H           -0.514238573427     1.564734161516    -0.890687336442     1.007825032230
         H            1.028477146900     1.564734161516     0.000000000000     1.007825032230

  Running in cs symmetry.

  Rotational constants: A =      5.27109  B =      0.44746  C =      0.44746 [cm^-1]
  Rotational constants: A = 158023.43996  B =  13414.60732  C =  13414.60732 [MHz]
  Nuclear repulsion =   51.517275473194481

  Charge       = 0
  Multiplicity = 1
  Electrons    = 26
  Nalpha       = 13
  Nbeta        = 13

  ==> Algorithm <==

  SCF Algorithm Type is OUT_OF_CORE.
  DIIS enabled.
  MOM disabled.
  Fractional occupation disabled.
  Guess Type is SAD.
  Energy threshold   = 1.00e-08
  Density threshold  = 1.00e-08
  Integral threshold = 1.00e-12

  ==> Primary Basis <==

  Basis Set: AUG-CC-PV(Q+D)Z
    Blend: AUG-CC-PV(Q+D)Z
    Number of shells: 85
    Number of basis function: 307
    Number of Cartesian functions: 385
    Spherical Harmonics?: true
    Max angular momentum: 4

  ==> Integral Setup <==

  ==> DiskJK: Disk-Based J/K Matrices <==

    J tasked:                  Yes
    K tasked:                  Yes
    wK tasked:                  No
    Memory [MiB]:           393390
    Schwarz Cutoff:          1E-12

  Minimum eigenvalue in the overlap matrix is 1.5535111795E-05.
  Reciprocal condition number of the overlap matrix is 1.5135238973E-06.
    Using symmetric orthogonalization.

  ==> Pre-Iterations <==

  SCF Guess: Superposition of Atomic Densities via on-the-fly atomic UHF (no occupation information).

   -------------------------
    Irrep   Nso     Nmo    
   -------------------------
     A'       182     182 
     A"       125     125 
   -------------------------
    Total     307     307
   -------------------------

  ==> Iterations <==

                        Total Energy        Delta E     RMS |[F,P]|

   @RHF iter SAD:  -498.72063987628565   -4.98721e+02   0.00000e+00 
   @RHF iter   1:  -499.11745018218033   -3.96810e-01   1.13684e-03 DIIS
   @RHF iter   2:  -499.15074781398675   -3.32976e-02   3.93879e-04 DIIS
   @RHF iter   3:  -499.15484779330245   -4.09998e-03   1.23725e-04 DIIS
   @RHF iter   4:  -499.15544776678831   -5.99973e-04   3.78880e-05 DIIS
   @RHF iter   5:  -499.15550028772424   -5.25209e-05   5.66105e-06 DIIS
   @RHF iter   6:  -499.15550228730734   -1.99958e-06   1.15540e-06 DIIS
   @RHF iter   7:  -499.15550237153559   -8.42282e-08   3.99667e-07 DIIS
   @RHF iter   8:  -499.15550238044739   -8.91180e-09   1.30728e-07 DIIS
   @RHF iter   9:  -499.15550238191139   -1.46400e-09   2.55837e-08 DIIS
   @RHF iter  10:  -499.15550238195902   -4.76348e-11   3.59737e-09 DIIS
  Energy and wave function converged.


  ==> Post-Iterations <==

    Orbital Energies [Eh]
    ---------------------

    Doubly Occupied:                                                      

       1Ap  -104.824000     2Ap   -11.287997     3Ap   -10.549545  
       4Ap    -8.016716     5Ap    -8.014960     1App   -8.014960  
       6Ap    -1.129146     7Ap    -0.914791     2App   -0.618852  
       8Ap    -0.618852     9Ap    -0.547117     3App   -0.435475  
      10Ap    -0.435475  

    Virtual:                                                              

      11Ap     0.025209    12Ap     0.041701     4App    0.041701  
      13Ap     0.055799    14Ap     0.096655    15Ap     0.107305  
       5App    0.107305    16Ap     0.114432     6App    0.114432  
      17Ap     0.117522    18Ap     0.173637     7App    0.173637  
      19Ap     0.174995    20Ap     0.232452     8App    0.241061  
      21Ap     0.241061    22Ap     0.252692    23Ap     0.270400  
       9App    0.270400    10App    0.273126    24Ap     0.273503  
      25Ap     0.282140    11App    0.282140    26Ap     0.308682  
      27Ap     0.334704    12App    0.334704    28Ap     0.337453  
      29Ap     0.368080    13App    0.368080    30Ap     0.369197  
      14App    0.369197    31Ap     0.377157    15App    0.407430  
      32Ap     0.407430    33Ap     0.517914    16App    0.517914  
      34Ap     0.539771    35Ap     0.561954    17App    0.561954  
      36Ap     0.566508    37Ap     0.609706    18App    0.609706  
      38Ap     0.613621    19App    0.637298    39Ap     0.637298  
      20App    0.665606    40Ap     0.695295    21App    0.695295  
      41Ap     0.716557    42Ap     0.742207    43Ap     0.746156  
      22App    0.746156    23App    0.749055    44Ap     0.776698  
      24App    0.776698    45Ap     0.782412    46Ap     0.796661  
      25App    0.796661    47Ap     0.828274    48Ap     0.839331  
      26App    0.870264    49Ap     0.870264    50Ap     0.914857  
      27App    0.914857    28App    0.936251    51Ap     0.976609  
      29App    0.976609    52Ap     1.001861    53Ap     1.042933  
      30App    1.042933    54Ap     1.078931    55Ap     1.106860  
      56Ap     1.139097    31App    1.139097    57Ap     1.158406  
      32App    1.158406    33App    1.163766    58Ap     1.167678  
      59Ap     1.220471    34App    1.220471    60Ap     1.236539  
      61Ap     1.272739    62Ap     1.293075    35App    1.293075  
      36App    1.390757    63Ap     1.421787    37App    1.421787  
      64Ap     1.492369    38App    1.492369    65Ap     1.499295  
      66Ap     1.610419    67Ap     1.652906    39App    1.652906  
      40App    1.698651    68Ap     1.698651    69Ap     1.703863  
      70Ap     1.727118    41App    1.727118    71Ap     1.776274  
      42App    1.776274    72Ap     1.823696    43App    1.823696  
      73Ap     1.853291    74Ap     1.864067    44App    1.864067  
      45App    1.876529    75Ap     1.944722    46App    1.944722  
      76Ap     1.949747    77Ap     1.962829    47App    1.962829  
      48App    1.980243    78Ap     1.986574    49App    1.986574  
      79Ap     1.990829    80Ap     2.042092    50App    2.048115  
      81Ap     2.048115    51App    2.068530    82Ap     2.101113  
      83Ap     2.103789    52App    2.103789    53App    2.149483  
      84Ap     2.188463    85Ap     2.197048    86Ap     2.215097  
      54App    2.215097    87Ap     2.252474    55App    2.252474  
      88Ap     2.258442    89Ap     2.292177    56App    2.295969  
      90Ap     2.324977    57App    2.324977    91Ap     2.383832  
      58App    2.383832    92Ap     2.404082    59App    2.404082  
      93Ap     2.453596    94Ap     2.516244    60App    2.516244  
      61App    2.656726    95Ap     2.656726    62App    2.665745  
      96Ap     2.683817    97Ap     2.759433    63App    2.759433  
      98Ap     2.768434    64App    2.783072    99Ap     2.815450  
      65App    2.815450   100Ap     2.880091    66App    2.950426  
     101Ap     2.950426   102Ap     3.012694    67App    3.012694  
     103Ap     3.070804   104Ap     3.082017    68App    3.082017  
     105Ap     3.129870   106Ap     3.265312    69App    3.265312  
     107Ap     3.304582    70App    3.421543   108Ap     3.421543  
     109Ap     3.550182    71App    3.550182   110Ap     3.599839  
      72App    3.626757   111Ap     3.720393    73App    3.774920  
     112Ap     3.774920   113Ap     3.799083    74App    3.834899  
     114Ap     3.847418    75App    3.847418   115Ap     3.953796  
      76App    3.953796   116Ap     4.046146   117Ap     4.064672  
      77App    4.064672   118Ap     4.154726    78App    4.154726  
     119Ap     4.158914   120Ap     4.165580    79App    4.165580  
     121Ap     4.332345    80App    4.332345   122Ap     4.502690  
     123Ap     4.541550    81App    4.541550   124Ap     4.631562  
     125Ap     4.646592    82App    4.646592   126Ap     4.740632  
      83App    4.740778   127Ap     4.777889    84App    4.777889  
     128Ap     4.800286   129Ap     4.862797    85App    4.862797  
      86App    4.882430   130Ap     4.940767   131Ap     5.016275  
      87App    5.016918    88App    5.040000   132Ap     5.040000  
      89App    5.170235   133Ap     5.170235   134Ap     5.281517  
      90App    5.281517   135Ap     5.464658    91App    6.121469  
     136Ap     6.121469    92App    6.194093   137Ap     6.245695  
     138Ap     6.377371    93App    6.377371   139Ap     6.415394  
     140Ap     6.611814    94App    6.611814   141Ap     6.706755  
      95App    6.706755    96App    6.733778    97App    6.802004  
     142Ap     6.825926    98App    6.825926   143Ap     6.951889  
      99App    6.976905   144Ap     6.976905   145Ap     6.992797  
     100App    6.992797   146Ap     7.077784   101App    7.077784  
     147Ap     7.169099   148Ap     7.302569   149Ap     7.319934  
     102App    7.319934   150Ap     7.425399   151Ap     7.597512  
     103App    7.597512   104App    7.608483   152Ap     7.700758  
     105App    7.700758   153Ap     7.774724   154Ap     7.885945  
     106App    7.885945   155Ap     7.915645   156Ap     8.282031  
     107App    8.282031   157Ap     8.411401   158Ap     8.440672  
     108App    8.440672   159Ap     8.514328   160Ap     8.597400  
     109App    8.597400   161Ap     8.877842   110App    8.877842  
     162Ap     8.927660   111App    9.033407   163Ap     9.167108  
     112App    9.167108   164Ap     9.227925   113App    9.233945  
     165Ap     9.425194   114App    9.425194   166Ap     9.579358  
     115App    9.579358   167Ap     9.597768   116App    9.685739  
     168Ap     9.685739   169Ap     9.937680   117App    9.994469  
     118App   10.154246   170Ap    10.154246   119App   10.369480  
     171Ap    10.369480   172Ap    10.415940   173Ap    10.820385  
     120App   10.820385   174Ap    10.877639   121App   10.973860  
     175Ap    10.973860   122App   11.489834   176Ap    11.538595  
     123App   11.538595   177Ap    11.911708   124App   11.911708  
     178Ap    12.031936   179Ap    13.175276   125App   13.175276  
     180Ap    13.372527   181Ap    26.425011   182Ap    28.864751  

    Final Occupation by Irrep:
             Ap   App 
    DOCC [    10,    3 ]

  @RHF Final Energy:  -499.15550238195902

   => Energetics <=

    Nuclear Repulsion Energy =             51.5172754731944806
    One-Electron Energy =                -790.5297850247377482
    Two-Electron Energy =                 239.8570071695842785
    Total Energy =                       -499.1555023819590247

Computation Completed


Properties will be evaluated at   0.000000,   0.000000,   0.000000 [a0]

Properties computed using the SCF density matrix

  Nuclear Dipole Moment: [e a0]
     X:     0.0000      Y:     4.9084      Z:     0.0000

  Electronic Dipole Moment: [e a0]
     X:    -0.0000      Y:    -4.0826      Z:     0.0000

  Dipole Moment: [e a0]
     X:    -0.0000      Y:     0.8258      Z:     0.0000     Total:     0.8258

  Dipole Moment: [D]
     X:    -0.0000      Y:     2.0989      Z:     0.0000     Total:     2.0989


*** tstop() called on l43 at Sat Jan 30 16:44:57 2021
Module time:
	user time   =     213.41 seconds =       3.56 minutes
	system time =      51.49 seconds =       0.86 minutes
	total time  =        266 seconds =       4.43 minutes
Total time:
	user time   =     213.41 seconds =       3.56 minutes
	system time =      51.49 seconds =       0.86 minutes
	total time  =        266 seconds =       4.43 minutes

*** tstart() called on l43
*** at Sat Jan 30 16:44:57 2021


	Wfn Parameters:
	--------------------
	Wavefunction         = CCSD_T
	Number of irreps     = 2
	Number of MOs        = 307
	Number of active MOs = 301
	AO-Basis             = NONE
	Semicanonical        = false
	Reference            = RHF
	Print Level          = 1

	IRREP	# MOs	# FZDC	# DOCC	# SOCC	# VIRT	# FZVR
	-----	-----	------	------	------	------	------
	 Ap	   182	    5	    5	    0	    172	    0
	 App	   125	    1	    2	    0	    122	    0
	Transforming integrals...
	IWL integrals will be deleted.
	(OO|OO)...
	Presorting SO-basis two-electron integrals.
	Sorting File: SO Ints (nn|nn) nbuckets = 1
	Constructing frozen core operators
	Starting first half-transformation.
	Sorting half-transformed integrals.
	First half integral transformation complete.
	Starting second half-transformation.
	Two-electron integral transformation complete.
	(OO|OV)...
	Starting second half-transformation.
	Two-electron integral transformation complete.
	(OO|VV)...
	Starting second half-transformation.
	Two-electron integral transformation complete.
	(OV|OO)...
	Starting first half-transformation.
	Sorting half-transformed integrals.
	First half integral transformation complete.
	Starting second half-transformation.
	Two-electron integral transformation complete.
	(OV|OV)...
	Starting second half-transformation.
	Two-electron integral transformation complete.
	(OV|VV)...
	Starting second half-transformation.
	Two-electron integral transformation complete.
	(VV|OO)...
	Starting first half-transformation.
	Sorting half-transformed integrals.
	First half integral transformation complete.
	Starting second half-transformation.
	Two-electron integral transformation complete.
	(VV|OV)...
	Starting second half-transformation.
	Two-electron integral transformation complete.
	(VV|VV)...
	Starting second half-transformation.
	Two-electron integral transformation complete.
	Frozen core energy     =   -508.81828412909425

	Size of irrep 0 of <ab|cd> integrals:   1977.403 (MW) /  15819.224 (MB)
	Size of irrep 1 of <ab|cd> integrals:   1761.313 (MW) /  14090.504 (MB)
	Total:                                  3738.716 (MW) /  29909.728 (MB)

	Size of irrep 0 of <ia|bc> integrals:     49.093 (MW) /    392.741 (MB)
	Size of irrep 1 of <ia|bc> integrals:     40.037 (MW) /    320.300 (MB)
	Total:                                    89.130 (MW) /    713.041 (MB)

	Size of irrep 0 of tijab amplitudes:       1.290 (MW) /     10.317 (MB)
	Size of irrep 1 of tijab amplitudes:       0.839 (MW) /      6.715 (MB)
	Total:                                     2.129 (MW) /     17.031 (MB)

	Nuclear Rep. energy          =     51.51727547319448
	SCF energy                   =   -499.15550238195902
	One-electron energy          =    -74.30957234903263
	Two-electron energy          =     32.45507862297513
	Reference energy             =   -499.15550238195726

*** tstop() called on l43 at Sat Jan 30 16:52:18 2021
Module time:
	user time   =     269.92 seconds =       4.50 minutes
	system time =     165.02 seconds =       2.75 minutes
	total time  =        441 seconds =       7.35 minutes
Total time:
	user time   =     483.33 seconds =       8.06 minutes
	system time =     216.51 seconds =       3.61 minutes
	total time  =        707 seconds =      11.78 minutes
            **************************
            *                        *
            *        CCENERGY        *
            *                        *
            **************************

    Nuclear Rep. energy (wfn)     =   51.517275473194481
    SCF energy          (wfn)     = -499.155502381959025
    Reference energy    (file100) = -499.155502381957263

    Input parameters:
    -----------------
    Wave function   =     CCSD_T
    Reference wfn   =     RHF
    Brueckner       =     No
    Memory (Mbytes) =     550000.0
    Maxiter         =     50
    R_Convergence   =     1.0e-07
    E_Convergence   =     1.0e-06
    Restart         =     Yes
    DIIS            =     Yes
    AO Basis        =     NONE
    ABCD            =     NEW
    Cache Level     =     2
    Cache Type      =     LOW
    Print Level     =     1
    Num. of threads =     1
    # Amps to Print =     10
    Print MP2 Amps? =     No
    Analyze T2 Amps =     No
    Print Pair Ener =     No
    Local CC        =     No
    SCS-MP2         =     False
    SCSN-MP2        =     False
    SCS-CCSD        =     False

MP2 correlation energy -0.4076870628746828
                Solving CC Amplitude Equations
                ------------------------------
  Iter             Energy              RMS        T1Diag      D1Diag    New D1Diag    D2Diag
  ----     ---------------------    ---------   ----------  ----------  ----------   --------
     0        -0.407687062874683    0.000e+00    0.000000    0.000000    0.000000    0.142212
     1        -0.423634610593915    4.995e-02    0.006613    0.015144    0.015144    0.146756
     2        -0.433250505275673    1.600e-02    0.006879    0.015659    0.015659    0.153070
     3        -0.434313766553634    5.125e-03    0.007686    0.018044    0.018044    0.154167
     4        -0.434254276218762    1.212e-03    0.007780    0.018373    0.018373    0.154490
     5        -0.434276375086982    3.767e-04    0.007819    0.018557    0.018557    0.154584
     6        -0.434279091793686    1.015e-04    0.007828    0.018605    0.018605    0.154590
     7        -0.434278267232392    3.622e-05    0.007829    0.018615    0.018615    0.154589
     8        -0.434278450543723    1.087e-05    0.007829    0.018620    0.018620    0.154589
     9        -0.434278702941417    3.240e-06    0.007829    0.018622    0.018622    0.154589
    10        -0.434278586919527    1.230e-06    0.007829    0.018622    0.018622    0.154589
    11        -0.434278586330529    4.141e-07    0.007829    0.018622    0.018622    0.154589
    12        -0.434278572400284    1.235e-07    0.007829    0.018622    0.018622    0.154589
    13        -0.434278572503523    3.410e-08    0.007829    0.018622    0.018622    0.154589

    Iterations converged.


    Largest TIA Amplitudes:
              3   8        -0.0073123069
              3  37         0.0069958794
              3  36        -0.0063485354
              2  18         0.0061767768
              5 181         0.0061767765
              3  49        -0.0058747326
              3  20        -0.0054233458
              3  17         0.0052624426
              3  30         0.0039866918
              3  58        -0.0037667977

    Largest TIjAb Amplitudes:
      3   3   8   8        -0.0199811433
      3   3  11  11        -0.0178488759
      3   3   8  11        -0.0153348402
      3   3  11   8        -0.0153348402
      6   6 187 187        -0.0152352435
      4   4  28  28        -0.0152352435
      3   3   9   9        -0.0151037660
      3   3   8   9        -0.0149900537
      3   3   9   8        -0.0149900537
      4   4 187 187        -0.0147388553

    SCF energy       (wfn)                    = -499.155502381959025
    Reference energy (file100)                = -499.155502381957263

    Opposite-spin MP2 correlation energy      =   -0.319366397672123
    Same-spin MP2 correlation energy          =   -0.088320665202560
    Singles MP2 correlation energy            =   -0.000000000000000
    MP2 correlation energy                    =   -0.407687062874683
      * MP2 total energy                      = -499.563189444831949

    Opposite-spin CCSD correlation energy     =   -0.350775141658818
    Same-spin CCSD correlation energy         =   -0.083503430844702
    Singles CCSD correlation energy           =    0.000000000000000
    CCSD correlation energy                   =   -0.434278572503523
      * CCSD total energy                     = -499.589780954460764

            **************************
            *                        *
            *        CCTRIPLES       *
            *                        *
            **************************


    Wave function   =    CCSD_T
    Reference wfn   =      RHF

    Nuclear Rep. energy (wfn)                =   51.517275473194481
    SCF energy          (wfn)                = -499.155502381959025
    Reference energy    (file100)            = -499.155502381957263
    CCSD energy         (file100)            =   -0.434278572503523
    Total CCSD energy   (file100)            = -499.589780954460764

    Number of ijk index combinations:               84
    Memory available in words        :     68750000000
    ~Words needed per explicit thread:        20353792
    Number of threads for explicit ijk threading:    1

    (T) energy                                =   -0.018267393100678
      * CCSD(T) total energy                  = -499.608048347561464


    Psi4 stopped on: Saturday, 30 January 2021 04:59PM
    Psi4 wall time for execution: 0:19:00.36

*** Psi4 exiting successfully. Buy a developer a beer!
