
    -----------------------------------------------------------------------
          Psi4: An Open-Source Ab Initio Electronic Structure Package
                               Psi4 1.2a1.dev939 

                         Git: Rev {HEAD} fa1ec19 dirty


    R. M. Parrish, L. A. Burns, D. G. A. Smith, A. C. Simmonett,
    A. E. DePrince III, E. G. Hohenstein, U. Bozkaya, A. Yu. Sokolov,
    R. Di Remigio, R. M. Richard, J. F. Gonthier, A. M. James,
    H. R. McAlexander, A. Kumar, M. Saitow, X. Wang, B. P. Pritchard,
    P. Verma, H. F. Schaefer III, K. Patkowski, R. A. King, E. F. Valeev,
    F. A. Evangelista, J. M. Turney, T. D. Crawford, and C. D. Sherrill,
    J. Chem. Theory Comput. 13(7) pp 3185--3197 (2017).
    (doi: 10.1021/acs.jctc.7b00174)

    -----------------------------------------------------------------------


    Psi4 started on: Thursday, 06 August 2020 09:31AM

    Process ID: 370878
    PSIDATADIR: /home/fs71337/airmler/src/psi4new/build/stage/usr/local/psi4/share/psi4
    Memory:     500.0 MiB
    Threads:    48
    
  ==> Input File <==

--------------------------------------------------------------------------
# Any line starting with the # character is a comment line

memory 150000 mb

molecule molecule {
0 1
O          0.0000000000        0.0000000000       -0.0661495700
H          0.0000000000       -0.7581329363        0.5250081505
H          0.0000000000        0.7581329363        0.5250081505
}

set {
  reference rhf

  basis aug-cc-pv(6+d)z
  scf_type OUT_OF_CORE
  freeze_core true
}

energy('ccsd')
--------------------------------------------------------------------------

  Memory set to 139.698 GiB by Python driver.

*** tstart() called on n412-049.vsc4.prov
*** at Thu Aug  6 09:31:26 2020

   => Loading Basis Set <=

    Name: AUG-CC-PV(6+D)Z
    Role: ORBITAL
    Keyword: BASIS
    atoms 1   entry O          line   459 file /home/fs71337/airmler/src/psi4new/build/stage/usr/local/psi4/share/psi4/basis/aug-cc-pv_6pd_z.gbs 
    atoms 2-3 entry H          line    51 file /home/fs71337/airmler/src/psi4new/build/stage/usr/local/psi4/share/psi4/basis/aug-cc-pv_6pd_z.gbs 


         ---------------------------------------------------------
                                   SCF
            by Justin Turney, Rob Parrish, Andy Simmonett
                             and Daniel Smith
                              RHF Reference
                       48 Threads, 143051 MiB Core
         ---------------------------------------------------------

  ==> Geometry <==

    Molecular point group: c2v
    Full point group: C2v

    Geometry (in Angstrom), charge = 0, multiplicity = 1:

       Center              X                  Y                   Z               Mass       
    ------------   -----------------  -----------------  -----------------  -----------------
           O         -0.000000000000     0.000000000000    -0.066159341374    15.994914619560
           H          0.000000000000    -0.758132936300     0.524998379126     1.007825032070
           H         -0.000000000000     0.758132936300     0.524998379126     1.007825032070

  Running in c2v symmetry.

  Rotational constants: A =     26.94760  B =     14.55093  C =      9.44883 [cm^-1]
  Rotational constants: A = 807868.60464  B = 436225.78242  C = 283268.79200 [MHz]
  Nuclear repulsion =    9.156048579410506

  Charge       = 0
  Multiplicity = 1
  Electrons    = 10
  Nalpha       = 5
  Nbeta        = 5

  ==> Algorithm <==

  SCF Algorithm Type is OUT_OF_CORE.
  DIIS enabled.
  MOM disabled.
  Fractional occupation disabled.
  Guess Type is SAD.
  Energy threshold   = 1.00e-08
  Density threshold  = 1.00e-08
  Integral threshold = 0.00e+00

  ==> Primary Basis <==

  Basis Set: AUG-CC-PV(6+D)Z
    Blend: AUG-CC-PV(6+D)Z
    Number of shells: 89
    Number of basis function: 443
    Number of Cartesian functions: 658
    Spherical Harmonics?: true
    Max angular momentum: 6

  ==> Pre-Iterations <==

   -------------------------------------------------------
    Irrep   Nso     Nmo     Nalpha   Nbeta   Ndocc  Nsocc
   -------------------------------------------------------
     A1       143     143       0       0       0       0
     A2        81      81       0       0       0       0
     B1        96      96       0       0       0       0
     B2       123     123       0       0       0       0
   -------------------------------------------------------
    Total     443     443       5       5       5       0
   -------------------------------------------------------

  ==> Integral Setup <==

  ==> DiskJK: Disk-Based J/K Matrices <==

    J tasked:                  Yes
    K tasked:                  Yes
    wK tasked:                  No
    Memory (MB):            107288
    Schwarz Cutoff:          1E-12

  Minimum eigenvalue in the overlap matrix is 2.1708331528E-06.
  Using Symmetric Orthogonalization.

  SCF Guess: Superposition of Atomic Densities via on-the-fly atomic UHF.

  ==> Iterations <==

                        Total Energy        Delta E     RMS |[F,P]|

   @RHF iter   0:   -76.02697474962632   -7.60270e+01   2.85083e-02 
   @RHF iter   1:   -76.03012930626176   -3.15456e-03   5.90385e-03 
   @RHF iter   2:   -76.05706349752630   -2.69342e-02   2.80439e-03 DIIS
   @RHF iter   3:   -76.06652358745163   -9.46009e-03   4.47547e-04 DIIS
   @RHF iter   4:   -76.06702385360605   -5.00266e-04   1.54775e-04 DIIS
   @RHF iter   5:   -76.06710043704520   -7.65834e-05   3.48332e-05 DIIS
   @RHF iter   6:   -76.06710664799513   -6.21095e-06   5.41837e-06 DIIS
   @RHF iter   7:   -76.06710682241874   -1.74424e-07   6.94214e-07 DIIS
   @RHF iter   8:   -76.06710682463057   -2.21183e-09   9.10800e-08 DIIS
   @RHF iter   9:   -76.06710682465015   -1.95826e-11   9.43284e-09 DIIS

  ==> Post-Iterations <==

    Orbital Energies (a.u.)
    -----------------------

    Doubly Occupied:                                                      

       1A1   -20.564873     2A1    -1.350789     1B2    -0.714738  
       3A1    -0.584982     1B1    -0.510305  

    Virtual:                                                              

       4A1     0.020765     2B2     0.032315     5A1     0.067325  
       2B1     0.077915     3B2     0.105574     6A1     0.111550  
       4B2     0.140450     7A1     0.147755     1A2     0.157241  
       3B1     0.172899     8A1     0.177970     5B2     0.217349  
       9A1     0.237728     6B2     0.262416    10A1     0.328890  
       7B2     0.336754     4B1     0.370874    11A1     0.373378  
      12A1     0.385817     5B1     0.396438     8B2     0.408560  
       2A2     0.412663     3A2     0.419687     6B1     0.429758  
      13A1     0.430790    14A1     0.446999     7B1     0.454885  
       9B2     0.485083    10B2     0.518182    15A1     0.527553  
       4A2     0.530120    11B2     0.561294    16A1     0.571426  
      12B2     0.607010    17A1     0.713592    13B2     0.747126  
      18A1     0.790512     5A2     0.833038     8B1     0.858187  
      19A1     0.878255     9B1     0.904382    20A1     0.906994  
       6A2     0.928433    21A1     0.947367    10B1     0.948513  
      14B2     0.966968    15B2     0.998568    22A1     1.014448  
      11B1     1.023044     7A2     1.045932    16B2     1.046436  
      23A1     1.067436    12B1     1.075939    17B2     1.108518  
      24A1     1.130257    13B1     1.145798     8A2     1.157836  
      18B2     1.163760    19B2     1.171381    25A1     1.180837  
       9A2     1.201618    26A1     1.218936    14B1     1.249549  
      20B2     1.249566    21B2     1.288007    27A1     1.361787  
      28A1     1.437556    10A2     1.473771    15B1     1.480084  
      22B2     1.559786    29A1     1.589040    30A1     1.753784  
      23B2     1.784573    11A2     1.841294    16B1     1.845302  
      24B2     1.883128    31A1     1.937086    25B2     1.950798  
      17B1     1.990564    32A1     1.993142    26B2     2.026892  
      33A1     2.123145    12A2     2.135271    18B1     2.152872  
      27B2     2.191164    19B1     2.191650    34A1     2.202558  
      13A2     2.226423    35A1     2.269952    14A2     2.277473  
      28B2     2.335656    20B1     2.338610    36A1     2.348716  
      37A1     2.359224    21B1     2.360174    22B1     2.381265  
      29B2     2.389885    15A2     2.419096    30B2     2.450563  
      38A1     2.456239    39A1     2.469157    16A2     2.483231  
      17A2     2.497168    40A1     2.517416    31B2     2.535949  
      23B1     2.584473    18A2     2.611056    32B2     2.615242  
      41A1     2.629277    24B1     2.670942    33B2     2.691382  
      42A1     2.703393    34B2     2.768652    25B1     2.769832  
      43A1     2.776370    44A1     2.822949    35B2     2.858459  
      26B1     2.869579    19A2     2.878294    20A2     2.940276  
      36B2     2.970496    45A1     2.995447    37B2     3.119841  
      27B1     3.130636    46A1     3.158004    47A1     3.466811  
      38B2     3.515539    21A2     3.628565    48A1     3.699558  
      39B2     3.701634    28B1     3.816995    29B1     3.853036  
      49A1     4.019750    40B2     4.072479    22A2     4.112566  
      50A1     4.131461    30B1     4.213158    41B2     4.234471  
      42B2     4.352329    51A1     4.353000    31B1     4.391374  
      52A1     4.406981    43B2     4.441453    23A2     4.513425  
      53A1     4.553053    24A2     4.566648    32B1     4.639336  
      44B2     4.662526    54A1     4.666828    25A2     4.719935  
      45B2     4.722366    33B1     4.757235    46B2     4.782778  
      26A2     4.801586    55A1     4.808043    34B1     4.825625  
      56A1     4.883104    35B1     4.910913    57A1     4.930666  
      27A2     4.943612    47B2     4.977201    58A1     4.989129  
      48B2     5.040440    36B1     5.081194    59A1     5.090610  
      28A2     5.100345    29A2     5.137223    37B1     5.148384  
      49B2     5.162971    60A1     5.174648    30A2     5.175597  
      61A1     5.225996    38B1     5.230865    50B2     5.274540  
      62A1     5.300203    39B1     5.344606    31A2     5.353762  
      51B2     5.361742    52B2     5.427547    53B2     5.442361  
      32A2     5.473586    40B1     5.488015    63A1     5.537178  
      54B2     5.562273    41B1     5.619636    64A1     5.642005  
      33A2     5.666917    55B2     5.757787    34A2     5.772529  
      65A1     5.826793    42B1     5.862695    66A1     5.901228  
      56B2     6.081593    43B1     6.134666    57B2     6.148667  
      67A1     6.155896    68A1     6.222163    69A1     6.353924  
      44B1     6.427822    58B2     6.470608    59B2     6.540863  
      35A2     6.639138    70A1     6.661909    71A1     7.010341  
      72A1     7.150355    45B1     7.222750    36A2     7.320947  
      46B1     7.387596    60B2     7.497413    61B2     7.625598  
      73A1     7.681810    37A2     7.715990    74A1     7.859796  
      47B1     7.886447    62B2     7.999552    48B1     8.081761  
      75A1     8.119257    38A2     8.126774    63B2     8.210685  
      39A2     8.445869    49B1     8.475813    76A1     8.512156  
      64B2     8.605000    40A2     9.002992    77A1     9.205851  
      65B2     9.238784    66B2     9.251523    78A1     9.325310  
      50B1     9.365337    41A2     9.437421    67B2     9.522557  
      68B2     9.553815    51B1     9.564455    79A1     9.565074  
      80A1     9.638977    52B1     9.674427    42A2     9.677354  
      81A1     9.697210    53B1     9.799070    69B2     9.857727  
      82A1     9.955182    70B2    10.033495    83A1    10.071360  
      54B1    10.077285    43A2    10.085053    71B2    10.146645  
      84A1    10.234989    44A2    10.423987    72B2    10.428147  
      55B1    10.565646    73B2    10.727522    85A1    10.755118  
      56B1    10.791475    45A2    10.837728    86A1    10.870649  
      46A2    10.958391    57B1    11.083297    87A1    11.086460  
      74B2    11.106270    88A1    11.118463    58B1    11.138626  
      47A2    11.171070    75B2    11.198358    89A1    11.208310  
      48A2    11.241616    76B2    11.261433    59B1    11.265216  
      49A2    11.358101    77B2    11.446545    90A1    11.468165  
      91A1    11.669599    78B2    11.870930    60B1    11.873691  
      92A1    11.896550    61B1    12.032872    79B2    12.217742  
      93A1    12.316085    50A2    12.364678    80B2    12.490509  
      94A1    12.649324    62B1    12.688008    63B1    13.040074  
      51A2    13.192052    81B2    13.261502    95A1    13.411708  
      96A1    13.637868    64B1    13.707143    52A2    13.801461  
      97A1    13.991635    82B2    14.093121    98A1    14.180796  
      65B1    14.377191    83B2    14.386898    53A2    14.404555  
      54A2    14.665298    84B2    14.702100    66B1    14.735239  
      99A1    14.905291    85B2    14.923191   100A1    15.259828  
      55A2    15.337205    67B1    15.660108   101A1    15.716224  
      86B2    15.773758    87B2    15.981320    68B1    16.002732  
     102A1    16.144313    56A2    16.180387   103A1    16.277112  
      88B2    17.066941    69B1    17.513536   104A1    17.652910  
      89B2    17.653476    70B1    17.698364    57A2    17.707189  
     105A1    18.034661    58A2    18.139192    90B2    18.203443  
      91B2    18.358724    59A2    18.541872    71B1    18.611513  
     106A1    18.944415   107A1    19.401556    92B2    19.680667  
      60A2    19.919245    93B2    19.927182   108A1    20.099715  
     109A1    20.159848    72B1    20.399051    73B1    20.464868  
     110A1    20.514798    61A2    20.526938    94B2    20.544949  
      74B1    20.702785    95B2    20.755385   111A1    20.923752  
      96B2    20.933544    62A2    20.990763   112A1    21.210489  
      63A2    21.244084    75B1    21.258324    97B2    21.359631  
     113A1    21.430675    76B1    21.484768    64A2    21.570001  
      98B2    21.602191   114A1    21.694510    77B1    21.705213  
      65A2    21.748313    78B1    21.785672    99B2    21.825754  
      66A2    21.895774   115A1    21.958405   100B2    22.226459  
     116A1    22.423139   117A1    22.851521   101B2    22.949952  
      79B1    23.297100    67A2    23.313143   118A1    23.360268  
      80B1    23.562963   119A1    23.642374    81B1    23.657337  
     102B2    23.723922   120A1    23.933749    68A2    24.126463  
     103B2    24.291894    82B1    24.360503   121A1    24.387959  
     104B2    24.413370    69A2    24.504480   122A1    24.570216  
      83B1    24.607920   105B2    24.684938    70A2    24.696310  
     106B2    24.860425   123A1    25.185946    71A2    25.370313  
     124A1    25.390354   107B2    25.776099    84B1    25.860212  
      72A2    26.354430    85B1    26.415894   125A1    26.475181  
     108B2    26.732627   126A1    26.937503    73A2    26.964341  
      86B1    26.985837   109B2    27.121620    87B1    27.209347  
     127A1    27.301636   110B2    27.373889   128A1    27.383357  
      88B1    27.550424    74A2    27.563799   111B2    27.846045  
      89B1    28.071286   129A1    28.107721   112B2    28.114366  
      75A2    28.230032   113B2    28.441642   130A1    28.550310  
      90B1    28.640827   114B2    28.773624   131A1    28.855931  
      76A2    28.861836   132A1    29.370023   133A1    29.791964  
     115B2    30.031186    91B1    30.404173   116B2    30.518803  
     134A1    32.510522    92B1    32.588539   135A1    33.155251  
      77A2    33.222965    93B1    33.233642   136A1    33.367705  
     117B2    33.661251    78A2    33.783808   118B2    33.915227  
     137A1    34.482695    79A2    34.495979    94B1    34.520283  
     138A1    35.252697   119B2    35.596571   120B2    35.884172  
      80A2    36.115719    95B1    36.155828   139A1    36.808685  
     140A1    38.488959    96B1    39.017739   121B2    39.056647  
      81A2    39.693656   141A1    40.269640   122B2    40.570862  
     142A1    41.336504   123B2    42.445727   143A1   108.816858  

    Final Occupation by Irrep:
             A1    A2    B1    B2 
    DOCC [     3,    0,    1,    1 ]

  Energy converged.

  @RHF Final Energy:   -76.06710682465015

   => Energetics <=

    Nuclear Repulsion Energy =              9.1560485794105055
    One-Electron Energy =                -122.9949340065307410
    Two-Electron Energy =                  37.7717786024700715
    PCM Polarization Energy =               0.0000000000000000
    Total Energy =                        -76.0671068246501534

    Alert: EFP and PCM quantities not currently incorporated into SCF psivars.

Properties will be evaluated at   0.000000,   0.000000,   0.000000 Bohr

Properties computed using the SCF density matrix

  Nuclear Dipole Moment: (a.u.)
     X:     0.0000      Y:     0.0000      Z:     0.9840

  Electronic Dipole Moment: (a.u.)
     X:     0.0000      Y:     0.0000      Z:    -0.2009

  Dipole Moment: (a.u.)
     X:     0.0000      Y:     0.0000      Z:     0.7831     Total:     0.7831

  Dipole Moment: (Debye)
     X:     0.0000      Y:     0.0000      Z:     1.9905     Total:     1.9905


*** tstop() called on n412-049.vsc4.prov at Thu Aug  6 09:46:29 2020
Module time:
	user time   =    1059.00 seconds =      17.65 minutes
	system time =      82.09 seconds =       1.37 minutes
	total time  =        903 seconds =      15.05 minutes
Total time:
	user time   =    1059.00 seconds =      17.65 minutes
	system time =      82.09 seconds =       1.37 minutes
	total time  =        903 seconds =      15.05 minutes

*** tstart() called on n412-049.vsc4.prov
*** at Thu Aug  6 09:46:29 2020


	Wfn Parameters:
	--------------------
	Wavefunction         = CCSD
	Number of irreps     = 4
	Number of MOs        = 443
	Number of active MOs = 442
	AO-Basis             = NONE
	Semicanonical        = false
	Reference            = RHF
	Print Level          = 1

	IRREP	# MOs	# FZDC	# DOCC	# SOCC	# VIRT	# FZVR
	-----	-----	------	------	------	------	------
	 A1	   143	    1	    2	    0	    140	    0
	 A2	   81	    0	    0	    0	    81	    0
	 B1	   96	    0	    1	    0	    95	    0
	 B2	   123	    0	    1	    0	    122	    0
	Transforming integrals...
	IWL integrals will be deleted.
	(OO|OO)...
	Presorting SO-basis two-electron integrals.
	Sorting File: SO Ints (nn|nn) nbuckets = 1
	Transforming the one-electron integrals and constructing Fock matrices
	Starting first half-transformation.
	Sorting half-transformed integrals.
	First half integral transformation complete.
	Starting second half-transformation.
	Two-electron integral transformation complete.
	(OO|OV)...
	Starting second half-transformation.
	Two-electron integral transformation complete.
	(OO|VV)...
	Starting second half-transformation.
	Two-electron integral transformation complete.
	(OV|OO)...
	Starting first half-transformation.
	Sorting half-transformed integrals.
	First half integral transformation complete.
	Starting second half-transformation.
	Two-electron integral transformation complete.
	(OV|OV)...
	Starting second half-transformation.
	Two-electron integral transformation complete.
	(OV|VV)...
	Starting second half-transformation.
	Two-electron integral transformation complete.
	(VV|OO)...
	Starting first half-transformation.
	Sorting half-transformed integrals.
	First half integral transformation complete.
	Starting second half-transformation.
	Two-electron integral transformation complete.
	(VV|OV)...
	Starting second half-transformation.
	Two-electron integral transformation complete.
	(VV|VV)...
	Starting second half-transformation.
	Two-electron integral transformation complete.
	Frozen core energy     =    -61.30861364671744

	Size of irrep 0 of <ab|cd> integrals:   2507.005 (MW) /  20056.039 (MB)
	Size of irrep 1 of <ab|cd> integrals:   2103.140 (MW) /  16825.117 (MB)
	Size of irrep 2 of <ab|cd> integrals:   2149.620 (MW) /  17196.964 (MB)
	Size of irrep 3 of <ab|cd> integrals:   2455.202 (MW) /  19641.620 (MB)
	Total:                                  9214.967 (MW) /  73719.740 (MB)

	Size of irrep 0 of <ia|bc> integrals:     24.885 (MW) /    199.078 (MB)
	Size of irrep 1 of <ia|bc> integrals:     17.381 (MW) /    139.048 (MB)
	Size of irrep 2 of <ia|bc> integrals:     19.056 (MW) /    152.445 (MB)
	Size of irrep 3 of <ia|bc> integrals:     23.041 (MW) /    184.326 (MB)
	Total:                                    84.362 (MW) /    674.897 (MB)

	Size of irrep 0 of tijab amplitudes:       0.300 (MW) /      2.403 (MB)
	Size of irrep 1 of tijab amplitudes:       0.092 (MW) /      0.734 (MB)
	Size of irrep 2 of tijab amplitudes:       0.185 (MW) /      1.484 (MB)
	Size of irrep 3 of tijab amplitudes:       0.198 (MW) /      1.586 (MB)
	Total:                                     0.776 (MW) /      6.206 (MB)

	Nuclear Rep. energy          =      9.15604857941051
	SCF energy                   =    -76.06710682465015
	One-electron energy          =    -41.50745375537304
	Two-electron energy          =     17.59291199802830
	Reference energy             =    -76.06710682465167

*** tstop() called on n412-049.vsc4.prov at Thu Aug  6 09:58:41 2020
Module time:
	user time   =    5039.80 seconds =      84.00 minutes
	system time =     297.51 seconds =       4.96 minutes
	total time  =        732 seconds =      12.20 minutes
Total time:
	user time   =    6098.82 seconds =     101.65 minutes
	system time =     379.60 seconds =       6.33 minutes
	total time  =       1635 seconds =      27.25 minutes

*** tstart() called on n412-049.vsc4.prov
*** at Thu Aug  6 09:58:41 2020

            **************************
            *                        *
            *        CCENERGY        *
            *                        *
            **************************

    Nuclear Rep. energy (wfn)     =    9.156048579410506
    SCF energy          (wfn)     =  -76.067106824650153
    Reference energy    (file100) =  -76.067106824651674

    Input parameters:
    -----------------
    Wave function   =     CCSD
    Reference wfn   =     RHF
    Brueckner       =     No
    Memory (Mbytes) =     150000.0
    Maxiter         =     50
    R_Convergence   =     1.0e-07
    E_Convergence   =     1.0e-06
    Restart         =     Yes
    DIIS            =     Yes
    AO Basis        =     NONE
    ABCD            =     NEW
    Cache Level     =     2
    Cache Type      =     LOW
    Print Level     =     1
    Num. of threads =     48
    # Amps to Print =     10
    Print MP2 Amps? =     No
    Analyze T2 Amps =     No
    Print Pair Ener =     No
    Local CC        =     No
    SCS-MP2         =     False
    SCSN-MP2        =     False
    SCS-CCSD        =     False

MP2 correlation energy -0.2962960597127735
                Solving CC Amplitude Equations
                ------------------------------
  Iter             Energy              RMS        T1Diag      D1Diag    New D1Diag    D2Diag
  ----     ---------------------    ---------   ----------  ----------  ----------   --------
     0        -0.296296059712741    0.000e+00    0.000000    0.000000    0.000000    0.119157
     1        -0.299126560012868    2.137e-01    0.015598    0.030260    0.030260    0.132519
     2        -0.299818593676189    2.898e-02    0.009440    0.019274    0.019274    0.130433
     3        -0.296148963124284    8.150e-03    0.009628    0.019878    0.019878    0.127813
     4        -0.295639360323882    2.175e-03    0.009211    0.018914    0.018914    0.127189
     5        -0.295662817571095    5.411e-04    0.009094    0.018689    0.018689    0.127037
     6        -0.295646088220366    1.691e-04    0.009060    0.018605    0.018605    0.126994
     7        -0.295641225612614    5.568e-05    0.009046    0.018568    0.018568    0.126985
     8        -0.295643116843325    1.658e-05    0.009043    0.018560    0.018560    0.126987
     9        -0.295643071494971    5.331e-06    0.009042    0.018557    0.018557    0.126988
    10        -0.295642894667066    1.794e-06    0.009042    0.018555    0.018555    0.126988
    11        -0.295642939102791    5.595e-07    0.009042    0.018555    0.018555    0.126988
    12        -0.295642960265754    1.870e-07    0.009042    0.018555    0.018555    0.126988
    13        -0.295642961196777    7.240e-08    0.009042    0.018555    0.018555    0.126988
    13        -0.295642961196777    7.240e-08    0.009042    0.018555    0.018555    0.126988

    Iterations converged.


    CCSD corr. energy   =   -0.295642961196777
    PPL corr. energy    =    0.066836638456104
    OS PPL corr. energy =    0.056467324758048
    SS PPL corr. energy =    0.010369313698057
    Largest TIA Amplitudes:
              2 222        -0.0097675157
              2 221        -0.0088060826
              2 225        -0.0078472657
              2 224        -0.0059052899
              1   5         0.0046557647
              1   1        -0.0045211167
              2 226        -0.0041086485
              2 227        -0.0040693415
              1   4        -0.0039674573
              1   8         0.0039020590

    Largest TIjAb Amplitudes:
      3   3 326 326        -0.0243788705
      3   3 321 326        -0.0222938225
      3   3 326 321        -0.0222938225
      3   3 321 321        -0.0218135494
      2   2 232 232        -0.0177767942
      1   1  12  12        -0.0155561134
      3   3  13  13        -0.0142765876
      1   1 321 321        -0.0140453675
      3   3   6   6        -0.0139676802
      3   3 326 331        -0.0133173143

    SCF energy       (wfn)                    =  -76.067106824650153
    Reference energy (file100)                =  -76.067106824651674

    Opposite-spin MP2 correlation energy      =   -0.228201809839249
    Same-spin MP2 correlation energy          =   -0.068094249873492
    MP2 correlation energy                    =   -0.296296059712774
      * MP2 total energy                      =  -76.363402884364447

    Opposite-spin CCSD correlation energy     =   -0.235276242797260
    Same-spin CCSD correlation energy         =   -0.060366715468139
    CCSD correlation energy                   =   -0.295642961196777
      * CCSD total energy                     =  -76.362749785848450


*** tstop() called on n412-049.vsc4.prov at Thu Aug  6 10:03:52 2020
Module time:
	user time   =    2591.48 seconds =      43.19 minutes
	system time =     281.43 seconds =       4.69 minutes
	total time  =        311 seconds =       5.18 minutes
Total time:
	user time   =    8690.32 seconds =     144.84 minutes
	system time =     661.03 seconds =      11.02 minutes
	total time  =       1946 seconds =      32.43 minutes

*** Psi4 exiting successfully. Buy a developer a beer!
