
    -----------------------------------------------------------------------
          Psi4: An Open-Source Ab Initio Electronic Structure Package
                               Psi4 1.2a1.dev939 

                         Git: Rev {HEAD} fa1ec19 


    R. M. Parrish, L. A. Burns, D. G. A. Smith, A. C. Simmonett,
    A. E. DePrince III, E. G. Hohenstein, U. Bozkaya, A. Yu. Sokolov,
    R. Di Remigio, R. M. Richard, J. F. Gonthier, A. M. James,
    H. R. McAlexander, A. Kumar, M. Saitow, X. Wang, B. P. Pritchard,
    P. Verma, H. F. Schaefer III, K. Patkowski, R. A. King, E. F. Valeev,
    F. A. Evangelista, J. M. Turney, T. D. Crawford, and C. D. Sherrill,
    J. Chem. Theory Comput. 13(7) pp 3185--3197 (2017).
    (doi: 10.1021/acs.jctc.7b00174)

    -----------------------------------------------------------------------


    Psi4 started on: Sunday, 28 April 2019 07:38AM

    Process ID:  26436
    PSIDATADIR: /home/grueneis/src/psi4/objdir/stage/usr/local/psi4/share/psi4
    Memory:     500.0 MiB
    Threads:    1
    
  ==> Input File <==

--------------------------------------------------------------------------
# Any line starting with the # character is a comment line

memory 32000 mb

molecule molecule {
0 1
O          0.0000000000        0.0000000000       -0.0661495700
H          0.0000000000       -0.7581329363        0.5250081505
H          0.0000000000        0.7581329363        0.5250081505
}

set {
  reference rhf
  basis aug-cc-pv(Q+d)z
  scf_type OUT_OF_CORE
  freeze_core true
}

energy('ccsd')
--------------------------------------------------------------------------

  Memory set to  29.802 GiB by Python driver.

*** tstart() called on cqc01
*** at Sun Apr 28 07:38:50 2019

   => Loading Basis Set <=

    Name: AUG-CC-PV(Q+D)Z
    Role: ORBITAL
    Keyword: BASIS
    atoms 1   entry O          line   439 file /home/grueneis/src/psi4/objdir/stage/usr/local/psi4/share/psi4/basis/aug-cc-pv_qpd_z.gbs 
    atoms 2-3 entry H          line    56 file /home/grueneis/src/psi4/objdir/stage/usr/local/psi4/share/psi4/basis/aug-cc-pv_qpd_z.gbs 


         ---------------------------------------------------------
                                   SCF
            by Justin Turney, Rob Parrish, Andy Simmonett
                             and Daniel Smith
                              RHF Reference
                        1 Threads,  30517 MiB Core
         ---------------------------------------------------------

  ==> Geometry <==

    Molecular point group: c2v
    Full point group: C2v

    Geometry (in Angstrom), charge = 0, multiplicity = 1:

       Center              X                  Y                   Z               Mass       
    ------------   -----------------  -----------------  -----------------  -----------------
           O         -0.000000000000     0.000000000000    -0.066159341374    15.994914619560
           H          0.000000000000    -0.758132936300     0.524998379126     1.007825032070
           H         -0.000000000000     0.758132936300     0.524998379126     1.007825032070

  Running in c2v symmetry.

  Rotational constants: A =     26.94760  B =     14.55093  C =      9.44883 [cm^-1]
  Rotational constants: A = 807868.60464  B = 436225.78242  C = 283268.79200 [MHz]
  Nuclear repulsion =    9.156048579410506

  Charge       = 0
  Multiplicity = 1
  Electrons    = 10
  Nalpha       = 5
  Nbeta        = 5

  ==> Algorithm <==

  SCF Algorithm Type is OUT_OF_CORE.
  DIIS enabled.
  MOM disabled.
  Fractional occupation disabled.
  Guess Type is SAD.
  Energy threshold   = 1.00e-08
  Density threshold  = 1.00e-08
  Integral threshold = 0.00e+00

  ==> Primary Basis <==

  Basis Set: AUG-CC-PV(Q+D)Z
    Blend: AUG-CC-PV(Q+D)Z
    Number of shells: 48
    Number of basis function: 172
    Number of Cartesian functions: 215
    Spherical Harmonics?: true
    Max angular momentum: 4

  ==> Pre-Iterations <==

   -------------------------------------------------------
    Irrep   Nso     Nmo     Nalpha   Nbeta   Ndocc  Nsocc
   -------------------------------------------------------
     A1        61      61       0       0       0       0
     A2        27      27       0       0       0       0
     B1        35      35       0       0       0       0
     B2        49      49       0       0       0       0
   -------------------------------------------------------
    Total     172     172       5       5       5       0
   -------------------------------------------------------

  ==> Integral Setup <==

  ==> DiskJK: Disk-Based J/K Matrices <==

    J tasked:                  Yes
    K tasked:                  Yes
    wK tasked:                  No
    Memory (MB):             22888
    Schwarz Cutoff:          1E-12

  Minimum eigenvalue in the overlap matrix is 8.7647076698E-05.
  Using Symmetric Orthogonalization.

  SCF Guess: Superposition of Atomic Densities via on-the-fly atomic UHF.

  ==> Iterations <==

                        Total Energy        Delta E     RMS |[F,P]|

   @RHF iter   0:   -76.10763049272452   -7.61076e+01   1.94660e-02 
   @RHF iter   1:   -76.01558346670681    9.20470e-02   3.75688e-03 
   @RHF iter   2:   -76.05253430787832   -3.69508e-02   2.15871e-03 DIIS
   @RHF iter   3:   -76.06464445113912   -1.21101e-02   3.95862e-04 DIIS
   @RHF iter   4:   -76.06552676242626   -8.82311e-04   1.10290e-04 DIIS
   @RHF iter   5:   -76.06564256379424   -1.15801e-04   2.34983e-05 DIIS
   @RHF iter   6:   -76.06564868441980   -6.12063e-06   3.38266e-06 DIIS
   @RHF iter   7:   -76.06564879533214   -1.10912e-07   4.86744e-07 DIIS
   @RHF iter   8:   -76.06564879741457   -2.08243e-09   8.08644e-08 DIIS
   @RHF iter   9:   -76.06564879750145   -8.68852e-11   1.92261e-08 DIIS
   @RHF iter  10:   -76.06564879750636   -4.90274e-12   2.37952e-09 DIIS

  ==> Post-Iterations <==

    Orbital Energies (a.u.)
    -----------------------

    Doubly Occupied:                                                      

       1A1   -20.565649     2A1    -1.351038     1B2    -0.714766  
       3A1    -0.584995     1B1    -0.510271  

    Virtual:                                                              

       4A1     0.026881     2B2     0.043091     5A1     0.114121  
       2B1     0.133506     6A1     0.151075     3B2     0.158656  
       4B2     0.184943     7A1     0.197051     1A2     0.209293  
       3B1     0.237476     8A1     0.257105     5B2     0.291534  
       9A1     0.357453     6B2     0.389795     7B2     0.469791  
      10A1     0.508654    11A1     0.542092     2A2     0.547488  
       4B1     0.556220    12A1     0.614234     5B1     0.632582  
       6B1     0.647306     8B2     0.663405     3A2     0.665902  
      13A1     0.684965    14A1     0.706445     9B2     0.718714  
      10B2     0.769586    15A1     0.788611    11B2     0.802467  
       7B1     0.802568    16A1     0.843357     4A2     0.854272  
      12B2     0.968222    17A1     1.124375     5A2     1.136239  
       8B1     1.208854    18A1     1.331844    13B2     1.438366  
      19A1     1.481721     9B1     1.509128    14B2     1.513095  
      20A1     1.526525     6A2     1.554038    10B1     1.590766  
      15B2     1.620580    21A1     1.637116    22A1     1.662876  
      11B1     1.664082     7A2     1.688733    16B2     1.702700  
      23A1     1.735259    12B1     1.752798    24A1     1.767391  
      17B2     1.776627    18B2     1.841827    25A1     1.864756  
       8A2     1.893245    19B2     1.914522    13B1     1.980177  
       9A2     2.009041    20B2     2.033728    26A1     2.038311  
      14B1     2.100373    10A2     2.206698    27A1     2.217546  
      21B2     2.312631    28A1     2.439679    22B2     2.626156  
      15B1     2.631050    11A2     2.885526    29A1     2.957178  
      16B1     2.995060    23B2     3.039176    30A1     3.055314  
      24B2     3.084713    17B1     3.269733    12A2     3.297446  
      31A1     3.306628    25B2     3.491799    32A1     3.588491  
      13A2     3.643132    26B2     3.687915    33A1     3.720138  
      27B2     3.772481    18B1     3.923228    34A1     4.077518  
      19B1     4.166450    14A2     4.167275    28B2     4.177750  
      35A1     4.178564    20B1     4.234509    36A1     4.329409  
      37A1     4.432052    29B2     4.577280    21B1     4.721043  
      38A1     4.745623    30B2     4.781027    15A2     4.782835  
      22B1     4.806840    16A2     4.876237    39A1     4.995155  
      40A1     5.238278    31B2     5.313427    23B1     5.519779  
      41A1     5.528083    32B2     5.856319    17A2     5.884006  
      33B2     6.071086    42A1     6.229596    24B1     6.825679  
      18A2     6.880614    34B2     6.881510    43A1     6.910262  
      35B2     7.723419    19A2     7.776706    25B1     7.784491  
      20A2     7.823675    36B2     7.832935    44A1     7.897313  
      37B2     7.924434    45A1     8.019949    46A1     8.181359  
      26B1     8.199012    38B2     8.528867    47A1     8.628998  
      21A2     8.645634    27B1     8.699599    48A1     8.781660  
      28B1     8.844843    22A2     8.986335    39B2     9.039930  
      49A1     9.210467    40B2     9.659231    41B2     9.895163  
      50A1     9.902883    29B1     9.936391    23A2     9.984594  
      42B2    10.327746    51A1    10.448257    52A1    10.683954  
      30B1    11.011545    53A1    11.080281    43B2    11.081485  
      31B1    11.267726    24A2    11.308975    54A1    11.410607  
      25A2    11.707951    44B2    11.790636    32B1    11.828449  
      55A1    11.984304    33B1    12.195542    45B2    12.196100  
      56A1    12.607907    57A1    12.726286    34B1    12.821193  
      26A2    12.893547    46B2    13.175763    47B2    13.981165  
      58A1    14.005367    35B1    14.487569    27A2    14.789926  
      59A1    14.881142    48B2    15.237633    60A1    16.829450  
      49B2    17.271940    61A1    45.482174  

    Final Occupation by Irrep:
             A1    A2    B1    B2 
    DOCC [     3,    0,    1,    1 ]

  Energy converged.

  @RHF Final Energy:   -76.06564879750636

   => Energetics <=

    Nuclear Repulsion Energy =              9.1560485794105055
    One-Electron Energy =                -122.9899587556139267
    Two-Electron Energy =                  37.7682613786970620
    Total Energy =                        -76.0656487975063555



Properties will be evaluated at   0.000000,   0.000000,   0.000000 Bohr

Properties computed using the SCF density matrix

  Nuclear Dipole Moment: (a.u.)
     X:     0.0000      Y:     0.0000      Z:     0.9840

  Electronic Dipole Moment: (a.u.)
     X:     0.0000      Y:     0.0000      Z:    -0.2009

  Dipole Moment: (a.u.)
     X:     0.0000      Y:     0.0000      Z:     0.7831     Total:     0.7831

  Dipole Moment: (Debye)
     X:     0.0000      Y:     0.0000      Z:     1.9905     Total:     1.9905


*** tstop() called on cqc01 at Sun Apr 28 07:39:09 2019
Module time:
	user time   =       9.68 seconds =       0.16 minutes
	system time =       2.55 seconds =       0.04 minutes
	total time  =         19 seconds =       0.32 minutes
Total time:
	user time   =       9.68 seconds =       0.16 minutes
	system time =       2.55 seconds =       0.04 minutes
	total time  =         19 seconds =       0.32 minutes

*** tstart() called on cqc01
*** at Sun Apr 28 07:39:09 2019


	Wfn Parameters:
	--------------------
	Wavefunction         = CCSD
	Number of irreps     = 4
	Number of MOs        = 172
	Number of active MOs = 171
	AO-Basis             = NONE
	Semicanonical        = false
	Reference            = RHF
	Print Level          = 1

	IRREP	# MOs	# FZDC	# DOCC	# SOCC	# VIRT	# FZVR
	-----	-----	------	------	------	------	------
	 A1	   61	    1	    2	    0	    58	    0
	 A2	   27	    0	    0	    0	    27	    0
	 B1	   35	    0	    1	    0	    34	    0
	 B2	   49	    0	    1	    0	    48	    0
	Transforming integrals...
	IWL integrals will be deleted.
	(OO|OO)...
	Presorting SO-basis two-electron integrals.
	Sorting File: SO Ints (nn|nn) nbuckets = 1
	Transforming the one-electron integrals and constructing Fock matrices
	Starting first half-transformation.
	Sorting half-transformed integrals.
	First half integral transformation complete.
	Starting second half-transformation.
	Two-electron integral transformation complete.
	(OO|OV)...
	Starting second half-transformation.
	Two-electron integral transformation complete.
	(OO|VV)...
	Starting second half-transformation.
	Two-electron integral transformation complete.
	(OV|OO)...
	Starting first half-transformation.
	Sorting half-transformed integrals.
	First half integral transformation complete.
	Starting second half-transformation.
	Two-electron integral transformation complete.
	(OV|OV)...
	Starting second half-transformation.
	Two-electron integral transformation complete.
	(OV|VV)...
	Starting second half-transformation.
	Two-electron integral transformation complete.
	(VV|OO)...
	Starting first half-transformation.
	Sorting half-transformed integrals.
	First half integral transformation complete.
	Starting second half-transformation.
	Two-electron integral transformation complete.
	(VV|OV)...
	Starting second half-transformation.
	Two-electron integral transformation complete.
	(VV|VV)...
	Starting second half-transformation.
	Two-electron integral transformation complete.
	Frozen core energy     =    -61.30844601281620

	Size of irrep 0 of <ab|cd> integrals:     57.048 (MW) /    456.382 (MB)
	Size of irrep 1 of <ab|cd> integrals:     40.909 (MW) /    327.271 (MB)
	Size of irrep 2 of <ab|cd> integrals:     42.719 (MW) /    341.754 (MB)
	Size of irrep 3 of <ab|cd> integrals:     54.819 (MW) /    438.554 (MB)
	Total:                                   195.495 (MW) /   1563.961 (MB)

	Size of irrep 0 of <ia|bc> integrals:      1.495 (MW) /     11.964 (MB)
	Size of irrep 1 of <ia|bc> integrals:      0.870 (MW) /      6.959 (MB)
	Size of irrep 2 of <ia|bc> integrals:      1.000 (MW) /      8.000 (MB)
	Size of irrep 3 of <ia|bc> integrals:      1.340 (MW) /     10.721 (MB)
	Total:                                     4.705 (MW) /     37.644 (MB)

	Size of irrep 0 of tijab amplitudes:       0.045 (MW) /      0.363 (MB)
	Size of irrep 1 of tijab amplitudes:       0.013 (MW) /      0.102 (MB)
	Size of irrep 2 of tijab amplitudes:       0.026 (MW) /      0.209 (MB)
	Size of irrep 3 of tijab amplitudes:       0.030 (MW) /      0.237 (MB)
	Total:                                     0.114 (MW) /      0.911 (MB)

	Nuclear Rep. energy          =      9.15604857941051
	SCF energy                   =    -76.06564879750636
	One-electron energy          =    -41.50436363620639
	Two-electron energy          =     17.59111227210598
	Reference energy             =    -76.06564879750610

*** tstop() called on cqc01 at Sun Apr 28 07:41:15 2019
Module time:
	user time   =      11.52 seconds =       0.19 minutes
	system time =       6.14 seconds =       0.10 minutes
	total time  =        126 seconds =       2.10 minutes
Total time:
	user time   =      21.20 seconds =       0.35 minutes
	system time =       8.69 seconds =       0.14 minutes
	total time  =        145 seconds =       2.42 minutes

*** tstart() called on cqc01
*** at Sun Apr 28 07:41:15 2019

            **************************
            *                        *
            *        CCENERGY        *
            *                        *
            **************************

    Nuclear Rep. energy (wfn)     =    9.156048579410506
    SCF energy          (wfn)     =  -76.065648797506356
    Reference energy    (file100) =  -76.065648797506100

    Input parameters:
    -----------------
    Wave function   =     CCSD
    Reference wfn   =     RHF
    Brueckner       =     No
    Memory (Mbytes) =     32000.0
    Maxiter         =     50
    R_Convergence   =     1.0e-07
    E_Convergence   =     1.0e-06
    Restart         =     Yes
    DIIS            =     Yes
    AO Basis        =     NONE
    ABCD            =     NEW
    Cache Level     =     2
    Cache Type      =     LOW
    Print Level     =     1
    Num. of threads =     1
    # Amps to Print =     10
    Print MP2 Amps? =     No
    Analyze T2 Amps =     No
    Print Pair Ener =     No
    Local CC        =     No
    SCS-MP2         =     False
    SCSN-MP2        =     False
    SCS-CCSD        =     False

MP2 correlation energy -0.2862580269274157
                Solving CC Amplitude Equations
                ------------------------------
  Iter             Energy              RMS        T1Diag      D1Diag    New D1Diag    D2Diag
  ----     ---------------------    ---------   ----------  ----------  ----------   --------
     0        -0.286258026927401    0.000e+00    0.000000    0.000000    0.000000    0.118782
     1        -0.295267410618818    2.103e-01    0.016100    0.031909    0.031909    0.133528
     2        -0.292474970790886    2.905e-02    0.009692    0.019967    0.019967    0.130686
     3        -0.288961533665293    8.058e-03    0.009958    0.020843    0.020843    0.128147
     4        -0.288514947025451    2.124e-03    0.009534    0.019888    0.019888    0.127550
     5        -0.288534715229201    4.999e-04    0.009416    0.019659    0.019659    0.127400
     6        -0.288514172172613    1.570e-04    0.009381    0.019577    0.019577    0.127357
     7        -0.288511346290255    4.951e-05    0.009369    0.019542    0.019542    0.127350
     8        -0.288513519290242    1.425e-05    0.009367    0.019536    0.019536    0.127352
     9        -0.288513221877966    4.392e-06    0.009366    0.019532    0.019532    0.127353
    10        -0.288513107642343    1.449e-06    0.009365    0.019531    0.019531    0.127353
    11        -0.288513163110856    4.869e-07    0.009365    0.019531    0.019531    0.127353
    12        -0.288513177460698    1.588e-07    0.009365    0.019531    0.019531    0.127353
    13        -0.288513177817653    5.814e-08    0.009365    0.019531    0.019531    0.127353
    13        -0.288513177817653    5.814e-08    0.009365    0.019531    0.019531    0.127353

    Iterations converged.


    CCSD corr. energy   =   -0.288513177817653
    PPL corr. energy    =    0.063322465008847
    OS PPL corr. energy =    0.053155244771812
    SS PPL corr. energy =    0.010167220237036
    Largest TIA Amplitudes:
              2  85        -0.0125558485
              2  86        -0.0112712609
              1   1        -0.0070752883
              2  89        -0.0064577294
              1   4        -0.0058144629
              3 141         0.0047279576
              2  98         0.0036418157
              3 131         0.0035938458
              3 132         0.0035870318
              1  26         0.0033992016

    Largest TIjAb Amplitudes:
      3   3 123 123        -0.0272825575
      3   3 128 128        -0.0262894924
      3   3 123 128        -0.0247610360
      3   3 128 123        -0.0247610360
      2   2  90  90        -0.0179400748
      1   1  11  11        -0.0177108578
      1   1   5   5        -0.0166533677
      2   2  89  89        -0.0165861042
      2   2  89  90        -0.0159206147
      2   2  90  89        -0.0159206147

    SCF energy       (wfn)                    =  -76.065648797506356
    Reference energy (file100)                =  -76.065648797506100

    Opposite-spin MP2 correlation energy      =   -0.218964599952130
    Same-spin MP2 correlation energy          =   -0.067293426975271
    MP2 correlation energy                    =   -0.286258026927416
      * MP2 total energy                      =  -76.351906824433513

    Opposite-spin CCSD correlation energy     =   -0.228806100147448
    Same-spin CCSD correlation energy         =   -0.059707079114118
    CCSD correlation energy                   =   -0.288513177817653
      * CCSD total energy                     =  -76.354161975323748


*** tstop() called on cqc01 at Sun Apr 28 07:41:32 2019
Module time:
	user time   =       3.84 seconds =       0.06 minutes
	system time =       8.52 seconds =       0.14 minutes
	total time  =         17 seconds =       0.28 minutes
Total time:
	user time   =      25.04 seconds =       0.42 minutes
	system time =      17.21 seconds =       0.29 minutes
	total time  =        162 seconds =       2.70 minutes

*** Psi4 exiting successfully. Buy a developer a beer!
