
    -----------------------------------------------------------------------
          Psi4: An Open-Source Ab Initio Electronic Structure Package
                               Psi4 1.4a3.dev88 

                         Git: Rev {master} 262e345 


    D. G. A. Smith, L. A. Burns, A. C. Simmonett, R. M. Parrish,
    M. C. Schieber, R. Galvelis, P. Kraus, H. Kruse, R. Di Remigio,
    A. Alenaizan, A. M. James, S. Lehtola, J. P. Misiewicz, M. Scheurer,
    R. A. Shaw, J. B. Schriber, Y. Xie, Z. L. Glick, D. A. Sirianni,
    J. S. O'Brien, J. M. Waldrop, A. Kumar, E. G. Hohenstein,
    B. P. Pritchard, B. R. Brooks, H. F. Schaefer III, A. Yu. Sokolov,
    K. Patkowski, A. E. DePrince III, U. Bozkaya, R. A. King,
    F. A. Evangelista, J. M. Turney, T. D. Crawford, C. D. Sherrill,
    J. Chem. Phys. 152(18) 184108 (2020). https://doi.org/10.1063/5.0006002

                            Additional Code Authors
    E. T. Seidl, C. L. Janssen, E. F. Valeev, M. L. Leininger,
    J. F. Gonthier, R. M. Richard, H. R. McAlexander, M. Saitow, X. Wang,
    P. Verma, and M. H. Lechner

             Previous Authors, Complete List of Code Contributors,
                       and Citations for Specific Modules
    https://github.com/psi4/psi4/blob/master/codemeta.json
    https://github.com/psi4/psi4/graphs/contributors
    http://psicode.org/psi4manual/master/introduction.html#citing-psifour

    -----------------------------------------------------------------------


    Psi4 started on: Tuesday, 26 January 2021 06:18PM

    Process ID: 403244
    Host:       n412-039.vsc4.prov
    PSIDATADIR: /home/fs71337/gallo4/psi4/eri-6/psi4/build/stage/share/psi4
    Memory:     500.0 MiB
    Threads:    48
    
  ==> Input File <==

--------------------------------------------------------------------------
# Any line starting with the # character is a comment line
memory 250000 mb
molecule molecule{
0 1
F          0.0000000000        0.0000000000       -0.7006833392
F          0.0000000000        0.0000000000        0.7006833392
}

set {
  reference rhf
  basis aug-cc-pV(d+d)Z
  scf_type OUT_OF_CORE
  freeze_core true
}

energy('ccsd(t)')
--------------------------------------------------------------------------

  Memory set to 232.831 GiB by Python driver.

Scratch directory: /binfl/lv71337/airmler/temp/

*** tstart() called on n412-039.vsc4.prov
*** at Tue Jan 26 18:18:14 2021

   => Loading Basis Set <=

    Name: AUG-CC-PV(D+D)Z
    Role: ORBITAL
    Keyword: BASIS
    atoms 1-2 entry F          line   318 file /home/fs71337/gallo4/psi4/eri-6/psi4/build/stage/share/psi4/basis/aug-cc-pv_dpd_z.gbs 


         ---------------------------------------------------------
                                   SCF
               by Justin Turney, Rob Parrish, Andy Simmonett
                          and Daniel G. A. Smith
                              RHF Reference
                       48 Threads, 238418 MiB Core
         ---------------------------------------------------------

  ==> Geometry <==

    Molecular point group: d2h
    Full point group: D_inf_h

    Geometry (in Angstrom), charge = 0, multiplicity = 1:

       Center              X                  Y                   Z               Mass       
    ------------   -----------------  -----------------  -----------------  -----------------
         F            0.000000000000     0.000000000000    -0.700683339200    18.998403162730
         F            0.000000000000     0.000000000000     0.700683339200    18.998403162730

  Running in d2h symmetry.

  Rotational constants: A = ************  B =      0.90366  C =      0.90366 [cm^-1]
  Rotational constants: A = ************  B =  27091.09269  C =  27091.09269 [MHz]
  Nuclear repulsion =   30.586822653160926

  Charge       = 0
  Multiplicity = 1
  Electrons    = 18
  Nalpha       = 9
  Nbeta        = 9

  ==> Algorithm <==

  SCF Algorithm Type is OUT_OF_CORE.
  DIIS enabled.
  MOM disabled.
  Fractional occupation disabled.
  Guess Type is SAD.
  Energy threshold   = 1.00e-08
  Density threshold  = 1.00e-08
  Integral threshold = 1.00e-12

  ==> Primary Basis <==

  Basis Set: AUG-CC-PV(D+D)Z
    Blend: AUG-CC-PV(D+D)Z
    Number of shells: 18
    Number of basis function: 46
    Number of Cartesian functions: 50
    Spherical Harmonics?: true
    Max angular momentum: 2

  ==> Integral Setup <==

  ==> DiskJK: Disk-Based J/K Matrices <==

    J tasked:                  Yes
    K tasked:                  Yes
    wK tasked:                  No
    Memory [MiB]:           178813
    Schwarz Cutoff:          1E-12

  Minimum eigenvalue in the overlap matrix is 8.0218273365E-03.
  Reciprocal condition number of the overlap matrix is 2.3028181077E-03.
    Using symmetric orthogonalization.

  ==> Pre-Iterations <==

  SCF Guess: Superposition of Atomic Densities via on-the-fly atomic UHF (no occupation information).


 WARNING: Atomic UHF is not converging! Try casting from a smaller basis or call Rob at CCMST.
   -------------------------
    Irrep   Nso     Nmo    
   -------------------------
     Ag        11      11 
     B1g        2       2 
     B2g        5       5 
     B3g        5       5 
     Au         2       2 
     B1u       11      11 
     B2u        5       5 
     B3u        5       5 
   -------------------------
    Total      46      46
   -------------------------

  ==> Iterations <==

                        Total Energy        Delta E     RMS |[F,P]|

   @RHF iter SAD:  -197.84316638402350   -1.97843e+02   0.00000e+00 
   @RHF iter   1:  -198.67310965369367   -8.29943e-01   1.41463e-02 DIIS
   @RHF iter   2:  -198.69788385101415   -2.47742e-02   4.27288e-03 DIIS
   @RHF iter   3:  -198.69972680873562   -1.84296e-03   9.44708e-04 DIIS
   @RHF iter   4:  -198.69990102080217   -1.74212e-04   2.25906e-04 DIIS
   @RHF iter   5:  -198.69990955017883   -8.52938e-06   3.97222e-05 DIIS
   @RHF iter   6:  -198.69990990086990   -3.50691e-07   2.74922e-06 DIIS
   @RHF iter   7:  -198.69990990202095   -1.15105e-09   3.17785e-07 DIIS
   @RHF iter   8:  -198.69990990204533   -2.43858e-11   3.32191e-08 DIIS
   @RHF iter   9:  -198.69990990204585   -5.11591e-13   3.97437e-09 DIIS
  Energy and wave function converged.


  ==> Post-Iterations <==

    Orbital Energies [Eh]
    ---------------------

    Doubly Occupied:                                                      

       1Ag   -26.445696     1B1u  -26.445455     2Ag    -1.780482  
       2B1u   -1.504929     1B2u   -0.816236     1B3u   -0.816236  
       3Ag    -0.761346     1B3g   -0.667466     1B2g   -0.667466  

    Virtual:                                                              

       3B1u    0.065807     4B1u    0.210882     4Ag     0.211844  
       2B2u    0.233921     2B3u    0.233921     2B3g    0.292194  
       2B2g    0.292194     5Ag     0.318654     5B1u    0.523471  
       6Ag     1.180751     1B1g    1.180751     3B3u    1.241336  
       3B2u    1.241336     7Ag     1.416086     6B1u    1.485566  
       1Au     1.485566     4B2u    1.560960     4B3u    1.560960  
       3B3g    1.569148     3B2g    1.569148     7B1u    1.584059  
       8B1u    1.854460     8Ag     2.069026     4B3g    2.096578  
       4B2g    2.096578     9Ag     2.329312     9B1u    4.094602  
       2B1g    4.743664    10Ag     4.743664    11Ag     4.800553  
      10B1u    4.832324     2Au     4.832324     5B2u    4.832728  
       5B3u    4.832728     5B3g    4.911220     5B2g    4.911220  
      11B1u    5.137872  

    Final Occupation by Irrep:
             Ag   B1g   B2g   B3g    Au   B1u   B2u   B3u 
    DOCC [     3,    0,    1,    1,    0,    2,    1,    1 ]

  @RHF Final Energy:  -198.69990990204585

   => Energetics <=

    Nuclear Repulsion Energy =             30.5868226531609260
    One-Electron Energy =                -338.7628406755693504
    Two-Electron Energy =                 109.4761081203625679
    Total Energy =                       -198.6999099020458459

Computation Completed


Properties will be evaluated at   0.000000,   0.000000,   0.000000 [a0]

Properties computed using the SCF density matrix

  Nuclear Dipole Moment: [e a0]
     X:     0.0000      Y:     0.0000      Z:    -0.0000

  Electronic Dipole Moment: [e a0]
     X:     0.0000      Y:     0.0000      Z:     0.0000

  Dipole Moment: [e a0]
     X:     0.0000      Y:     0.0000      Z:    -0.0000     Total:     0.0000

  Dipole Moment: [D]
     X:     0.0000      Y:     0.0000      Z:    -0.0000     Total:     0.0000


*** tstop() called on n412-039.vsc4.prov at Tue Jan 26 18:18:15 2021
Module time:
	user time   =      10.98 seconds =       0.18 minutes
	system time =       0.94 seconds =       0.02 minutes
	total time  =          1 seconds =       0.02 minutes
Total time:
	user time   =      10.98 seconds =       0.18 minutes
	system time =       0.94 seconds =       0.02 minutes
	total time  =          1 seconds =       0.02 minutes

*** tstart() called on n412-039.vsc4.prov
*** at Tue Jan 26 18:18:15 2021


	Wfn Parameters:
	--------------------
	Wavefunction         = CCSD_T
	Number of irreps     = 8
	Number of MOs        = 46
	Number of active MOs = 44
	AO-Basis             = NONE
	Semicanonical        = false
	Reference            = RHF
	Print Level          = 1

	IRREP	# MOs	# FZDC	# DOCC	# SOCC	# VIRT	# FZVR
	-----	-----	------	------	------	------	------
	 Ag	   11	    1	    2	    0	    8	    0
	 B1g	   2	    0	    0	    0	    2	    0
	 B2g	   5	    0	    1	    0	    4	    0
	 B3g	   5	    0	    1	    0	    4	    0
	 Au	   2	    0	    0	    0	    2	    0
	 B1u	   11	    1	    1	    0	    9	    0
	 B2u	   5	    0	    1	    0	    4	    0
	 B3u	   5	    0	    1	    0	    4	    0
	Transforming integrals...
	IWL integrals will be deleted.
	(OO|OO)...
	Presorting SO-basis two-electron integrals.
	Sorting File: SO Ints (nn|nn) nbuckets = 1
	Constructing frozen core operators
	Starting first half-transformation.
	Sorting half-transformed integrals.
	First half integral transformation complete.
	Starting second half-transformation.
	Two-electron integral transformation complete.
	(OO|OV)...
	Starting second half-transformation.
	Two-electron integral transformation complete.
	(OO|VV)...
	Starting second half-transformation.
	Two-electron integral transformation complete.
	(OV|OO)...
	Starting first half-transformation.
	Sorting half-transformed integrals.
	First half integral transformation complete.
	Starting second half-transformation.
	Two-electron integral transformation complete.
	(OV|OV)...
	Starting second half-transformation.
	Two-electron integral transformation complete.
	(OV|VV)...
	Starting second half-transformation.
	Two-electron integral transformation complete.
	(VV|OO)...
	Starting first half-transformation.
	Sorting half-transformed integrals.
	First half integral transformation complete.
	Starting second half-transformation.
	Two-electron integral transformation complete.
	(VV|OV)...
	Starting second half-transformation.
	Two-electron integral transformation complete.
	(VV|VV)...
	Starting second half-transformation.
	Two-electron integral transformation complete.
	Frozen core energy     =   -163.03912404197064

	Size of irrep 0 of <ab|cd> integrals:      0.047 (MW) /      0.377 (MB)
	Size of irrep 1 of <ab|cd> integrals:      0.017 (MW) /      0.139 (MB)
	Size of irrep 2 of <ab|cd> integrals:      0.028 (MW) /      0.226 (MB)
	Size of irrep 3 of <ab|cd> integrals:      0.028 (MW) /      0.226 (MB)
	Size of irrep 4 of <ab|cd> integrals:      0.017 (MW) /      0.139 (MB)
	Size of irrep 5 of <ab|cd> integrals:      0.047 (MW) /      0.373 (MB)
	Size of irrep 6 of <ab|cd> integrals:      0.028 (MW) /      0.226 (MB)
	Size of irrep 7 of <ab|cd> integrals:      0.028 (MW) /      0.226 (MB)
	Total:                                     0.241 (MW) /      1.932 (MB)

	Size of irrep 0 of <ia|bc> integrals:      0.009 (MW) /      0.071 (MB)
	Size of irrep 1 of <ia|bc> integrals:      0.003 (MW) /      0.023 (MB)
	Size of irrep 2 of <ia|bc> integrals:      0.006 (MW) /      0.044 (MB)
	Size of irrep 3 of <ia|bc> integrals:      0.006 (MW) /      0.044 (MB)
	Size of irrep 4 of <ia|bc> integrals:      0.003 (MW) /      0.023 (MB)
	Size of irrep 5 of <ia|bc> integrals:      0.009 (MW) /      0.073 (MB)
	Size of irrep 6 of <ia|bc> integrals:      0.006 (MW) /      0.044 (MB)
	Size of irrep 7 of <ia|bc> integrals:      0.006 (MW) /      0.044 (MB)
	Total:                                     0.046 (MW) /      0.368 (MB)

	Size of irrep 0 of tijab amplitudes:       0.002 (MW) /      0.016 (MB)
	Size of irrep 1 of tijab amplitudes:       0.001 (MW) /      0.004 (MB)
	Size of irrep 2 of tijab amplitudes:       0.001 (MW) /      0.008 (MB)
	Size of irrep 3 of tijab amplitudes:       0.001 (MW) /      0.008 (MB)
	Size of irrep 4 of tijab amplitudes:       0.001 (MW) /      0.004 (MB)
	Size of irrep 5 of tijab amplitudes:       0.002 (MW) /      0.014 (MB)
	Size of irrep 6 of tijab amplitudes:       0.001 (MW) /      0.008 (MB)
	Size of irrep 7 of tijab amplitudes:       0.001 (MW) /      0.008 (MB)
	Total:                                     0.009 (MW) /      0.070 (MB)

	Nuclear Rep. energy          =     30.58682265316093
	SCF energy                   =   -198.69990990204585
	One-electron energy          =   -118.46689309237352
	Two-electron energy          =     52.21928457913756
	Reference energy             =   -198.69990990204568

*** tstop() called on n412-039.vsc4.prov at Tue Jan 26 18:18:16 2021
Module time:
	user time   =       0.04 seconds =       0.00 minutes
	system time =       0.16 seconds =       0.00 minutes
	total time  =          1 seconds =       0.02 minutes
Total time:
	user time   =      11.02 seconds =       0.18 minutes
	system time =       1.10 seconds =       0.02 minutes
	total time  =          2 seconds =       0.03 minutes
            **************************
            *                        *
            *        CCENERGY        *
            *                        *
            **************************

    Nuclear Rep. energy (wfn)     =   30.586822653160926
    SCF energy          (wfn)     = -198.699909902045846
    Reference energy    (file100) = -198.699909902045675

    Input parameters:
    -----------------
    Wave function   =     CCSD_T
    Reference wfn   =     RHF
    Brueckner       =     No
    Memory (Mbytes) =     250000.0
    Maxiter         =     50
    R_Convergence   =     1.0e-07
    E_Convergence   =     1.0e-06
    Restart         =     Yes
    DIIS            =     Yes
    AO Basis        =     NONE
    ABCD            =     NEW
    Cache Level     =     2
    Cache Type      =     LOW
    Print Level     =     1
    Num. of threads =     48
    # Amps to Print =     10
    Print MP2 Amps? =     No
    Analyze T2 Amps =     No
    Print Pair Ener =     No
    Local CC        =     No
    SCS-MP2         =     False
    SCSN-MP2        =     False
    SCS-CCSD        =     False

MP2 correlation energy -0.4266300345093733
                Solving CC Amplitude Equations
                ------------------------------
  Iter             Energy              RMS        T1Diag      D1Diag    New D1Diag    D2Diag
  ----     ---------------------    ---------   ----------  ----------  ----------   --------
     0        -0.426630034509373    0.000e+00    0.000000    0.000000    0.000000    0.182250
     1        -0.418508196958174    5.604e-02    0.011297    0.020795    0.020795    0.188135
     2        -0.430556578289554    2.397e-02    0.011710    0.022627    0.022627    0.204935
     3        -0.434034298870113    9.843e-03    0.013809    0.026375    0.026375    0.215971
     4        -0.433938970555797    2.199e-03    0.013879    0.026593    0.026593    0.217402
     5        -0.434056701642631    9.698e-04    0.013915    0.026610    0.026610    0.218103
     6        -0.434041380172368    4.486e-04    0.013888    0.026584    0.026584    0.218113
     7        -0.434042631334278    1.569e-04    0.013885    0.026576    0.026576    0.218119
     8        -0.434042991561398    5.166e-05    0.013887    0.026578    0.026578    0.218119
     9        -0.434041442928860    1.461e-05    0.013887    0.026578    0.026578    0.218115
    10        -0.434041170805775    4.112e-06    0.013887    0.026578    0.026578    0.218115
    11        -0.434041318976641    1.308e-06    0.013887    0.026578    0.026578    0.218115
    12        -0.434041298078387    3.657e-07    0.013887    0.026578    0.026578    0.218115
    13        -0.434041323749882    1.002e-07    0.013887    0.026578    0.026578    0.218115
    14        -0.434041324924458    1.998e-08    0.013887    0.026578    0.026578    0.218115

    Iterations converged.


    Largest TIA Amplitudes:
              6  33        -0.0224218233
              5  29        -0.0224218231
              1   5        -0.0196423086
              2  10        -0.0150953744
              3  14        -0.0150953742
              1   4         0.0136571466
              4  21        -0.0095350477
              4  20         0.0094463219
              1   1         0.0082094403
              1   3        -0.0074180197

    Largest TIjAb Amplitudes:
      1   1  20  20        -0.1210247892
      1   1  20  21         0.0779480362
      1   1  21  20         0.0779480362
      1   1  21  21        -0.0522222117
      2   2  20  20        -0.0261232916
      3   3  20  20        -0.0261232913
      1   1  20  22        -0.0210763345
      1   1  22  20        -0.0210763345
      0   1  20  20        -0.0210633824
      1   0  20  20        -0.0210633824

    SCF energy       (wfn)                    = -198.699909902045846
    Reference energy (file100)                = -198.699909902045675

    Opposite-spin MP2 correlation energy      =   -0.314636762040769
    Same-spin MP2 correlation energy          =   -0.111993272468604
    Singles MP2 correlation energy            =   -0.000000000000000
    MP2 correlation energy                    =   -0.426630034509373
      * MP2 total energy                      = -199.126539936555048

    Opposite-spin CCSD correlation energy     =   -0.337130165489373
    Same-spin CCSD correlation energy         =   -0.096911159435085
    Singles CCSD correlation energy           =    0.000000000000000
    CCSD correlation energy                   =   -0.434041324924458
      * CCSD total energy                     = -199.133951226970140

            **************************
            *                        *
            *        CCTRIPLES       *
            *                        *
            **************************


    Wave function   =    CCSD_T
    Reference wfn   =      RHF

    Nuclear Rep. energy (wfn)                =   30.586822653160926
    SCF energy          (wfn)                = -198.699909902045846
    Reference energy    (file100)            = -198.699909902045675
    CCSD energy         (file100)            =   -0.434041324924458
    Total CCSD energy   (file100)            = -199.133951226970140

    Number of ijk index combinations:               84
    Memory available in words        :     31250000000
    ~Words needed per explicit thread:            2916
    Number of threads for explicit ijk threading:   48

    (T) energy                                =   -0.012930510362186
      * CCSD(T) total energy                  = -199.146881737332308


    Psi4 stopped on: Tuesday, 26 January 2021 06:18PM
    Psi4 wall time for execution: 0:00:05.10

*** Psi4 exiting successfully. Buy a developer a beer!
