
    -----------------------------------------------------------------------
          Psi4: An Open-Source Ab Initio Electronic Structure Package
                               Psi4 1.4a3.dev88 

                         Git: Rev {master} 262e345 


    D. G. A. Smith, L. A. Burns, A. C. Simmonett, R. M. Parrish,
    M. C. Schieber, R. Galvelis, P. Kraus, H. Kruse, R. Di Remigio,
    A. Alenaizan, A. M. James, S. Lehtola, J. P. Misiewicz, M. Scheurer,
    R. A. Shaw, J. B. Schriber, Y. Xie, Z. L. Glick, D. A. Sirianni,
    J. S. O'Brien, J. M. Waldrop, A. Kumar, E. G. Hohenstein,
    B. P. Pritchard, B. R. Brooks, H. F. Schaefer III, A. Yu. Sokolov,
    K. Patkowski, A. E. DePrince III, U. Bozkaya, R. A. King,
    F. A. Evangelista, J. M. Turney, T. D. Crawford, C. D. Sherrill,
    J. Chem. Phys. 152(18) 184108 (2020). https://doi.org/10.1063/5.0006002

                            Additional Code Authors
    E. T. Seidl, C. L. Janssen, E. F. Valeev, M. L. Leininger,
    J. F. Gonthier, R. M. Richard, H. R. McAlexander, M. Saitow, X. Wang,
    P. Verma, and M. H. Lechner

             Previous Authors, Complete List of Code Contributors,
                       and Citations for Specific Modules
    https://github.com/psi4/psi4/blob/master/codemeta.json
    https://github.com/psi4/psi4/graphs/contributors
    http://psicode.org/psi4manual/master/introduction.html#citing-psifour

    -----------------------------------------------------------------------


    Psi4 started on: Tuesday, 26 January 2021 06:13PM

    Process ID: 404575
    Host:       n412-040.vsc4.prov
    PSIDATADIR: /home/fs71337/gallo4/psi4/eri-6/psi4/build/stage/share/psi4
    Memory:     500.0 MiB
    Threads:    48
    
  ==> Input File <==

--------------------------------------------------------------------------
# Any line starting with the # character is a comment line
memory 250000 mb
molecule molecule{
0 1
F          0.0000000000        0.0000000000       -0.7006833392
F          0.0000000000        0.0000000000        0.7006833392
}

set {
  reference rhf
  basis aug-cc-pV(t+d)Z
  scf_type OUT_OF_CORE
  freeze_core true
}

energy('ccsd(t)')
--------------------------------------------------------------------------

  Memory set to 232.831 GiB by Python driver.

Scratch directory: /binfl/lv71337/airmler/temp/

*** tstart() called on n412-040.vsc4.prov
*** at Tue Jan 26 18:13:43 2021

   => Loading Basis Set <=

    Name: AUG-CC-PV(T+D)Z
    Role: ORBITAL
    Keyword: BASIS
    atoms 1-2 entry F          line   405 file /home/fs71337/gallo4/psi4/eri-6/psi4/build/stage/share/psi4/basis/aug-cc-pv_tpd_z.gbs 


         ---------------------------------------------------------
                                   SCF
               by Justin Turney, Rob Parrish, Andy Simmonett
                          and Daniel G. A. Smith
                              RHF Reference
                       48 Threads, 238418 MiB Core
         ---------------------------------------------------------

  ==> Geometry <==

    Molecular point group: d2h
    Full point group: D_inf_h

    Geometry (in Angstrom), charge = 0, multiplicity = 1:

       Center              X                  Y                   Z               Mass       
    ------------   -----------------  -----------------  -----------------  -----------------
         F            0.000000000000     0.000000000000    -0.700683339200    18.998403162730
         F            0.000000000000     0.000000000000     0.700683339200    18.998403162730

  Running in d2h symmetry.

  Rotational constants: A = ************  B =      0.90366  C =      0.90366 [cm^-1]
  Rotational constants: A = ************  B =  27091.09269  C =  27091.09269 [MHz]
  Nuclear repulsion =   30.586822653160926

  Charge       = 0
  Multiplicity = 1
  Electrons    = 18
  Nalpha       = 9
  Nbeta        = 9

  ==> Algorithm <==

  SCF Algorithm Type is OUT_OF_CORE.
  DIIS enabled.
  MOM disabled.
  Fractional occupation disabled.
  Guess Type is SAD.
  Energy threshold   = 1.00e-08
  Density threshold  = 1.00e-08
  Integral threshold = 1.00e-12

  ==> Primary Basis <==

  Basis Set: AUG-CC-PV(T+D)Z
    Blend: AUG-CC-PV(T+D)Z
    Number of shells: 28
    Number of basis function: 92
    Number of Cartesian functions: 110
    Spherical Harmonics?: true
    Max angular momentum: 3

  ==> Integral Setup <==

  ==> DiskJK: Disk-Based J/K Matrices <==

    J tasked:                  Yes
    K tasked:                  Yes
    wK tasked:                  No
    Memory [MiB]:           178813
    Schwarz Cutoff:          1E-12

  Minimum eigenvalue in the overlap matrix is 1.3729526303E-03.
  Reciprocal condition number of the overlap matrix is 3.3470391860E-04.
    Using symmetric orthogonalization.

  ==> Pre-Iterations <==

  SCF Guess: Superposition of Atomic Densities via on-the-fly atomic UHF (no occupation information).


 WARNING: Atomic UHF is not converging! Try casting from a smaller basis or call Rob at CCMST.
   -------------------------
    Irrep   Nso     Nmo    
   -------------------------
     Ag        19      19 
     B1g        5       5 
     B2g       11      11 
     B3g       11      11 
     Au         5       5 
     B1u       19      19 
     B2u       11      11 
     B3u       11      11 
   -------------------------
    Total      92      92
   -------------------------

  ==> Iterations <==

                        Total Energy        Delta E     RMS |[F,P]|

   @RHF iter SAD:  -174.12843687283495   -1.74128e+02   0.00000e+00 
   @RHF iter   1:  -198.56876119461921   -2.44403e+01   2.09623e-02 DIIS
   @RHF iter   2:  -198.72843650637964   -1.59675e-01   1.01573e-02 DIIS
   @RHF iter   3:  -198.75589635742531   -2.74599e-02   6.60704e-04 DIIS
   @RHF iter   4:  -198.75612586821561   -2.29511e-04   1.11573e-04 DIIS
   @RHF iter   5:  -198.75613539312641   -9.52491e-06   1.60547e-05 DIIS
   @RHF iter   6:  -198.75613560862229   -2.15496e-07   3.54950e-06 DIIS
   @RHF iter   7:  -198.75613561620762   -7.58533e-09   5.25498e-07 DIIS
   @RHF iter   8:  -198.75613561642081   -2.13191e-10   7.09321e-08 DIIS
   @RHF iter   9:  -198.75613561642581   -5.00222e-12   1.12930e-08 DIIS
   @RHF iter  10:  -198.75613561642621   -3.97904e-13   1.29573e-09 DIIS
  Energy and wave function converged.


  ==> Post-Iterations <==

    Orbital Energies [Eh]
    ---------------------

    Doubly Occupied:                                                      

       1Ag   -26.432528     1B1u  -26.432286     2Ag    -1.772540  
       2B1u   -1.497141     1B2u   -0.814269     1B3u   -0.814269  
       3Ag    -0.756990     1B3g   -0.665425     1B2g   -0.665425  

    Virtual:                                                              

       3B1u    0.068446     4B1u    0.174327     4Ag     0.177679  
       2B2u    0.191952     2B3u    0.191952     2B3g    0.245430  
       2B2g    0.245430     5Ag     0.264575     5B1u    0.434031  
       6Ag     0.777358     1B1g    0.777358     3B3u    0.932295  
       3B2u    0.932295     7Ag     0.961884     6B1u    1.028377  
       1Au     1.028377     7B1u    1.052031     3B3g    1.071235  
       3B2g    1.071235     4B2u    1.080396     4B3u    1.080396  
       8B1u    1.211081     8Ag     1.408412     4B3g    1.468436  
       4B2g    1.468436     9Ag     1.783030     5B2u    2.462589  
       5B3u    2.462589    10Ag     2.584020     2B1g    2.584020  
      11Ag     2.660482     6B2u    2.752966     6B3u    2.752966  
      12Ag     2.849158     3B1g    2.849158     9B1u    2.885176  
       2Au     2.885176    10B1u    2.989238     5B3g    3.032197  
       5B2g    3.032197     6B3g    3.046568     6B2g    3.046568  
      11B1u    3.251576     7B2u    3.393283     7B3u    3.393283  
       3Au     3.559958    12B1u    3.559958    13Ag     3.798602  
      13B1u    3.913181     7B3g    4.229513     7B2g    4.229513  
       8B2u    5.157154     8B3u    5.157154     8B3g    5.351369  
       8B2g    5.351369    14Ag     5.372544    14B1u    6.842892  
      15Ag     8.515223     9B3u    8.707582     9B2u    8.707582  
      16Ag     8.745158     4B1g    8.745158     9B2g    8.823398  
       9B3g    8.823398    10B3u    8.925561    10B2u    8.925561  
       4Au     8.954642    15B1u    8.954642    11B3u    9.151552  
      11B2u    9.151552    17Ag     9.160466     5B1g    9.160466  
      16B1u    9.172479    10B2g    9.204735    10B3g    9.204735  
      17B1u    9.282359     5Au     9.282359    18Ag     9.524395  
      11B2g    9.684410    11B3g    9.684410    18B1u   10.330782  
      19Ag    12.478975    19B1u   15.578147  

    Final Occupation by Irrep:
             Ag   B1g   B2g   B3g    Au   B1u   B2u   B3u 
    DOCC [     3,    0,    1,    1,    0,    2,    1,    1 ]

  @RHF Final Energy:  -198.75613561642621

   => Energetics <=

    Nuclear Repulsion Energy =             30.5868226531609260
    One-Electron Energy =                -338.9841714842755209
    Two-Electron Energy =                 109.6412132146883778
    Total Energy =                       -198.7561356164262065

Computation Completed


Properties will be evaluated at   0.000000,   0.000000,   0.000000 [a0]

Properties computed using the SCF density matrix

  Nuclear Dipole Moment: [e a0]
     X:     0.0000      Y:     0.0000      Z:    -0.0000

  Electronic Dipole Moment: [e a0]
     X:     0.0000      Y:     0.0000      Z:     0.0000

  Dipole Moment: [e a0]
     X:     0.0000      Y:     0.0000      Z:    -0.0000     Total:     0.0000

  Dipole Moment: [D]
     X:     0.0000      Y:     0.0000      Z:    -0.0000     Total:     0.0000


*** tstop() called on n412-040.vsc4.prov at Tue Jan 26 18:13:46 2021
Module time:
	user time   =      20.84 seconds =       0.35 minutes
	system time =       1.13 seconds =       0.02 minutes
	total time  =          3 seconds =       0.05 minutes
Total time:
	user time   =      20.84 seconds =       0.35 minutes
	system time =       1.13 seconds =       0.02 minutes
	total time  =          3 seconds =       0.05 minutes

*** tstart() called on n412-040.vsc4.prov
*** at Tue Jan 26 18:13:46 2021


	Wfn Parameters:
	--------------------
	Wavefunction         = CCSD_T
	Number of irreps     = 8
	Number of MOs        = 92
	Number of active MOs = 90
	AO-Basis             = NONE
	Semicanonical        = false
	Reference            = RHF
	Print Level          = 1

	IRREP	# MOs	# FZDC	# DOCC	# SOCC	# VIRT	# FZVR
	-----	-----	------	------	------	------	------
	 Ag	   19	    1	    2	    0	    16	    0
	 B1g	   5	    0	    0	    0	    5	    0
	 B2g	   11	    0	    1	    0	    10	    0
	 B3g	   11	    0	    1	    0	    10	    0
	 Au	   5	    0	    0	    0	    5	    0
	 B1u	   19	    1	    1	    0	    17	    0
	 B2u	   11	    0	    1	    0	    10	    0
	 B3u	   11	    0	    1	    0	    10	    0
	Transforming integrals...
	IWL integrals will be deleted.
	(OO|OO)...
	Presorting SO-basis two-electron integrals.
	Sorting File: SO Ints (nn|nn) nbuckets = 1
	Constructing frozen core operators
	Starting first half-transformation.
	Sorting half-transformed integrals.
	First half integral transformation complete.
	Starting second half-transformation.
	Two-electron integral transformation complete.
	(OO|OV)...
	Starting second half-transformation.
	Two-electron integral transformation complete.
	(OO|VV)...
	Starting second half-transformation.
	Two-electron integral transformation complete.
	(OV|OO)...
	Starting first half-transformation.
	Sorting half-transformed integrals.
	First half integral transformation complete.
	Starting second half-transformation.
	Two-electron integral transformation complete.
	(OV|OV)...
	Starting second half-transformation.
	Two-electron integral transformation complete.
	(OV|VV)...
	Starting second half-transformation.
	Two-electron integral transformation complete.
	(VV|OO)...
	Starting first half-transformation.
	Sorting half-transformed integrals.
	First half integral transformation complete.
	Starting second half-transformation.
	Two-electron integral transformation complete.
	(VV|OV)...
	Starting second half-transformation.
	Two-electron integral transformation complete.
	(VV|VV)...
	Starting second half-transformation.
	Two-electron integral transformation complete.
	Frozen core energy     =   -163.04051629195763

	Size of irrep 0 of <ab|cd> integrals:      0.990 (MW) /      7.920 (MB)
	Size of irrep 1 of <ab|cd> integrals:      0.533 (MW) /      4.263 (MB)
	Size of irrep 2 of <ab|cd> integrals:      0.740 (MW) /      5.917 (MB)
	Size of irrep 3 of <ab|cd> integrals:      0.740 (MW) /      5.917 (MB)
	Size of irrep 4 of <ab|cd> integrals:      0.533 (MW) /      4.263 (MB)
	Size of irrep 5 of <ab|cd> integrals:      0.988 (MW) /      7.904 (MB)
	Size of irrep 6 of <ab|cd> integrals:      0.740 (MW) /      5.917 (MB)
	Size of irrep 7 of <ab|cd> integrals:      0.740 (MW) /      5.917 (MB)
	Total:                                     6.002 (MW) /     48.018 (MB)

	Size of irrep 0 of <ia|bc> integrals:      0.089 (MW) /      0.708 (MB)
	Size of irrep 1 of <ia|bc> integrals:      0.040 (MW) /      0.321 (MB)
	Size of irrep 2 of <ia|bc> integrals:      0.063 (MW) /      0.502 (MB)
	Size of irrep 3 of <ia|bc> integrals:      0.063 (MW) /      0.502 (MB)
	Size of irrep 4 of <ia|bc> integrals:      0.040 (MW) /      0.321 (MB)
	Size of irrep 5 of <ia|bc> integrals:      0.089 (MW) /      0.716 (MB)
	Size of irrep 6 of <ia|bc> integrals:      0.063 (MW) /      0.502 (MB)
	Size of irrep 7 of <ia|bc> integrals:      0.063 (MW) /      0.502 (MB)
	Total:                                     0.509 (MW) /      4.075 (MB)

	Size of irrep 0 of tijab amplitudes:       0.009 (MW) /      0.072 (MB)
	Size of irrep 1 of tijab amplitudes:       0.003 (MW) /      0.023 (MB)
	Size of irrep 2 of tijab amplitudes:       0.005 (MW) /      0.041 (MB)
	Size of irrep 3 of tijab amplitudes:       0.005 (MW) /      0.041 (MB)
	Size of irrep 4 of tijab amplitudes:       0.003 (MW) /      0.023 (MB)
	Size of irrep 5 of tijab amplitudes:       0.008 (MW) /      0.064 (MB)
	Size of irrep 6 of tijab amplitudes:       0.005 (MW) /      0.041 (MB)
	Size of irrep 7 of tijab amplitudes:       0.005 (MW) /      0.041 (MB)
	Total:                                     0.043 (MW) /      0.347 (MB)

	Nuclear Rep. energy          =     30.58682265316093
	SCF energy                   =   -198.75613561642621
	One-electron energy          =   -118.63276761554056
	Two-electron energy          =     52.33032563791086
	Reference energy             =   -198.75613561642641

*** tstop() called on n412-040.vsc4.prov at Tue Jan 26 18:13:49 2021
Module time:
	user time   =       0.52 seconds =       0.01 minutes
	system time =       0.47 seconds =       0.01 minutes
	total time  =          3 seconds =       0.05 minutes
Total time:
	user time   =      21.36 seconds =       0.36 minutes
	system time =       1.60 seconds =       0.03 minutes
	total time  =          6 seconds =       0.10 minutes
            **************************
            *                        *
            *        CCENERGY        *
            *                        *
            **************************

    Nuclear Rep. energy (wfn)     =   30.586822653160926
    SCF energy          (wfn)     = -198.756135616426207
    Reference energy    (file100) = -198.756135616426405

    Input parameters:
    -----------------
    Wave function   =     CCSD_T
    Reference wfn   =     RHF
    Brueckner       =     No
    Memory (Mbytes) =     250000.0
    Maxiter         =     50
    R_Convergence   =     1.0e-07
    E_Convergence   =     1.0e-06
    Restart         =     Yes
    DIIS            =     Yes
    AO Basis        =     NONE
    ABCD            =     NEW
    Cache Level     =     2
    Cache Type      =     LOW
    Print Level     =     1
    Num. of threads =     48
    # Amps to Print =     10
    Print MP2 Amps? =     No
    Analyze T2 Amps =     No
    Print Pair Ener =     No
    Local CC        =     No
    SCS-MP2         =     False
    SCSN-MP2        =     False
    SCS-CCSD        =     False

MP2 correlation energy -0.5347716457921561
                Solving CC Amplitude Equations
                ------------------------------
  Iter             Energy              RMS        T1Diag      D1Diag    New D1Diag    D2Diag
  ----     ---------------------    ---------   ----------  ----------  ----------   --------
     0        -0.534771645792156    0.000e+00    0.000000    0.000000    0.000000    0.184084
     1        -0.520441755065643    5.512e-02    0.010582    0.022571    0.022571    0.185138
     2        -0.534038024454929    2.479e-02    0.010569    0.023074    0.023074    0.201611
     3        -0.537786374911629    9.518e-03    0.012431    0.026874    0.026874    0.212416
     4        -0.537584627383329    2.056e-03    0.012512    0.027190    0.027190    0.213757
     5        -0.537703372024997    8.927e-04    0.012563    0.027238    0.027238    0.214438
     6        -0.537698803298890    3.699e-04    0.012546    0.027203    0.027203    0.214426
     7        -0.537695980249910    1.401e-04    0.012542    0.027192    0.027192    0.214429
     8        -0.537695483024284    4.605e-05    0.012544    0.027195    0.027195    0.214431
     9        -0.537694695646465    1.345e-05    0.012544    0.027196    0.027196    0.214427
    10        -0.537694379166363    4.279e-06    0.012543    0.027196    0.027196    0.214427
    11        -0.537694658467443    1.372e-06    0.012543    0.027196    0.027196    0.214427
    12        -0.537694615254596    3.704e-07    0.012543    0.027196    0.027196    0.214427
    13        -0.537694641251160    1.118e-07    0.012543    0.027196    0.027196    0.214427
    14        -0.537694641453432    1.903e-08    0.012543    0.027196    0.027196    0.214427

    Iterations converged.


    Largest TIA Amplitudes:
              1   5        -0.0171144104
              6  73        -0.0167502105
              5  63        -0.0167502104
              2  21        -0.0105264109
              3  31        -0.0105264108
              5  65        -0.0100492678
              6  75        -0.0100492677
              1   3        -0.0099280593
              4  47         0.0097532649
              4  46         0.0094860528

    Largest TIjAb Amplitudes:
      1   1  46  46        -0.1002622046
      1   1  46  47        -0.0786455268
      1   1  47  46        -0.0786455268
      1   1  47  47        -0.0630909795
      1   1  46  48         0.0259898294
      1   1  48  46         0.0259898294
      1   1  47  48         0.0221996225
      1   1  48  47         0.0221996225
      2   2  46  46        -0.0213988551
      3   3  46  46        -0.0213988550

    SCF energy       (wfn)                    = -198.756135616426207
    Reference energy (file100)                = -198.756135616426405

    Opposite-spin MP2 correlation energy      =   -0.400172410010911
    Same-spin MP2 correlation energy          =   -0.134599235781246
    Singles MP2 correlation energy            =   -0.000000000000000
    MP2 correlation energy                    =   -0.534771645792156
      * MP2 total energy                      = -199.290907262218553

    Opposite-spin CCSD correlation energy     =   -0.420040497924562
    Same-spin CCSD correlation energy         =   -0.117654143528870
    Singles CCSD correlation energy           =    0.000000000000000
    CCSD correlation energy                   =   -0.537694641453432
      * CCSD total energy                     = -199.293830257879847

            **************************
            *                        *
            *        CCTRIPLES       *
            *                        *
            **************************


    Wave function   =    CCSD_T
    Reference wfn   =      RHF

    Nuclear Rep. energy (wfn)                =   30.586822653160926
    SCF energy          (wfn)                = -198.756135616426207
    Reference energy    (file100)            = -198.756135616426405
    CCSD energy         (file100)            =   -0.537694641453432
    Total CCSD energy   (file100)            = -199.293830257879847

    Number of ijk index combinations:               84
    Memory available in words        :     31250000000
    ~Words needed per explicit thread:           19652
    Number of threads for explicit ijk threading:   48

    (T) energy                                =   -0.019784084436713
      * CCSD(T) total energy                  = -199.313614342316555


    Psi4 stopped on: Tuesday, 26 January 2021 06:13PM
    Psi4 wall time for execution: 0:00:12.55

*** Psi4 exiting successfully. Buy a developer a beer!
