
    -----------------------------------------------------------------------
          Psi4: An Open-Source Ab Initio Electronic Structure Package
                               Psi4 1.4a3.dev88 

                         Git: Rev {master} 262e345 


    D. G. A. Smith, L. A. Burns, A. C. Simmonett, R. M. Parrish,
    M. C. Schieber, R. Galvelis, P. Kraus, H. Kruse, R. Di Remigio,
    A. Alenaizan, A. M. James, S. Lehtola, J. P. Misiewicz, M. Scheurer,
    R. A. Shaw, J. B. Schriber, Y. Xie, Z. L. Glick, D. A. Sirianni,
    J. S. O'Brien, J. M. Waldrop, A. Kumar, E. G. Hohenstein,
    B. P. Pritchard, B. R. Brooks, H. F. Schaefer III, A. Yu. Sokolov,
    K. Patkowski, A. E. DePrince III, U. Bozkaya, R. A. King,
    F. A. Evangelista, J. M. Turney, T. D. Crawford, C. D. Sherrill,
    J. Chem. Phys. 152(18) 184108 (2020). https://doi.org/10.1063/5.0006002

                            Additional Code Authors
    E. T. Seidl, C. L. Janssen, E. F. Valeev, M. L. Leininger,
    J. F. Gonthier, R. M. Richard, H. R. McAlexander, M. Saitow, X. Wang,
    P. Verma, and M. H. Lechner

             Previous Authors, Complete List of Code Contributors,
                       and Citations for Specific Modules
    https://github.com/psi4/psi4/blob/master/codemeta.json
    https://github.com/psi4/psi4/graphs/contributors
    http://psicode.org/psi4manual/master/introduction.html#citing-psifour

    -----------------------------------------------------------------------


    Psi4 started on: Tuesday, 26 January 2021 04:16PM

    Process ID: 183402
    Host:       l48
    PSIDATADIR: /home/fs71337/gallo4/psi4/eri-6/psi4/build/stage/share/psi4
    Memory:     500.0 MiB
    Threads:    1
    
  ==> Input File <==

--------------------------------------------------------------------------
# Any line starting with the # character is a comment line
memory 250000 mb
molecule molecule{
0 1
F          0.0000000000        0.0000000000       -0.7006833392
F          0.0000000000        0.0000000000        0.7006833392
}

set {
  reference rhf
  basis aug-cc-pV(5+d)Z
  scf_type OUT_OF_CORE
  freeze_core true
  DOCC [     3,    0,    1,    1,    0,    2,    1,    1 ]

}

energy('ccsd(t)')
--------------------------------------------------------------------------

  Memory set to 232.831 GiB by Python driver.

Scratch directory: /tmp/

*** tstart() called on l48
*** at Tue Jan 26 16:16:30 2021

   => Loading Basis Set <=

    Name: AUG-CC-PV(5+D)Z
    Role: ORBITAL
    Keyword: BASIS
    atoms 1-2 entry F          line   645 file /home/fs71337/gallo4/psi4/eri-6/psi4/build/stage/share/psi4/basis/aug-cc-pv_5pd_z.gbs 


         ---------------------------------------------------------
                                   SCF
               by Justin Turney, Rob Parrish, Andy Simmonett
                          and Daniel G. A. Smith
                              RHF Reference
                        1 Threads, 238418 MiB Core
         ---------------------------------------------------------

  ==> Geometry <==

    Molecular point group: d2h
    Full point group: D_inf_h

    Geometry (in Angstrom), charge = 0, multiplicity = 1:

       Center              X                  Y                   Z               Mass       
    ------------   -----------------  -----------------  -----------------  -----------------
         F            0.000000000000     0.000000000000    -0.700683339200    18.998403162730
         F            0.000000000000     0.000000000000     0.700683339200    18.998403162730

  Running in d2h symmetry.

  Rotational constants: A = ************  B =      0.90366  C =      0.90366 [cm^-1]
  Rotational constants: A = ************  B =  27091.09269  C =  27091.09269 [MHz]
  Nuclear repulsion =   30.586822653160926

  Charge       = 0
  Multiplicity = 1
  Electrons    = 18
  Nalpha       = 9
  Nbeta        = 9

  ==> Algorithm <==

  SCF Algorithm Type is OUT_OF_CORE.
  DIIS enabled.
  MOM disabled.
  Fractional occupation disabled.
  Guess Type is SAD.
  Energy threshold   = 1.00e-08
  Density threshold  = 1.00e-08
  Integral threshold = 1.00e-12

  ==> Primary Basis <==

  Basis Set: AUG-CC-PV(5+D)Z
    Blend: AUG-CC-PV(5+D)Z
    Number of shells: 54
    Number of basis function: 254
    Number of Cartesian functions: 364
    Spherical Harmonics?: true
    Max angular momentum: 5

  ==> Integral Setup <==

  ==> DiskJK: Disk-Based J/K Matrices <==

    J tasked:                  Yes
    K tasked:                  Yes
    wK tasked:                  No
    Memory [MiB]:           178813
    Schwarz Cutoff:          1E-12

  Minimum eigenvalue in the overlap matrix is 8.5519842151E-05.
  Reciprocal condition number of the overlap matrix is 1.5416761272E-05.
    Using symmetric orthogonalization.

  ==> Pre-Iterations <==

  SCF Guess: Superposition of Atomic Densities via on-the-fly atomic UHF (no occupation information).

   -------------------------
    Irrep   Nso     Nmo    
   -------------------------
     Ag        46      46 
     B1g       19      19 
     B2g       31      31 
     B3g       31      31 
     Au        19      19 
     B1u       46      46 
     B2u       31      31 
     B3u       31      31 
   -------------------------
    Total     254     254
   -------------------------

  ==> Iterations <==

                        Total Energy        Delta E     RMS |[F,P]|

   @RHF iter SAD:  -198.15627760846607   -1.98156e+02   0.00000e+00 
   @RHF iter   1:  -198.74972140856192   -5.93444e-01   3.15133e-03 DIIS
   @RHF iter   2:  -198.77244520971959   -2.27238e-02   1.00249e-03 DIIS
   @RHF iter   3:  -198.77422710164635   -1.78189e-03   1.79554e-04 DIIS
   @RHF iter   4:  -198.77435986658759   -1.32765e-04   5.54636e-05 DIIS
   @RHF iter   5:  -198.77437099797197   -1.11314e-05   1.09495e-05 DIIS
   @RHF iter   6:  -198.77437148164566   -4.83674e-07   1.30523e-06 DIIS
   @RHF iter   7:  -198.77437148629531   -4.64965e-09   7.69977e-08 DIIS
   @RHF iter   8:  -198.77437148631930   -2.39879e-11   7.67732e-09 DIIS
  Energy and wave function converged.


  ==> Post-Iterations <==

    Orbital Energies [Eh]
    ---------------------

    Doubly Occupied:                                                      

       1Ag   -26.427146     1B1u  -26.426893     2Ag    -1.769981  
       2B1u   -1.494655     1B3u   -0.813643     1B2u   -0.813643  
       3Ag    -0.755862     1B2g   -0.664867     1B3g   -0.664867  

    Virtual:                                                              

       3B1u    0.060578     4Ag     0.128113     4B1u    0.128202  
       2B2u    0.129004     2B3u    0.129004     2B3g    0.173080  
       2B2g    0.173080     5Ag     0.190543     5B1u    0.303855  
       1B1g    0.480140     6Ag     0.480140     7Ag     0.572388  
       3B2u    0.573975     3B3u    0.573975     4B2u    0.627625  
       4B3u    0.627625     3B3g    0.629366     3B2g    0.629366  
       6B1u    0.631757     1Au     0.639971     7B1u    0.639971  
       8Ag     0.703183     8B1u    0.711057     4B3g    0.761045  
       4B2g    0.761045     9Ag     1.005942     5B3u    1.250518  
       5B2u    1.250518    10Ag     1.371042     2B1g    1.371042  
       6B2u    1.490878     6B3u    1.490878     5B2g    1.508629  
       5B3g    1.508629     9B1u    1.516422     3B1g    1.590625  
      11Ag     1.590625     2Au     1.615463    10B1u    1.615463  
      12Ag     1.636283     6B3g    1.641271     6B2g    1.641271  
      11B1u    1.717436     7B2u    1.788155     7B3u    1.788155  
      13Ag     1.830767    12B1u    1.871017     7B3g    1.904551  
       7B2g    1.904551     3Au     1.947573    13B1u    1.947573  
       8B3u    1.970124     8B2u    1.970124    14Ag     2.463647  
       8B3g    2.854930     8B2g    2.854930    14B1u    3.157377  
       9B2u    3.181770     9B3u    3.181770    15Ag     3.191822  
       4B1g    3.191822     5B1g    3.460487    16Ag     3.460487  
      15B1u    3.496348     4Au     3.496348    10B2u    3.547328  
      10B3u    3.547328    17Ag     3.589393     9B3g    3.758936  
       9B2g    3.758936    11B3u    3.790305    11B2u    3.790305  
      18Ag     3.870224     5Au     3.904579    16B1u    3.904579  
      10B2g    3.918576    10B3g    3.918576    12B2u    3.930074  
      12B3u    3.930074    17B1u    3.931725    19Ag     3.971307  
       6B1g    3.971307    11B3g    4.041393    11B2g    4.041393  
      20Ag     4.127265     7B1g    4.192815    21Ag     4.192815  
       6Au     4.310356    18B1u    4.310356    19B1u    4.467362  
      12B3g    4.539319    12B2g    4.539319    20B1u    4.573514  
      22Ag     4.937608    13B2u    4.991861    13B3u    4.991861  
       7Au     5.088840    21B1u    5.088840    13B3g    5.915577  
      13B2g    5.915577    14B2u    6.061864    14B3u    6.061864  
      22B1u    6.564724    14B3g    6.686499    14B2g    6.686499  
      23B1u    7.108768    15B3u    7.533146    15B2u    7.533146  
       8B1g    7.620035    23Ag     7.620035    24Ag     7.681367  
      25Ag     7.846065     9B1g    7.846065    16B2u    7.909686  
      16B3u    7.909686    15B2g    8.037349    15B3g    8.037349  
      17B2u    8.193492    17B3u    8.193492    24B1u    8.399177  
       8Au     8.399177    26Ag     8.528437    10B1g    8.932206  
      27Ag     8.932206    18B2u    8.950019    18B3u    8.950019  
      16B3g    8.970965    16B2g    8.970965    25B1u    9.067325  
       9Au     9.067325    28Ag     9.114559    17B3g    9.231010  
      17B2g    9.231010    19B2u    9.288861    19B3u    9.288861  
      10Au     9.292490    26B1u    9.292490    18B3g    9.345919  
      18B2g    9.345919    29Ag     9.469962    11B1g    9.469962  
      27B1u    9.509987    20B3u    9.799046    20B2u    9.799046  
      12B1g    9.886856    30Ag     9.886856    28B1u    9.889255  
      11Au     9.889255    19B2g    9.994546    19B3g    9.994546  
      20B3g   10.144821    20B2g   10.144821    29B1u   10.365827  
      30B1u   10.550405    21B2u   10.595920    21B3u   10.595920  
      31Ag    10.837720    13B1g   10.837720    12Au    10.932664  
      31B1u   10.932664    32Ag    11.003562    21B3g   11.096281  
      21B2g   11.096281    13Au    11.492448    32B1u   11.492448  
      33Ag    11.699676    22B2u   12.079535    22B3u   12.079535  
      33B1u   12.997465    22B3g   13.619476    22B2g   13.619476  
      34Ag    14.620475    34B1u   15.882868    23B3u   19.302749  
      23B2u   19.302749    23B3g   19.610919    23B2g   19.610919  
      35Ag    20.740484    14B1g   20.740484    24B3u   20.842073  
      24B2u   20.842073    36Ag    20.865535    25B2u   20.871305  
      25B3u   20.871305    24B2g   20.929813    24B3g   20.929813  
      35B1u   21.061710    14Au    21.061710    36B1u   21.275496  
      25B3g   21.389480    25B2g   21.389480    26B3g   21.398193  
      26B2g   21.398193    15B1g   21.415002    37Ag    21.415002  
      38Ag    21.517668    37B1u   21.604454    15Au    21.604454  
      26B2u   21.782119    26B3u   21.782119    38B1u   21.890483  
      27B2u   24.389828    27B3u   24.389828    39Ag    24.418424  
      16B1g   24.418424    17B1g   24.447606    40Ag    24.447606  
      28B2u   24.474621    28B3u   24.474621    16Au    24.516996  
      39B1u   24.516996    41Ag    24.620229    27B2g   24.620972  
      27B3g   24.620972    40B1u   24.921991    17Au    24.974843  
      41B1u   24.974843    28B2g   25.467868    28B3g   25.467868  
      29B3u   25.544542    29B2u   25.544542    18B1g   25.568865  
      42Ag    25.568865    29B2g   25.630588    29B3g   25.630588  
      18Au    25.966666    42B1u   25.966666    30B2u   26.320944  
      30B3u   26.320944    43B1u   26.557670    30B3g   26.670936  
      30B2g   26.670936    43Ag    27.685804    44Ag    28.765931  
      19B1g   28.765931    19Au    28.891410    44B1u   28.891410  
      31B2u   29.026548    31B3u   29.026548    45Ag    29.119644  
      31B3g   29.972910    31B2g   29.972910    45B1u   31.280010  
      46Ag    78.188456    46B1u   81.293771  

    Final Occupation by Irrep:
             Ag   B1g   B2g   B3g    Au   B1u   B2u   B3u 
    DOCC [     3,    0,    1,    1,    0,    2,    1,    1 ]

  @RHF Final Energy:  -198.77437148631930

   => Energetics <=

    Nuclear Repulsion Energy =             30.5868226531609260
    One-Electron Energy =                -339.0592720262946500
    Two-Electron Energy =                 109.6980778868144171
    Total Energy =                       -198.7743714863192963

Computation Completed


Properties will be evaluated at   0.000000,   0.000000,   0.000000 [a0]

Properties computed using the SCF density matrix

  Nuclear Dipole Moment: [e a0]
     X:     0.0000      Y:     0.0000      Z:    -0.0000

  Electronic Dipole Moment: [e a0]
     X:     0.0000      Y:     0.0000      Z:     0.0000

  Dipole Moment: [e a0]
     X:     0.0000      Y:     0.0000      Z:    -0.0000     Total:     0.0000

  Dipole Moment: [D]
     X:     0.0000      Y:     0.0000      Z:    -0.0000     Total:     0.0000


*** tstop() called on l48 at Tue Jan 26 16:17:22 2021
Module time:
	user time   =      47.97 seconds =       0.80 minutes
	system time =       3.37 seconds =       0.06 minutes
	total time  =         52 seconds =       0.87 minutes
Total time:
	user time   =      47.97 seconds =       0.80 minutes
	system time =       3.37 seconds =       0.06 minutes
	total time  =         52 seconds =       0.87 minutes

*** tstart() called on l48
*** at Tue Jan 26 16:17:22 2021


	Wfn Parameters:
	--------------------
	Wavefunction         = CCSD_T
	Number of irreps     = 8
	Number of MOs        = 254
	Number of active MOs = 252
	AO-Basis             = NONE
	Semicanonical        = false
	Reference            = RHF
	Print Level          = 1

	IRREP	# MOs	# FZDC	# DOCC	# SOCC	# VIRT	# FZVR
	-----	-----	------	------	------	------	------
	 Ag	   46	    1	    2	    0	    43	    0
	 B1g	   19	    0	    0	    0	    19	    0
	 B2g	   31	    0	    1	    0	    30	    0
	 B3g	   31	    0	    1	    0	    30	    0
	 Au	   19	    0	    0	    0	    19	    0
	 B1u	   46	    1	    1	    0	    44	    0
	 B2u	   31	    0	    1	    0	    30	    0
	 B3u	   31	    0	    1	    0	    30	    0
	Transforming integrals...
	IWL integrals will be deleted.
	(OO|OO)...
	Presorting SO-basis two-electron integrals.
	Sorting File: SO Ints (nn|nn) nbuckets = 1
	Constructing frozen core operators
	Starting first half-transformation.
	Sorting half-transformed integrals.
	First half integral transformation complete.
	Starting second half-transformation.
	Two-electron integral transformation complete.
	(OO|OV)...
	Starting second half-transformation.
	Two-electron integral transformation complete.
	(OO|VV)...
	Starting second half-transformation.
	Two-electron integral transformation complete.
	(OV|OO)...
	Starting first half-transformation.
	Sorting half-transformed integrals.
	First half integral transformation complete.
	Starting second half-transformation.
	Two-electron integral transformation complete.
	(OV|OV)...
	Starting second half-transformation.
	Two-electron integral transformation complete.
	(OV|VV)...
	Starting second half-transformation.
	Two-electron integral transformation complete.
	(VV|OO)...
	Starting first half-transformation.
	Sorting half-transformed integrals.
	First half integral transformation complete.
	Starting second half-transformation.
	Two-electron integral transformation complete.
	(VV|OV)...
	Starting second half-transformation.
	Two-electron integral transformation complete.
	(VV|VV)...
	Starting second half-transformation.
	Two-electron integral transformation complete.
	Frozen core energy     =   -163.04400169866284

	Size of irrep 0 of <ab|cd> integrals:     65.723 (MW) /    525.788 (MB)
	Size of irrep 1 of <ab|cd> integrals:     47.693 (MW) /    381.543 (MB)
	Size of irrep 2 of <ab|cd> integrals:     56.250 (MW) /    450.000 (MB)
	Size of irrep 3 of <ab|cd> integrals:     56.250 (MW) /    450.000 (MB)
	Size of irrep 4 of <ab|cd> integrals:     47.693 (MW) /    381.543 (MB)
	Size of irrep 5 of <ab|cd> integrals:     65.707 (MW) /    525.658 (MB)
	Size of irrep 6 of <ab|cd> integrals:     56.250 (MW) /    450.000 (MB)
	Size of irrep 7 of <ab|cd> integrals:     56.250 (MW) /    450.000 (MB)
	Total:                                   451.816 (MW) /   3614.531 (MB)

	Size of irrep 0 of <ia|bc> integrals:      2.027 (MW) /     16.214 (MB)
	Size of irrep 1 of <ia|bc> integrals:      1.222 (MW) /      9.779 (MB)
	Size of irrep 2 of <ia|bc> integrals:      1.613 (MW) /     12.900 (MB)
	Size of irrep 3 of <ia|bc> integrals:      1.613 (MW) /     12.900 (MB)
	Size of irrep 4 of <ia|bc> integrals:      1.222 (MW) /      9.779 (MB)
	Size of irrep 5 of <ia|bc> integrals:      2.035 (MW) /     16.277 (MB)
	Size of irrep 6 of <ia|bc> integrals:      1.613 (MW) /     12.900 (MB)
	Size of irrep 7 of <ia|bc> integrals:      1.613 (MW) /     12.900 (MB)
	Total:                                    12.956 (MW) /    103.649 (MB)

	Size of irrep 0 of tijab amplitudes:       0.073 (MW) /      0.584 (MB)
	Size of irrep 1 of tijab amplitudes:       0.028 (MW) /      0.221 (MB)
	Size of irrep 2 of tijab amplitudes:       0.045 (MW) /      0.360 (MB)
	Size of irrep 3 of tijab amplitudes:       0.045 (MW) /      0.360 (MB)
	Size of irrep 4 of tijab amplitudes:       0.028 (MW) /      0.221 (MB)
	Size of irrep 5 of tijab amplitudes:       0.065 (MW) /      0.519 (MB)
	Size of irrep 6 of tijab amplitudes:       0.045 (MW) /      0.360 (MB)
	Size of irrep 7 of tijab amplitudes:       0.045 (MW) /      0.360 (MB)
	Total:                                     0.373 (MW) /      2.984 (MB)

	Nuclear Rep. energy          =     30.58682265316093
	SCF energy                   =   -198.77437148631930
	One-electron energy          =   -118.67934543334498
	Two-electron energy          =     52.36215299252762
	Reference energy             =   -198.77437148631930

*** tstop() called on l48 at Tue Jan 26 16:18:07 2021
Module time:
	user time   =      25.12 seconds =       0.42 minutes
	system time =      19.75 seconds =       0.33 minutes
	total time  =         45 seconds =       0.75 minutes
Total time:
	user time   =      73.09 seconds =       1.22 minutes
	system time =      23.12 seconds =       0.39 minutes
	total time  =         97 seconds =       1.62 minutes
            **************************
            *                        *
            *        CCENERGY        *
            *                        *
            **************************

    Nuclear Rep. energy (wfn)     =   30.586822653160926
    SCF energy          (wfn)     = -198.774371486319296
    Reference energy    (file100) = -198.774371486319296

    Input parameters:
    -----------------
    Wave function   =     CCSD_T
    Reference wfn   =     RHF
    Brueckner       =     No
    Memory (Mbytes) =     250000.0
    Maxiter         =     50
    R_Convergence   =     1.0e-07
    E_Convergence   =     1.0e-06
    Restart         =     Yes
    DIIS            =     Yes
    AO Basis        =     NONE
    ABCD            =     NEW
    Cache Level     =     2
    Cache Type      =     LOW
    Print Level     =     1
    Num. of threads =     1
    # Amps to Print =     10
    Print MP2 Amps? =     No
    Analyze T2 Amps =     No
    Print Pair Ener =     No
    Local CC        =     No
    SCS-MP2         =     False
    SCSN-MP2        =     False
    SCS-CCSD        =     False

MP2 correlation energy -0.5914871086989051
                Solving CC Amplitude Equations
                ------------------------------
  Iter             Energy              RMS        T1Diag      D1Diag    New D1Diag    D2Diag
  ----     ---------------------    ---------   ----------  ----------  ----------   --------
     0        -0.591487108698905    0.000e+00    0.000000    0.000000    0.000000    0.184993
     1        -0.569917496503967    5.442e-02    0.010282    0.023579    0.023579    0.182996
     2        -0.583671843290002    2.510e-02    0.010111    0.023612    0.023612    0.199155
     3        -0.587528154883598    9.400e-03    0.011908    0.027440    0.027440    0.210033
     4        -0.587288382068752    1.952e-03    0.011979    0.027724    0.027724    0.211208
     5        -0.587387670566271    8.783e-04    0.012029    0.027775    0.027775    0.211842
     6        -0.587400273767685    3.501e-04    0.012018    0.027749    0.027749    0.211855
     7        -0.587390740737816    1.436e-04    0.012012    0.027734    0.027734    0.211843
     8        -0.587390096707630    4.749e-05    0.012013    0.027735    0.027735    0.211845
     9        -0.587390414984074    1.399e-05    0.012013    0.027736    0.027736    0.211844
    10        -0.587389490445473    4.827e-06    0.012013    0.027736    0.027736    0.211843
    11        -0.587389831033177    1.545e-06    0.012013    0.027736    0.027736    0.211843
    12        -0.587389777967285    4.375e-07    0.012013    0.027736    0.027736    0.211843
    13        -0.587389797046515    1.356e-07    0.012013    0.027736    0.027736    0.211843
    14        -0.587389800321629    2.930e-08    0.012013    0.027736    0.027736    0.211843

    Iterations converged.


    Largest TIA Amplitudes:
              1  10        -0.0179867013
              5 185        -0.0114456759
              6 215        -0.0114456759
              5 186        -0.0112934167
              6 216        -0.0112934167
              4 142        -0.0105419234
              1   3         0.0098686190
              1   9         0.0092075975
              5 187        -0.0091016290
              6 217        -0.0091016290

    Largest TIjAb Amplitudes:
      1   1 142 142        -0.0837360550
      1   1 141 142         0.0740184693
      1   1 142 141         0.0740184693
      1   1 141 141        -0.0660896666
      1   1 142 143         0.0335992678
      1   1 143 142         0.0335992678
      1   1 141 143        -0.0288998773
      1   1 143 141        -0.0288998773
      1   1 142 144        -0.0243891378
      1   1 144 142        -0.0243891378

    SCF energy       (wfn)                    = -198.774371486319296
    Reference energy (file100)                = -198.774371486319296

    Opposite-spin MP2 correlation energy      =   -0.449903187196052
    Same-spin MP2 correlation energy          =   -0.141583921502853
    Singles MP2 correlation energy            =   -0.000000000000000
    MP2 correlation energy                    =   -0.591487108698905
      * MP2 total energy                      = -199.365858595018210

    Opposite-spin CCSD correlation energy     =   -0.463490524549691
    Same-spin CCSD correlation energy         =   -0.123899275771939
    Singles CCSD correlation energy           =    0.000000000000000
    CCSD correlation energy                   =   -0.587389800321629
      * CCSD total energy                     = -199.361761286640927

            **************************
            *                        *
            *        CCTRIPLES       *
            *                        *
            **************************


    Wave function   =    CCSD_T
    Reference wfn   =      RHF

    Nuclear Rep. energy (wfn)                =   30.586822653160926
    SCF energy          (wfn)                = -198.774371486319296
    Reference energy    (file100)            = -198.774371486319296
    CCSD energy         (file100)            =   -0.587389800321629
    Total CCSD energy   (file100)            = -199.361761286640927

    Number of ijk index combinations:               84
    Memory available in words        :     31250000000
    ~Words needed per explicit thread:          340736
    Number of threads for explicit ijk threading:    1

    (T) energy                                =   -0.022060269053151
      * CCSD(T) total energy                  = -199.383821555694084


    Psi4 stopped on: Tuesday, 26 January 2021 04:18PM
    Psi4 wall time for execution: 0:02:25.89

*** Psi4 exiting successfully. Buy a developer a beer!
