
    -----------------------------------------------------------------------
          Psi4: An Open-Source Ab Initio Electronic Structure Package
                               Psi4 1.4a3.dev88 

                         Git: Rev {master} 262e345 


    D. G. A. Smith, L. A. Burns, A. C. Simmonett, R. M. Parrish,
    M. C. Schieber, R. Galvelis, P. Kraus, H. Kruse, R. Di Remigio,
    A. Alenaizan, A. M. James, S. Lehtola, J. P. Misiewicz, M. Scheurer,
    R. A. Shaw, J. B. Schriber, Y. Xie, Z. L. Glick, D. A. Sirianni,
    J. S. O'Brien, J. M. Waldrop, A. Kumar, E. G. Hohenstein,
    B. P. Pritchard, B. R. Brooks, H. F. Schaefer III, A. Yu. Sokolov,
    K. Patkowski, A. E. DePrince III, U. Bozkaya, R. A. King,
    F. A. Evangelista, J. M. Turney, T. D. Crawford, C. D. Sherrill,
    J. Chem. Phys. 152(18) 184108 (2020). https://doi.org/10.1063/5.0006002

                            Additional Code Authors
    E. T. Seidl, C. L. Janssen, E. F. Valeev, M. L. Leininger,
    J. F. Gonthier, R. M. Richard, H. R. McAlexander, M. Saitow, X. Wang,
    P. Verma, and M. H. Lechner

             Previous Authors, Complete List of Code Contributors,
                       and Citations for Specific Modules
    https://github.com/psi4/psi4/blob/master/codemeta.json
    https://github.com/psi4/psi4/graphs/contributors
    http://psicode.org/psi4manual/master/introduction.html#citing-psifour

    -----------------------------------------------------------------------


    Psi4 started on: Friday, 22 January 2021 09:52AM

    Process ID: 313756
    Host:       n412-047.vsc4.prov
    PSIDATADIR: /home/fs71337/gallo4/psi4/eri-6/psi4/build/stage/share/psi4
    Memory:     500.0 MiB
    Threads:    48
    
  ==> Input File <==

--------------------------------------------------------------------------
# Any line starting with the # character is a comment line
memory 250000 mb
molecule molecule{
0 1
F          0.0000000000        0.0000000000       -0.7006833392
F          0.0000000000        0.0000000000        0.7006833392
}

set {
  reference rhf
  basis aug-cc-pV(6+d)Z
  scf_type OUT_OF_CORE
  freeze_core true
}

energy('ccsd(t)')
--------------------------------------------------------------------------

  Memory set to 232.831 GiB by Python driver.

Scratch directory: /binfl/lv71337/airmler/temp/

*** tstart() called on n412-047.vsc4.prov
*** at Fri Jan 22 09:52:32 2021

   => Loading Basis Set <=

    Name: AUG-CC-PV(6+D)Z
    Role: ORBITAL
    Keyword: BASIS
    atoms 1-2 entry F          line   555 file /home/fs71337/gallo4/psi4/eri-6/psi4/build/stage/share/psi4/basis/aug-cc-pv_6pd_z.gbs 


         ---------------------------------------------------------
                                   SCF
               by Justin Turney, Rob Parrish, Andy Simmonett
                          and Daniel G. A. Smith
                              RHF Reference
                       48 Threads, 238418 MiB Core
         ---------------------------------------------------------

  ==> Geometry <==

    Molecular point group: d2h
    Full point group: D_inf_h

    Geometry (in Angstrom), charge = 0, multiplicity = 1:

       Center              X                  Y                   Z               Mass       
    ------------   -----------------  -----------------  -----------------  -----------------
         F            0.000000000000     0.000000000000    -0.700683339200    18.998403162730
         F            0.000000000000     0.000000000000     0.700683339200    18.998403162730

  Running in d2h symmetry.

  Rotational constants: A = ************  B =      0.90366  C =      0.90366 [cm^-1]
  Rotational constants: A = ************  B =  27091.09269  C =  27091.09269 [MHz]
  Nuclear repulsion =   30.586822653160926

  Charge       = 0
  Multiplicity = 1
  Electrons    = 18
  Nalpha       = 9
  Nbeta        = 9

  ==> Algorithm <==

  SCF Algorithm Type is OUT_OF_CORE.
  DIIS enabled.
  MOM disabled.
  Fractional occupation disabled.
  Guess Type is SAD.
  Energy threshold   = 1.00e-08
  Density threshold  = 1.00e-08
  Integral threshold = 1.00e-12

  ==> Primary Basis <==

  Basis Set: AUG-CC-PV(6+D)Z
    Blend: AUG-CC-PV(6+D)Z
    Number of shells: 70
    Number of basis function: 378
    Number of Cartesian functions: 588
    Spherical Harmonics?: true
    Max angular momentum: 6

  ==> Integral Setup <==

  ==> DiskJK: Disk-Based J/K Matrices <==

    J tasked:                  Yes
    K tasked:                  Yes
    wK tasked:                  No
    Memory [MiB]:           178813
    Schwarz Cutoff:          1E-12

  Minimum eigenvalue in the overlap matrix is 2.1700157068E-05.
  Reciprocal condition number of the overlap matrix is 3.4745646705E-06.
    Using symmetric orthogonalization.

  ==> Pre-Iterations <==

  SCF Guess: Superposition of Atomic Densities via on-the-fly atomic UHF (no occupation information).


 WARNING: Atomic UHF is not converging! Try casting from a smaller basis or call Rob at CCMST.
   -------------------------
    Irrep   Nso     Nmo    
   -------------------------
     Ag        66      66 
     B1g       31      31 
     B2g       46      46 
     B3g       46      46 
     Au        31      31 
     B1u       66      66 
     B2u       46      46 
     B3u       46      46 
   -------------------------
    Total     378     378
   -------------------------

  ==> Iterations <==

                        Total Energy        Delta E     RMS |[F,P]|

   @RHF iter SAD:    28.28764398995197    2.82876e+01   0.00000e+00 
    Occupation by irrep:
             Ag   B1g   B2g   B3g    Au   B1u   B2u   B3u 
    DOCC [     3,    0,    0,    1,    0,    3,    1,    1 ]

   @RHF iter   1:  -194.02692453429790   -2.22315e+02   3.44415e-02 DIIS
    Occupation by irrep:
             Ag   B1g   B2g   B3g    Au   B1u   B2u   B3u 
    DOCC [     3,    0,    1,    1,    0,    2,    1,    1 ]

   @RHF iter   2:  -191.51289120344148    2.51403e+00   2.70592e-02 DIIS
   @RHF iter   3:  -198.47158687306035   -6.95870e+00   7.22358e-03 DIIS
   @RHF iter   4:  -198.76935748493486   -2.97771e-01   8.13956e-04 DIIS
   @RHF iter   5:  -198.77466542591722   -5.30794e-03   1.02948e-04 DIIS
   @RHF iter   6:  -198.77474516823713   -7.97423e-05   3.03239e-05 DIIS
   @RHF iter   7:  -198.77475142022996   -6.25199e-06   5.64337e-06 DIIS
   @RHF iter   8:  -198.77475179073096   -3.70501e-07   6.18606e-07 DIIS
   @RHF iter   9:  -198.77475179435243   -3.62147e-09   6.51454e-08 DIIS
   @RHF iter  10:  -198.77475179439665   -4.42242e-11   6.14925e-09 DIIS
  Energy and wave function converged.


  ==> Post-Iterations <==

    Orbital Energies [Eh]
    ---------------------

    Doubly Occupied:                                                      

       1Ag   -26.427061     1B1u  -26.426808     2Ag    -1.769938  
       2B1u   -1.494614     1B3u   -0.813635     1B2u   -0.813635  
       3Ag    -0.755836     1B2g   -0.664860     1B3g   -0.664860  

    Virtual:                                                              

       3B1u    0.056310     4Ag     0.105920     2B3u    0.106252  
       2B2u    0.106252     4B1u    0.116051     2B2g    0.145784  
       2B3g    0.145784     5Ag     0.164679     5B1u    0.260634  
       6Ag     0.419514     1B1g    0.419514     3B3u    0.439658  
       3B2u    0.439658     7Ag     0.480375     3B2g    0.500251  
       3B3g    0.500251     6B1u    0.514405     8Ag     0.537736  
       4B3u    0.551486     4B2u    0.551486     7B1u    0.556766  
       1Au     0.556766     8B1u    0.599624     4B2g    0.632982  
       4B3g    0.632982     9Ag     0.818180     5B2u    1.023243  
       5B3u    1.023243    10Ag     1.158207     2B1g    1.158207  
       9B1u    1.212711     5B3g    1.247919     5B2g    1.247919  
       6B3u    1.266602     6B2u    1.266602    11Ag     1.302592  
       6B2g    1.325051     6B3g    1.325051    12Ag     1.326960  
       3B1g    1.326960    10B1u    1.332172     2Au     1.332172  
      11B1u    1.348239    13Ag     1.368742     7B3u    1.369569  
       7B2u    1.369569     7B2g    1.428920     7B3g    1.428920  
       8B3u    1.497982     8B2u    1.497982    12B1u    1.568030  
      13B1u    1.655719     3Au     1.655719    14Ag     2.152020  
       8B2g    2.271046     8B3g    2.271046    14B1u    2.327582  
      15Ag     2.466588     4B1g    2.466588     9B2u    2.552575  
       9B3u    2.552575    16Ag     2.554294     4Au     2.772621  
      15B1u    2.772621     5B1g    2.846378    17Ag     2.846378  
      10B3u    2.864669    10B2u    2.864669    11B2u    3.021086  
      11B3u    3.021086     5Au     3.042289    16B1u    3.042289  
       9B2g    3.045122     9B3g    3.045122    17B1u    3.068855  
      18Ag     3.076263    12B3u    3.095529    12B2u    3.095529  
      10B3g    3.109354    10B2g    3.109354     6B1g    3.158711  
      19Ag     3.158711    20Ag     3.175505    11B3g    3.322618  
      11B2g    3.322618    21Ag     3.351248     7B1g    3.351248  
      18B1u    3.449713     6Au     3.449713    19B1u    3.553551  
      12B2g    3.617222    12B3g    3.617222    13B3u    3.628709  
      13B2u    3.628709    22Ag     3.711723    13B2g    3.818635  
      13B3g    3.818635    20B1u    3.833443     7Au     4.234286  
      21B1u    4.234286    22B1u    4.257768    14B3u    4.376273  
      14B2u    4.376273    23Ag     4.925803    14B2g    5.256826  
      14B3g    5.256826    24Ag     5.475145     8B1g    5.475145  
      15B2u    5.667898    15B3u    5.667898    16B3u    5.757668  
      16B2u    5.757668    15B2g    5.899516    15B3g    5.899516  
      23B1u    6.173675     9B1g    6.185327    25Ag     6.185327  
      17B3u    6.342167    17B2u    6.342167    24B1u    6.385659  
       8Au     6.385659    26Ag     6.386103    27Ag     6.762041  
      10B1g    6.762041     9Au     6.779417    25B1u    6.779417  
      18B2u    6.779601    18B3u    6.779601    19B3u    6.858249  
      19B2u    6.858249    26B1u    6.885627    16B2g    6.906555  
      16B3g    6.906555    27B1u    6.923035    10Au     6.923035  
      17B2g    6.996200    17B3g    6.996200    11B1g    7.083967  
      28Ag     7.083967    29Ag     7.137362    20B2u    7.269777  
      20B3u    7.269777    18B3g    7.289769    18B2g    7.289769  
      30Ag     7.495783    19B2g    7.499799    19B3g    7.499799  
      12B1g    7.520996    31Ag     7.520996    11Au     7.620340  
      28B1u    7.620340    20B3g    7.622699    20B2g    7.622699  
      13B1g    7.796449    32Ag     7.796449    21B2u    7.840332  
      21B3u    7.840332    12Au     7.873328    29B1u    7.873328  
      30B1u    7.945091    33Ag     8.216956    21B3g    8.284375  
      21B2g    8.284375    31B1u    8.368330    32B1u    9.027859  
      13Au     9.302023    33B1u    9.302023    22B3u    9.305687  
      22B2u    9.305687    34Ag     9.340724    22B3g    9.343268  
      22B2g    9.343268    23B2u    9.537202    23B3u    9.537202  
      34B1u   10.316503    35Ag    11.507387    14B1g   11.507387  
      36Ag    11.560023    24B3u   11.635110    24B2u   11.635110  
      23B3g   11.679412    23B2g   11.679412    25B2u   11.829626  
      25B3u   11.829626    37Ag    12.051757    15B1g   12.051757  
      35B1u   12.106076    14Au    12.106076    16B1g   12.209871  
      38Ag    12.209871    24B3g   12.309147    24B2g   12.309147  
      26B2u   12.674858    26B3u   12.674858    36B1u   13.018105  
      15Au    13.018105    39Ag    13.110116    37B1u   13.436783  
      17B1g   13.869558    40Ag    13.869558    27B2u   13.933501  
      27B3u   13.933501    25B2g   14.041051    25B3g   14.041051  
      26B2g   14.121161    26B3g   14.121161    28B3u   14.160410  
      28B2u   14.160410    27B2g   14.230971    27B3g   14.230971  
      38B1u   14.287688    16Au    14.287688    17Au    14.409302  
      39B1u   14.409302    29B2u   14.570036    29B3u   14.570036  
      41Ag    14.756282    28B2g   14.781225    28B3g   14.781225  
      40B1u   14.894793    18B1g   14.965247    42Ag    14.965247  
      18Au    15.193860    41B1u   15.193860    42B1u   15.447771  
      29B3g   15.553465    29B2g   15.553465    30B3u   16.325945  
      30B2u   16.325945    43Ag    16.359758    19B1g   16.359758  
      20B1g   16.447755    44Ag    16.447755    19Au    16.467020  
      43B1u   16.467020    31B3u   16.663197    31B2u   16.663197  
      30B2g   16.766422    30B3g   16.766422    31B3g   16.800046  
      31B2g   16.800046    32B2u   16.815449    32B3u   16.815449  
      32B2g   16.875670    32B3g   16.875670    21B1g   17.004693  
      45Ag    17.004693    46Ag    17.011149    20Au    17.236502  
      44B1u   17.236502    47Ag    17.276355    45B1u   17.522597  
      21Au    17.827254    46B1u   17.827254    33B2u   18.011474  
      33B3u   18.011474    22B1g   18.134103    48Ag    18.134103  
      33B3g   18.745582    33B2g   18.745582    47B1u   18.995230  
      22Au    19.397796    48B1u   19.397796    34B2u   19.511199  
      34B3u   19.511199    49Ag    20.499856    34B3g   21.875442  
      34B2g   21.875442    49B1u   22.654765    50Ag    26.204074  
      50B1u   27.150041    35B2u   27.845037    35B3u   27.845037  
      35B3g   28.923117    35B2g   28.923117    51Ag    29.052630  
      23B1g   29.052630    36B2u   29.160817    36B3u   29.160817  
      24B1g   29.282845    52Ag    29.282845    51B1u   29.309144  
      23Au    29.309144    37B3u   29.357665    37B2u   29.357665  
      36B3g   29.383555    36B2g   29.383555    53Ag    29.527032  
      52B1u   29.695215    24Au    29.695215    53B1u   29.786580  
      37B3g   29.943887    37B2g   29.943887    25B1g   30.203308  
      54Ag    30.203308    38B2g   30.209217    38B3g   30.209217  
      25Au    30.228975    54B1u   30.228975    38B2u   30.536985  
      38B3u   30.536985    55Ag    31.198657    55B1u   31.427133  
      56Ag    34.863921    26B1g   34.863921    39B3u   34.917315  
      39B2u   34.917315    40B2u   34.932428    40B3u   34.932428  
      39B2g   34.985688    39B3g   34.985688    41B2u   35.041576  
      41B3u   35.041576    26Au    35.071131    56B1u   35.071131  
      27B1g   35.085512    57Ag    35.085512    58Ag    35.200682  
      40B2g   35.307628    40B3g   35.307628    27Au    35.646444  
      57B1u   35.646444    58B1u   35.738782    41B3g   36.044469  
      41B2g   36.044469    42B3u   39.144746    42B2u   39.144746  
      28B1g   39.183167    59Ag    39.183167    42B2g   39.227109  
      42B3g   39.227109    43B2u   39.604426    43B3u   39.604426  
      59B1u   39.605232    28Au    39.605232    60Ag    39.862945  
      44B3u   40.150195    44B2u   40.150195    61Ag    40.190249  
      29B1g   40.190249    29Au    40.253926    60B1u   40.253926  
      62Ag    40.311127    30B1g   40.311127    43B2g   40.400099  
      43B3g   40.400099    44B3g   40.484096    44B2g   40.484096  
      61B1u   40.790475    63Ag    40.843547    62B1u   41.060446  
      30Au    41.060446    45B2u   41.256714    45B3u   41.256714  
      45B3g   41.383764    45B2g   41.383764    63B1u   42.788094  
      64Ag    43.915263    31B1g   43.915263    64B1u   44.235988  
      31Au    44.235988    46B2u   44.344916    46B3u   44.344916  
      46B3g   45.965158    46B2g   45.965158    65Ag    46.120364  
      65B1u   46.473671    66Ag   129.895144    66B1u  130.252150  

    Final Occupation by Irrep:
             Ag   B1g   B2g   B3g    Au   B1u   B2u   B3u 
    DOCC [     3,    0,    1,    1,    0,    2,    1,    1 ]

  @RHF Final Energy:  -198.77475179439665

   => Energetics <=

    Nuclear Repulsion Energy =             30.5868226531609260
    One-Electron Energy =                -339.0606545756899664
    Two-Electron Energy =                 109.6990801281323655
    Total Energy =                       -198.7747517943966500

Computation Completed


Properties will be evaluated at   0.000000,   0.000000,   0.000000 [a0]

Properties computed using the SCF density matrix

  Nuclear Dipole Moment: [e a0]
     X:     0.0000      Y:     0.0000      Z:    -0.0000

  Electronic Dipole Moment: [e a0]
     X:     0.0000      Y:     0.0000      Z:     0.0000

  Dipole Moment: [e a0]
     X:     0.0000      Y:     0.0000      Z:    -0.0000     Total:     0.0000

  Dipole Moment: [D]
     X:     0.0000      Y:     0.0000      Z:    -0.0000     Total:     0.0000


*** tstop() called on n412-047.vsc4.prov at Fri Jan 22 10:02:12 2021
Module time:
	user time   =     526.55 seconds =       8.78 minutes
	system time =      29.35 seconds =       0.49 minutes
	total time  =        580 seconds =       9.67 minutes
Total time:
	user time   =     526.55 seconds =       8.78 minutes
	system time =      29.35 seconds =       0.49 minutes
	total time  =        580 seconds =       9.67 minutes

*** tstart() called on n412-047.vsc4.prov
*** at Fri Jan 22 10:02:12 2021


	Wfn Parameters:
	--------------------
	Wavefunction         = CCSD_T
	Number of irreps     = 8
	Number of MOs        = 378
	Number of active MOs = 376
	AO-Basis             = NONE
	Semicanonical        = false
	Reference            = RHF
	Print Level          = 1

	IRREP	# MOs	# FZDC	# DOCC	# SOCC	# VIRT	# FZVR
	-----	-----	------	------	------	------	------
	 Ag	   66	    1	    2	    0	    63	    0
	 B1g	   31	    0	    0	    0	    31	    0
	 B2g	   46	    0	    1	    0	    45	    0
	 B3g	   46	    0	    1	    0	    45	    0
	 Au	   31	    0	    0	    0	    31	    0
	 B1u	   66	    1	    1	    0	    64	    0
	 B2u	   46	    0	    1	    0	    45	    0
	 B3u	   46	    0	    1	    0	    45	    0
	Transforming integrals...
	IWL integrals will be deleted.
	(OO|OO)...
	Presorting SO-basis two-electron integrals.
	Sorting File: SO Ints (nn|nn) nbuckets = 1
	Constructing frozen core operators
	Starting first half-transformation.
	Sorting half-transformed integrals.
	First half integral transformation complete.
	Starting second half-transformation.
	Two-electron integral transformation complete.
	(OO|OV)...
	Starting second half-transformation.
	Two-electron integral transformation complete.
	(OO|VV)...
	Starting second half-transformation.
	Two-electron integral transformation complete.
	(OV|OO)...
	Starting first half-transformation.
	Sorting half-transformed integrals.
	First half integral transformation complete.
	Starting second half-transformation.
	Two-electron integral transformation complete.
	(OV|OV)...
	Starting second half-transformation.
	Two-electron integral transformation complete.
	(OV|VV)...
	Starting second half-transformation.
	Two-electron integral transformation complete.
	(VV|OO)...
	Starting first half-transformation.
	Sorting half-transformed integrals.
	First half integral transformation complete.
	Starting second half-transformation.
	Two-electron integral transformation complete.
	(VV|OV)...
	Starting second half-transformation.
	Two-electron integral transformation complete.
	(VV|VV)...
	Starting second half-transformation.
	Two-electron integral transformation complete.
	Frozen core energy     =   -163.04408531878934

	Size of irrep 0 of <ab|cd> integrals:    327.140 (MW) /   2617.117 (MB)
	Size of irrep 1 of <ab|cd> integrals:    255.169 (MW) /   2041.349 (MB)
	Size of irrep 2 of <ab|cd> integrals:    289.340 (MW) /   2314.721 (MB)
	Size of irrep 3 of <ab|cd> integrals:    289.340 (MW) /   2314.721 (MB)
	Size of irrep 4 of <ab|cd> integrals:    255.169 (MW) /   2041.349 (MB)
	Size of irrep 5 of <ab|cd> integrals:    327.103 (MW) /   2616.827 (MB)
	Size of irrep 6 of <ab|cd> integrals:    289.340 (MW) /   2314.721 (MB)
	Size of irrep 7 of <ab|cd> integrals:    289.340 (MW) /   2314.721 (MB)
	Total:                                  2321.941 (MW) /  18575.526 (MB)

	Size of irrep 0 of <ia|bc> integrals:      6.692 (MW) /     53.538 (MB)
	Size of irrep 1 of <ia|bc> integrals:      4.361 (MW) /     34.887 (MB)
	Size of irrep 2 of <ia|bc> integrals:      5.511 (MW) /     44.090 (MB)
	Size of irrep 3 of <ia|bc> integrals:      5.511 (MW) /     44.090 (MB)
	Size of irrep 4 of <ia|bc> integrals:      4.361 (MW) /     34.887 (MB)
	Size of irrep 5 of <ia|bc> integrals:      6.710 (MW) /     53.679 (MB)
	Size of irrep 6 of <ia|bc> integrals:      5.511 (MW) /     44.090 (MB)
	Size of irrep 7 of <ia|bc> integrals:      5.511 (MW) /     44.090 (MB)
	Total:                                    44.169 (MW) /    353.351 (MB)

	Size of irrep 0 of tijab amplitudes:       0.163 (MW) /      1.302 (MB)
	Size of irrep 1 of tijab amplitudes:       0.064 (MW) /      0.511 (MB)
	Size of irrep 2 of tijab amplitudes:       0.102 (MW) /      0.816 (MB)
	Size of irrep 3 of tijab amplitudes:       0.102 (MW) /      0.816 (MB)
	Size of irrep 4 of tijab amplitudes:       0.064 (MW) /      0.511 (MB)
	Size of irrep 5 of tijab amplitudes:       0.145 (MW) /      1.158 (MB)
	Size of irrep 6 of tijab amplitudes:       0.102 (MW) /      0.816 (MB)
	Size of irrep 7 of tijab amplitudes:       0.102 (MW) /      0.816 (MB)
	Total:                                     0.844 (MW) /      6.748 (MB)

	Nuclear Rep. energy          =     30.58682265316093
	SCF energy                   =   -198.77475179439665
	One-electron energy          =   -118.68022357627018
	Two-electron energy          =     52.36273444750186
	Reference energy             =   -198.77475179439676

*** tstop() called on n412-047.vsc4.prov at Fri Jan 22 10:09:10 2021
Module time:
	user time   =     124.41 seconds =       2.07 minutes
	system time =      89.67 seconds =       1.49 minutes
	total time  =        418 seconds =       6.97 minutes
Total time:
	user time   =     650.96 seconds =      10.85 minutes
	system time =     119.02 seconds =       1.98 minutes
	total time  =        998 seconds =      16.63 minutes
            **************************
            *                        *
            *        CCENERGY        *
            *                        *
            **************************

    Nuclear Rep. energy (wfn)     =   30.586822653160926
    SCF energy          (wfn)     = -198.774751794396650
    Reference energy    (file100) = -198.774751794396764

    Input parameters:
    -----------------
    Wave function   =     CCSD_T
    Reference wfn   =     RHF
    Brueckner       =     No
    Memory (Mbytes) =     250000.0
    Maxiter         =     50
    R_Convergence   =     1.0e-07
    E_Convergence   =     1.0e-06
    Restart         =     Yes
    DIIS            =     Yes
    AO Basis        =     NONE
    ABCD            =     NEW
    Cache Level     =     2
    Cache Type      =     LOW
    Print Level     =     1
    Num. of threads =     48
    # Amps to Print =     10
    Print MP2 Amps? =     No
    Analyze T2 Amps =     No
    Print Pair Ener =     No
    Local CC        =     No
    SCS-MP2         =     False
    SCSN-MP2        =     False
    SCS-CCSD        =     False

MP2 correlation energy -0.5991498454909384
                Solving CC Amplitude Equations
                ------------------------------
  Iter             Energy              RMS        T1Diag      D1Diag    New D1Diag    D2Diag
  ----     ---------------------    ---------   ----------  ----------  ----------   --------
     0        -0.599149845490938    0.000e+00    0.000000    0.000000    0.000000    0.185064
     1        -0.575330971038469    5.430e-02    0.010230    0.023701    0.023701    0.182679
     2        -0.589186556897146    2.519e-02    0.010039    0.023667    0.023667    0.198817
     3        -0.593108301402850    9.406e-03    0.011834    0.027499    0.027499    0.209743
     4        -0.592840541363517    1.937e-03    0.011902    0.027776    0.027776    0.210882
     5        -0.592939349692190    8.767e-04    0.011952    0.027826    0.027826    0.211514
     6        -0.592954974207789    3.489e-04    0.011942    0.027802    0.027802    0.211532
     7        -0.592944539281087    1.480e-04    0.011936    0.027786    0.027786    0.211517
     8        -0.592943751161786    4.852e-05    0.011937    0.027788    0.027788    0.211520
     9        -0.592944250688351    1.443e-05    0.011937    0.027789    0.027789    0.211518
    10        -0.592943177817994    5.128e-06    0.011937    0.027789    0.027789    0.211517
    11        -0.592943540646832    1.589e-06    0.011937    0.027789    0.027789    0.211518
    12        -0.592943476518230    4.784e-07    0.011937    0.027789    0.027789    0.211518
    13        -0.592943492549800    1.492e-07    0.011937    0.027789    0.027789    0.211518
    14        -0.592943498020147    3.555e-08    0.011937    0.027789    0.027789    0.211518

    Iterations converged.


    Largest TIA Amplitudes:
              1  10        -0.0166715399
              6 325        -0.0129331532
              5 280        -0.0129331521
              1  18         0.0115087082
              1   7         0.0111153357
              4 216         0.0108342265
              1   3         0.0103903259
              5 279        -0.0096805873
              6 324        -0.0096805861
              3 140        -0.0076766888

    Largest TIjAb Amplitudes:
      1   1 216 216        -0.0919584903
      1   1 215 216         0.0691057503
      1   1 216 215         0.0691057503
      1   1 215 215        -0.0523478987
      1   1 216 217         0.0379500100
      1   1 217 216         0.0379500100
      1   1 216 218         0.0291180494
      1   1 218 216         0.0291180494
      1   1 215 217        -0.0279473290
      1   1 217 215        -0.0279473290

    SCF energy       (wfn)                    = -198.774751794396650
    Reference energy (file100)                = -198.774751794396764

    Opposite-spin MP2 correlation energy      =   -0.457024620498593
    Same-spin MP2 correlation energy          =   -0.142125224992346
    Singles MP2 correlation energy            =   -0.000000000000000
    MP2 correlation energy                    =   -0.599149845490938
      * MP2 total energy                      = -199.373901639887691

    Opposite-spin CCSD correlation energy     =   -0.468600393767353
    Same-spin CCSD correlation energy         =   -0.124343104252794
    Singles CCSD correlation energy           =    0.000000000000000
    CCSD correlation energy                   =   -0.592943498020147
      * CCSD total energy                     = -199.367695292416897

            **************************
            *                        *
            *        CCTRIPLES       *
            *                        *
            **************************


    Wave function   =    CCSD_T
    Reference wfn   =      RHF

    Nuclear Rep. energy (wfn)                =   30.586822653160926
    SCF energy          (wfn)                = -198.774751794396650
    Reference energy    (file100)            = -198.774751794396764
    CCSD energy         (file100)            =   -0.592943498020147
    Total CCSD energy   (file100)            = -199.367695292416897

    Number of ijk index combinations:               84
    Memory available in words        :     31250000000
    ~Words needed per explicit thread:         1048576
    Number of threads for explicit ijk threading:   48

    (T) energy                                =   -0.022322565822172
      * CCSD(T) total energy                  = -199.390017858239077


    Psi4 stopped on: Friday, 22 January 2021 10:14AM
    Psi4 wall time for execution: 0:22:03.45

*** Psi4 exiting successfully. Buy a developer a beer!
