
    -----------------------------------------------------------------------
          Psi4: An Open-Source Ab Initio Electronic Structure Package
                               Psi4 1.4a3.dev88 

                         Git: Rev {master} 262e345 


    D. G. A. Smith, L. A. Burns, A. C. Simmonett, R. M. Parrish,
    M. C. Schieber, R. Galvelis, P. Kraus, H. Kruse, R. Di Remigio,
    A. Alenaizan, A. M. James, S. Lehtola, J. P. Misiewicz, M. Scheurer,
    R. A. Shaw, J. B. Schriber, Y. Xie, Z. L. Glick, D. A. Sirianni,
    J. S. O'Brien, J. M. Waldrop, A. Kumar, E. G. Hohenstein,
    B. P. Pritchard, B. R. Brooks, H. F. Schaefer III, A. Yu. Sokolov,
    K. Patkowski, A. E. DePrince III, U. Bozkaya, R. A. King,
    F. A. Evangelista, J. M. Turney, T. D. Crawford, C. D. Sherrill,
    J. Chem. Phys. 152(18) 184108 (2020). https://doi.org/10.1063/5.0006002

                            Additional Code Authors
    E. T. Seidl, C. L. Janssen, E. F. Valeev, M. L. Leininger,
    J. F. Gonthier, R. M. Richard, H. R. McAlexander, M. Saitow, X. Wang,
    P. Verma, and M. H. Lechner

             Previous Authors, Complete List of Code Contributors,
                       and Citations for Specific Modules
    https://github.com/psi4/psi4/blob/master/codemeta.json
    https://github.com/psi4/psi4/graphs/contributors
    http://psicode.org/psi4manual/master/introduction.html#citing-psifour

    -----------------------------------------------------------------------


    Psi4 started on: Friday, 29 January 2021 03:27PM

    Process ID: 82289
    Host:       l40
    PSIDATADIR: /home/fs71337/gallo4/psi4/eri-6/psi4/build/stage/share/psi4
    Memory:     500.0 MiB
    Threads:    1
    
  ==> Input File <==

--------------------------------------------------------------------------
# Any line starting with the # character is a comment line
memory 250000 mb
molecule molecule{
0 1
C          0.0000000000        0.0000000000        0.5128013035
O          0.0000000000        0.0000000000        1.6988856423
Cl         1.4380172470        0.0000000000       -0.4631957958
Cl        -1.4380172470        0.0000000000       -0.4631957958
}

set {
  reference rhf
  basis aug-cc-pV(t+d)Z
  scf_type OUT_OF_CORE
  freeze_core true
}

energy('ccsd(t)')
--------------------------------------------------------------------------

  Memory set to 232.831 GiB by Python driver.

Scratch directory: /tmp/

*** tstart() called on l40
*** at Fri Jan 29 15:27:58 2021

   => Loading Basis Set <=

    Name: AUG-CC-PV(T+D)Z
    Role: ORBITAL
    Keyword: BASIS
    atoms 1   entry C          line   267 file /home/fs71337/gallo4/psi4/eri-6/psi4/build/stage/share/psi4/basis/aug-cc-pv_tpd_z.gbs 
    atoms 2   entry O          line   359 file /home/fs71337/gallo4/psi4/eri-6/psi4/build/stage/share/psi4/basis/aug-cc-pv_tpd_z.gbs 
    atoms 3-4 entry CL         line  1028 file /home/fs71337/gallo4/psi4/eri-6/psi4/build/stage/share/psi4/basis/aug-cc-pv_tpd_z.gbs 


         ---------------------------------------------------------
                                   SCF
               by Justin Turney, Rob Parrish, Andy Simmonett
                          and Daniel G. A. Smith
                              RHF Reference
                        1 Threads, 238418 MiB Core
         ---------------------------------------------------------

  ==> Geometry <==

    Molecular point group: c2v
    Full point group: C2v

    Geometry (in Angstrom), charge = 0, multiplicity = 1:

       Center              X                  Y                   Z               Mass       
    ------------   -----------------  -----------------  -----------------  -----------------
         C            0.000000000000     0.000000000000     0.503281540354    12.000000000000
         O            0.000000000000     0.000000000000     1.689365879154    15.994914619570
         CL           1.438017247000     0.000000000000    -0.472715558946    34.968852682000
         CL          -1.438017247000    -0.000000000000    -0.472715558946    34.968852682000

  Running in c2v symmetry.

  Rotational constants: A =      0.26210  B =      0.11656  C =      0.08068 [cm^-1]
  Rotational constants: A =   7857.67765  B =   3494.44034  C =   2418.77206 [MHz]
  Nuclear repulsion =  192.136737398361191

  Charge       = 0
  Multiplicity = 1
  Electrons    = 48
  Nalpha       = 24
  Nbeta        = 24

  ==> Algorithm <==

  SCF Algorithm Type is OUT_OF_CORE.
  DIIS enabled.
  MOM disabled.
  Fractional occupation disabled.
  Guess Type is SAD.
  Energy threshold   = 1.00e-08
  Density threshold  = 1.00e-08
  Integral threshold = 1.00e-12

  ==> Primary Basis <==

  Basis Set: AUG-CC-PV(T+D)Z
    Blend: AUG-CC-PV(T+D)Z
    Number of shells: 62
    Number of basis function: 202
    Number of Cartesian functions: 240
    Spherical Harmonics?: true
    Max angular momentum: 3

  ==> Integral Setup <==

  ==> DiskJK: Disk-Based J/K Matrices <==

    J tasked:                  Yes
    K tasked:                  Yes
    wK tasked:                  No
    Memory [MiB]:           178813
    Schwarz Cutoff:          1E-12

  Minimum eigenvalue in the overlap matrix is 1.3301069737E-04.
  Reciprocal condition number of the overlap matrix is 1.8633231593E-05.
    Using symmetric orthogonalization.

  ==> Pre-Iterations <==

  SCF Guess: Superposition of Atomic Densities via on-the-fly atomic UHF (no occupation information).

   -------------------------
    Irrep   Nso     Nmo    
   -------------------------
     A1        74      74 
     A2        29      29 
     B1        58      58 
     B2        41      41 
   -------------------------
    Total     202     202
   -------------------------

  ==> Iterations <==

                        Total Energy        Delta E     RMS |[F,P]|

   @RHF iter SAD: -1031.38238964363336   -1.03138e+03   0.00000e+00 
   @RHF iter   1: -1031.67456156167032   -2.92172e-01   5.15967e-03 DIIS
   @RHF iter   2: -1031.71001336877816   -3.54518e-02   4.85902e-03 DIIS
   @RHF iter   3: -1031.80141009993963   -9.13967e-02   3.65692e-04 DIIS
   @RHF iter   4: -1031.80361346634982   -2.20337e-03   1.58021e-04 DIIS
   @RHF iter   5: -1031.80407593746145   -4.62471e-04   6.54798e-05 DIIS
   @RHF iter   6: -1031.80415500919912   -7.90717e-05   2.87414e-05 DIIS
   @RHF iter   7: -1031.80416651664382   -1.15074e-05   1.12640e-05 DIIS
   @RHF iter   8: -1031.80416851576751   -1.99912e-06   3.09828e-06 DIIS
   @RHF iter   9: -1031.80416869625833   -1.80491e-07   7.10403e-07 DIIS
   @RHF iter  10: -1031.80416870361933   -7.36100e-09   1.83242e-07 DIIS
   @RHF iter  11: -1031.80416870416821   -5.48880e-10   4.20357e-08 DIIS
   @RHF iter  12: -1031.80416870419208   -2.38742e-11   8.46032e-09 DIIS
  Energy and wave function converged.


  ==> Post-Iterations <==

    Orbital Energies [Eh]
    ---------------------

    Doubly Occupied:                                                      

       1B1  -104.890480     1A1  -104.890480     2A1   -20.622116  
       3A1   -11.475878     2B1   -10.614927     4A1   -10.614912  
       3B1    -8.081773     5A1    -8.081770     1A2    -8.079596  
       1B2    -8.079592     4B1    -8.079413     6A1    -8.079412  
       7A1    -1.478938     8A1    -1.205511     5B1    -1.141343  
       9A1    -0.812689     6B1    -0.706419    10A1    -0.700419  
       2B2    -0.646349    11A1    -0.532178     2A2    -0.501977  
       3B2    -0.498049     7B1    -0.495712     8B1    -0.476691  

    Virtual:                                                              

      12A1     0.047745     9B1     0.065678    13A1     0.079824  
       4B2     0.084387     5B2     0.092333    14A1     0.098295  
      10B1     0.113329    15A1     0.124285     3A2     0.127126  
       6B2     0.134051    16A1     0.157007    11B1     0.158042  
      12B1     0.220367    17A1     0.222545     7B2     0.236904  
      18A1     0.238916    13B1     0.252227    14B1     0.259125  
      19A1     0.279476     8B2     0.296905    20A1     0.305339  
       4A2     0.313442    21A1     0.353439    15B1     0.386312  
       5A2     0.426024    16B1     0.430564    22A1     0.436251  
       9B2     0.446670     6A2     0.462330    23A1     0.473350  
      24A1     0.507692    10B2     0.509540    17B1     0.513555  
      11B2     0.519985    18B1     0.540337    25A1     0.616275  
      19B1     0.641311    26A1     0.690170     7A2     0.696632  
      12B2     0.712275    27A1     0.712363    28A1     0.738035  
      20B1     0.754662     8A2     0.777081    13B2     0.785963  
      29A1     0.798434    21B1     0.807326    30A1     0.829751  
      14B2     0.843528    22B1     0.859541    31A1     0.859835  
       9A2     0.863055    23B1     0.892954    15B2     0.896182  
      32A1     0.934947    10A2     0.936457    24B1     0.952869  
      33A1     1.015154    25B1     1.022900    34A1     1.070879  
      16B2     1.083586    35A1     1.101529    11A2     1.138108  
      26B1     1.157042    17B2     1.165141    12A2     1.212951  
      18B2     1.232361    36A1     1.240671    27B1     1.265601  
      37A1     1.335040    19B2     1.367898    38A1     1.393105  
      28B1     1.421528    29B1     1.462426    39A1     1.468204  
      13A2     1.469837    20B2     1.470650    40A1     1.556355  
      30B1     1.574458    14A2     1.611305    21B2     1.664033  
      31B1     1.677075    41A1     1.677392    32B1     1.713690  
      15A2     1.780905    33B1     1.797848    22B2     1.804833  
      42A1     1.812610    43A1     1.822071    44A1     1.969551  
      34B1     2.060006    23B2     2.236479    35B1     2.249781  
      16A2     2.287881    45A1     2.292752    24B2     2.326620  
      46A1     2.326682    36B1     2.335064    25B2     2.384679  
      17A2     2.394704    47A1     2.419953    18A2     2.427623  
      48A1     2.457605    37B1     2.458057    26B2     2.513427  
      38B1     2.529440    49A1     2.534753    27B2     2.626152  
      50A1     2.687066    39B1     2.706555    51A1     2.739413  
      19A2     2.789262    40B1     2.870047    20A2     2.878954  
      52A1     2.890237    41B1     2.908414    28B2     2.946063  
      29B2     2.963447    53A1     2.989126    21A2     3.021568  
      30B2     3.023033    54A1     3.052845    42B1     3.064313  
      55A1     3.069660    31B2     3.075453    43B1     3.092324  
      22A2     3.128183    32B2     3.146809    23A2     3.197504  
      44B1     3.209936    56A1     3.240703    45B1     3.253162  
      57A1     3.514548    46B1     3.520935    58A1     3.592194  
      33B2     3.627475    47B1     3.631523    24A2     3.699108  
      34B2     3.821902    59A1     3.826091    25A2     3.949977  
      60A1     3.958258    48B1     4.019307    35B2     4.149330  
      61A1     4.177576    49B1     4.427353    62A1     4.481837  
      63A1     4.611478    50B1     4.749265    36B2     5.103727  
      51B1     5.447647    64A1     5.623676    52B1     6.564361  
      37B2     6.578460    26A2     6.861830    65A1     6.865852  
      66A1     6.995350    38B2     7.039296    53B1     7.107588  
      67A1     7.170060    27A2     7.187307    54B1     7.257422  
      68A1     7.473763    39B2     7.507624    55B1     7.662716  
      69A1     7.710332    28A2     8.782366    40B2     8.798554  
      56B1     8.799287    70A1     8.800723    29A2     8.853970  
      41B2     8.861215    71A1     8.886654    57B1     8.977493  
      58B1     9.077581    72A1     9.140127    73A1    13.264221  
      74A1    15.605395  

    Final Occupation by Irrep:
             A1    A2    B1    B2 
    DOCC [    11,    2,    8,    3 ]

  @RHF Final Energy: -1031.80416870419208

   => Energetics <=

    Nuclear Repulsion Energy =            192.1367373983611913
    One-Electron Energy =               -1806.3085629930014875
    Two-Electron Energy =                 582.3676568904483020
    Total Energy =                      -1031.8041687041918522

Computation Completed


Properties will be evaluated at   0.000000,   0.000000,   0.000000 [a0]

Properties computed using the SCF density matrix

  Nuclear Dipole Moment: [e a0]
     X:     0.0000      Y:    -0.0000      Z:     0.8736

  Electronic Dipole Moment: [e a0]
     X:     0.0000      Y:     0.0000      Z:    -1.5159

  Dipole Moment: [e a0]
     X:     0.0000      Y:    -0.0000      Z:    -0.6423     Total:     0.6423

  Dipole Moment: [D]
     X:     0.0000      Y:    -0.0000      Z:    -1.6325     Total:     1.6325


*** tstop() called on l40 at Fri Jan 29 15:28:29 2021
Module time:
	user time   =      27.71 seconds =       0.46 minutes
	system time =       3.86 seconds =       0.06 minutes
	total time  =         31 seconds =       0.52 minutes
Total time:
	user time   =      27.71 seconds =       0.46 minutes
	system time =       3.86 seconds =       0.06 minutes
	total time  =         31 seconds =       0.52 minutes

*** tstart() called on l40
*** at Fri Jan 29 15:28:29 2021


	Wfn Parameters:
	--------------------
	Wavefunction         = CCSD_T
	Number of irreps     = 4
	Number of MOs        = 202
	Number of active MOs = 190
	AO-Basis             = NONE
	Semicanonical        = false
	Reference            = RHF
	Print Level          = 1

	IRREP	# MOs	# FZDC	# DOCC	# SOCC	# VIRT	# FZVR
	-----	-----	------	------	------	------	------
	 A1	   74	    6	    5	    0	    63	    0
	 A2	   29	    1	    1	    0	    27	    0
	 B1	   58	    4	    4	    0	    50	    0
	 B2	   41	    1	    2	    0	    38	    0
	Transforming integrals...
	IWL integrals will be deleted.
	(OO|OO)...
	Presorting SO-basis two-electron integrals.
	Sorting File: SO Ints (nn|nn) nbuckets = 1
	Constructing frozen core operators
	Starting first half-transformation.
	Sorting half-transformed integrals.
	First half integral transformation complete.
	Starting second half-transformation.
	Two-electron integral transformation complete.
	(OO|OV)...
	Starting second half-transformation.
	Two-electron integral transformation complete.
	(OO|VV)...
	Starting second half-transformation.
	Two-electron integral transformation complete.
	(OV|OO)...
	Starting first half-transformation.
	Sorting half-transformed integrals.
	First half integral transformation complete.
	Starting second half-transformation.
	Two-electron integral transformation complete.
	(OV|OV)...
	Starting second half-transformation.
	Two-electron integral transformation complete.
	(OV|VV)...
	Starting second half-transformation.
	Two-electron integral transformation complete.
	(VV|OO)...
	Starting first half-transformation.
	Sorting half-transformed integrals.
	First half integral transformation complete.
	Starting second half-transformation.
	Two-electron integral transformation complete.
	(VV|OV)...
	Starting second half-transformation.
	Two-electron integral transformation complete.
	(VV|VV)...
	Starting second half-transformation.
	Two-electron integral transformation complete.
	Frozen core energy     =  -1119.20061271431064

	Size of irrep 0 of <ab|cd> integrals:     74.684 (MW) /    597.473 (MB)
	Size of irrep 1 of <ab|cd> integrals:     51.869 (MW) /    414.950 (MB)
	Size of irrep 2 of <ab|cd> integrals:     69.756 (MW) /    558.047 (MB)
	Size of irrep 3 of <ab|cd> integrals:     56.070 (MW) /    448.561 (MB)
	Total:                                   252.379 (MW) /   2019.032 (MB)

	Size of irrep 0 of <ia|bc> integrals:      5.341 (MW) /     42.726 (MB)
	Size of irrep 1 of <ia|bc> integrals:      3.241 (MW) /     25.927 (MB)
	Size of irrep 2 of <ia|bc> integrals:      4.961 (MW) /     39.689 (MB)
	Size of irrep 3 of <ia|bc> integrals:      3.549 (MW) /     28.394 (MB)
	Total:                                    17.092 (MW) /    136.736 (MB)

	Size of irrep 0 of tijab amplitudes:       0.398 (MW) /      3.180 (MB)
	Size of irrep 1 of tijab amplitudes:       0.187 (MW) /      1.498 (MB)
	Size of irrep 2 of tijab amplitudes:       0.367 (MW) /      2.940 (MB)
	Size of irrep 3 of tijab amplitudes:       0.210 (MW) /      1.677 (MB)
	Total:                                     1.162 (MW) /      9.295 (MB)

	Nuclear Rep. energy          =    192.13673739836119
	SCF energy                   =  -1031.80416870419208
	One-electron energy          =   -191.08803775843253
	Two-electron energy          =     86.34774437018670
	Reference energy             =  -1031.80416870419526

*** tstop() called on l40 at Fri Jan 29 15:29:01 2021
Module time:
	user time   =      19.50 seconds =       0.33 minutes
	system time =      12.47 seconds =       0.21 minutes
	total time  =         32 seconds =       0.53 minutes
Total time:
	user time   =      47.21 seconds =       0.79 minutes
	system time =      16.33 seconds =       0.27 minutes
	total time  =         63 seconds =       1.05 minutes
            **************************
            *                        *
            *        CCENERGY        *
            *                        *
            **************************

    Nuclear Rep. energy (wfn)     =  192.136737398361191
    SCF energy          (wfn)     = -1031.804168704192080
    Reference energy    (file100) = -1031.804168704195263

    Input parameters:
    -----------------
    Wave function   =     CCSD_T
    Reference wfn   =     RHF
    Brueckner       =     No
    Memory (Mbytes) =     250000.0
    Maxiter         =     50
    R_Convergence   =     1.0e-07
    E_Convergence   =     1.0e-06
    Restart         =     Yes
    DIIS            =     Yes
    AO Basis        =     NONE
    ABCD            =     NEW
    Cache Level     =     2
    Cache Type      =     LOW
    Print Level     =     1
    Num. of threads =     1
    # Amps to Print =     10
    Print MP2 Amps? =     No
    Analyze T2 Amps =     No
    Print Pair Ener =     No
    Local CC        =     No
    SCS-MP2         =     False
    SCSN-MP2        =     False
    SCS-CCSD        =     False

MP2 correlation energy -0.7812891734124662
                Solving CC Amplitude Equations
                ------------------------------
  Iter             Energy              RMS        T1Diag      D1Diag    New D1Diag    D2Diag
  ----     ---------------------    ---------   ----------  ----------  ----------   --------
     0        -0.781289173412466    0.000e+00    0.000000    0.000000    0.000000    0.160611
     1        -0.777499840731577    8.940e-02    0.012790    0.040164    0.040164    0.152055
     2        -0.798040174691278    3.478e-02    0.011500    0.035715    0.035715    0.163696
     3        -0.803558372506014    1.411e-02    0.013915    0.043843    0.043843    0.168010
     4        -0.803145303192053    3.630e-03    0.014432    0.045764    0.045764    0.169140
     5        -0.803168241402978    1.723e-03    0.014744    0.046795    0.046795    0.169758
     6        -0.803210644398985    5.823e-04    0.014854    0.047228    0.047228    0.169893
     7        -0.803192048777506    2.153e-04    0.014876    0.047283    0.047283    0.169843
     8        -0.803190264542398    7.824e-05    0.014885    0.047300    0.047300    0.169825
     9        -0.803192365955011    3.236e-05    0.014886    0.047297    0.047297    0.169816
    10        -0.803190074542048    1.662e-05    0.014887    0.047291    0.047291    0.169808
    11        -0.803190584936295    5.549e-06    0.014887    0.047289    0.047289    0.169808
    12        -0.803190240618592    1.970e-06    0.014887    0.047288    0.047288    0.169807
    13        -0.803190236070683    7.363e-07    0.014887    0.047288    0.047288    0.169807
    14        -0.803190247737872    2.254e-07    0.014887    0.047288    0.047288    0.169807
    15        -0.803190246842235    1.015e-07    0.014887    0.047288    0.047288    0.169807
    16        -0.803190246851319    3.231e-08    0.014887    0.047288    0.047288    0.169807

    Iterations converged.


    Largest TIA Amplitudes:
             10 140         0.0331151816
             10 141         0.0256755922
              8  95        -0.0218667056
              8  94        -0.0182069276
              7  94         0.0117205710
              7  97         0.0108224266
             10 142         0.0107026328
             10 145         0.0104732487
              8  98        -0.0095094473
              7  95         0.0089489296

    Largest TIjAb Amplitudes:
     10  10 140 140        -0.0362721234
     10  10 140 141        -0.0267442034
     10  10 141 140        -0.0267442034
     11  11 140 140        -0.0229460945
     11  11 141 141        -0.0224736344
     11  11 140 141        -0.0218252132
     11  11 141 140        -0.0218252132
     10  10 141 141        -0.0215749146
      7   7  95  95        -0.0180187194
      8   8   4   4        -0.0163407737

    SCF energy       (wfn)                    = -1031.804168704192080
    Reference energy (file100)                = -1031.804168704195263

    Opposite-spin MP2 correlation energy      =   -0.577094625538046
    Same-spin MP2 correlation energy          =   -0.204194547874420
    Singles MP2 correlation energy            =   -0.000000000000000
    MP2 correlation energy                    =   -0.781289173412466
      * MP2 total energy                      = -1032.585457877607723

    Opposite-spin CCSD correlation energy     =   -0.619541935710332
    Same-spin CCSD correlation energy         =   -0.183648311140987
    Singles CCSD correlation energy           =    0.000000000000000
    CCSD correlation energy                   =   -0.803190246851319
      * CCSD total energy                     = -1032.607358951046535

            **************************
            *                        *
            *        CCTRIPLES       *
            *                        *
            **************************


    Wave function   =    CCSD_T
    Reference wfn   =      RHF

    Nuclear Rep. energy (wfn)                =  192.136737398361191
    SCF energy          (wfn)                = -1031.804168704192080
    Reference energy    (file100)            = -1031.804168704195263
    CCSD energy         (file100)            =   -0.803190246851319
    Total CCSD energy   (file100)            = -1032.607358951046535

    Number of ijk index combinations:              364
    Memory available in words        :     31250000000
    ~Words needed per explicit thread:         1000188
    Number of threads for explicit ijk threading:    1

    (T) energy                                =   -0.041274990213271
      * CCSD(T) total energy                  = -1032.648633941259959


    Psi4 stopped on: Friday, 29 January 2021 03:30PM
    Psi4 wall time for execution: 0:02:52.40

*** Psi4 exiting successfully. Buy a developer a beer!
