
    -----------------------------------------------------------------------
          Psi4: An Open-Source Ab Initio Electronic Structure Package
                               Psi4 1.4a3.dev88 

                         Git: Rev {master} 262e345 


    D. G. A. Smith, L. A. Burns, A. C. Simmonett, R. M. Parrish,
    M. C. Schieber, R. Galvelis, P. Kraus, H. Kruse, R. Di Remigio,
    A. Alenaizan, A. M. James, S. Lehtola, J. P. Misiewicz, M. Scheurer,
    R. A. Shaw, J. B. Schriber, Y. Xie, Z. L. Glick, D. A. Sirianni,
    J. S. O'Brien, J. M. Waldrop, A. Kumar, E. G. Hohenstein,
    B. P. Pritchard, B. R. Brooks, H. F. Schaefer III, A. Yu. Sokolov,
    K. Patkowski, A. E. DePrince III, U. Bozkaya, R. A. King,
    F. A. Evangelista, J. M. Turney, T. D. Crawford, C. D. Sherrill,
    J. Chem. Phys. 152(18) 184108 (2020). https://doi.org/10.1063/5.0006002

                            Additional Code Authors
    E. T. Seidl, C. L. Janssen, E. F. Valeev, M. L. Leininger,
    J. F. Gonthier, R. M. Richard, H. R. McAlexander, M. Saitow, X. Wang,
    P. Verma, and M. H. Lechner

             Previous Authors, Complete List of Code Contributors,
                       and Citations for Specific Modules
    https://github.com/psi4/psi4/blob/master/codemeta.json
    https://github.com/psi4/psi4/graphs/contributors
    http://psicode.org/psi4manual/master/introduction.html#citing-psifour

    -----------------------------------------------------------------------


    Psi4 started on: Friday, 22 January 2021 10:46AM

    Process ID: 85773
    Host:       n412-045.vsc4.prov
    PSIDATADIR: /home/fs71337/gallo4/psi4/psi4/build/stage/share/psi4
    Memory:     500.0 MiB
    Threads:    48
    
  ==> Input File <==

--------------------------------------------------------------------------
# Any line starting with the # character is a comment line
memory 250000 mb
molecule molecule{
-1 3
Si         0.0000000000        0.0000000000        0.0535071526
H          0.0000000000        0.0000000000       -1.4909370929
}

set {
  reference uhf
  basis aug-cc-pV(5+d)Z
  scf_type OUT_OF_CORE
  freeze_core true
}

energy('ccsd(t)')
--------------------------------------------------------------------------

  Memory set to 232.831 GiB by Python driver.

Scratch directory: /binfl/lv71337/airmler/temp/

*** tstart() called on n412-045.vsc4.prov
*** at Fri Jan 22 10:46:18 2021

   => Loading Basis Set <=

    Name: AUG-CC-PV(5+D)Z
    Role: ORBITAL
    Keyword: BASIS
    atoms 1 entry SI         line  1209 file /home/fs71337/gallo4/psi4/psi4/build/stage/share/psi4/basis/aug-cc-pv_5pd_z.gbs 
    atoms 2 entry H          line    69 file /home/fs71337/gallo4/psi4/psi4/build/stage/share/psi4/basis/aug-cc-pv_5pd_z.gbs 


         ---------------------------------------------------------
                                   SCF
               by Justin Turney, Rob Parrish, Andy Simmonett
                          and Daniel G. A. Smith
                              UHF Reference
                       48 Threads, 238418 MiB Core
         ---------------------------------------------------------

  ==> Geometry <==

    Molecular point group: c2v
    Full point group: C_inf_v

    Geometry (in Angstrom), charge = -1, multiplicity = 3:

       Center              X                  Y                   Z               Mass       
    ------------   -----------------  -----------------  -----------------  -----------------
         SI           0.000000000000     0.000000000000     0.053701670270    27.976926534650
         H            0.000000000000     0.000000000000    -1.490742575230     1.007825032230

  Running in c2v symmetry.

  Rotational constants: A = ************  B =      7.26501  C =      7.26501 [cm^-1]
  Rotational constants: A = ************  B = 217799.64542  C = 217799.64542 [MHz]
  Nuclear repulsion =    4.796858786560838

  Charge       = -1
  Multiplicity = 3
  Electrons    = 16
  Nalpha       = 9
  Nbeta        = 7

  ==> Algorithm <==

  SCF Algorithm Type is OUT_OF_CORE.
  DIIS enabled.
  MOM disabled.
  Fractional occupation disabled.
  Guess Type is SAD.
  Energy threshold   = 1.00e-08
  Density threshold  = 1.00e-08
  Integral threshold = 1.00e-12

  ==> Primary Basis <==

  Basis Set: AUG-CC-PV(5+D)Z
    Blend: AUG-CC-PV(5+D)Z
    Number of shells: 50
    Number of basis function: 216
    Number of Cartesian functions: 297
    Spherical Harmonics?: true
    Max angular momentum: 5

  ==> Integral Setup <==

  ==> DiskJK: Disk-Based J/K Matrices <==

    J tasked:                  Yes
    K tasked:                  Yes
    wK tasked:                  No
    Memory [MiB]:           178813
    Schwarz Cutoff:          1E-12

  Minimum eigenvalue in the overlap matrix is 5.0472977400E-05.
  Reciprocal condition number of the overlap matrix is 7.7750287076E-06.
    Using symmetric orthogonalization.

  ==> Pre-Iterations <==

  SCF Guess: Superposition of Atomic Densities via on-the-fly atomic UHF (no occupation information).


 WARNING: Atomic UHF is not converging! Try casting from a smaller basis or call Rob at CCMST.

 WARNING: Atomic UHF is not converging! Try casting from a smaller basis or call Rob at CCMST.
   -------------------------
    Irrep   Nso     Nmo    
   -------------------------
     A1        81      81 
     A2        31      31 
     B1        52      52 
     B2        52      52 
   -------------------------
    Total     216     216
   -------------------------

  ==> Iterations <==

                        Total Energy        Delta E     RMS |[F,P]|

   @UHF iter SAD:  -108.63882578935629   -1.08639e+02   0.00000e+00 
    Occupation by irrep:
             A1    A2    B1    B2 
    DOCC [     5,    0,    1,    1 ]
    SOCC [     1,    0,    1,    0 ]

   @UHF iter   1:  -278.58890383065972   -1.69950e+02   6.87772e-02 DIIS
    Occupation by irrep:
             A1    A2    B1    B2 
    DOCC [     5,    0,    1,    1 ]
    SOCC [     0,    0,    1,    1 ]

   @UHF iter   2:  -284.73838222384506   -6.14948e+00   3.67828e-02 DIIS
   @UHF iter   3:  -289.16097640984310   -4.42259e+00   6.85862e-03 DIIS
   @UHF iter   4:  -289.46165774139899   -3.00681e-01   6.62389e-04 DIIS
   @UHF iter   5:  -289.46867204106894   -7.01430e-03   2.05033e-04 DIIS
   @UHF iter   6:  -289.46985839365504   -1.18635e-03   9.41390e-05 DIIS
   @UHF iter   7:  -289.47027122500839   -4.12831e-04   3.68070e-05 DIIS
   @UHF iter   8:  -289.47034705954411   -7.58345e-05   1.38088e-05 DIIS
   @UHF iter   9:  -289.47035768551081   -1.06260e-05   4.03426e-06 DIIS
   @UHF iter  10:  -289.47035831581690   -6.30306e-07   1.47341e-06 DIIS
   @UHF iter  11:  -289.47035840914316   -9.33263e-08   6.75994e-07 DIIS
   @UHF iter  12:  -289.47035843685171   -2.77086e-08   2.27697e-07 DIIS
   @UHF iter  13:  -289.47035843982871   -2.97700e-09   8.43590e-08 DIIS
   @UHF iter  14:  -289.47035844028500   -4.56282e-10   2.50314e-08 DIIS
   @UHF iter  15:  -289.47035844031990   -3.49019e-11   6.68053e-09 DIIS
  Energy and wave function converged.


  ==> Post-Iterations <==

   @Spin Contamination Metric:   3.764962336E-02
   @S^2 Expected:                2.000000000E+00
   @S^2 Observed:                2.037649623E+00
   @S   Expected:                1.000000000E+00
   @S   Observed:                1.000000000E+00

    Orbital Energies [Eh]
    ---------------------

    Alpha Occupied:                                                       

       1A1   -68.548749     2A1    -5.893461     1B1    -4.002540  
       1B2    -4.002540     3A1    -3.992892     4A1    -0.435204  
       5A1    -0.162749     2B1    -0.056520     2B2    -0.056520  

    Alpha Virtual:                                                        

       6A1     0.128364     7A1     0.147744     3B1     0.164665  
       3B2     0.164665     8A1     0.222235     4B2     0.236278  
       4B1     0.236278     9A1     0.247646     1A2     0.247646  
      10A1     0.251417    11A1     0.305620    12A1     0.349456  
       5B2     0.371983     5B1     0.371983     6B1     0.421079  
       6B2     0.421079    13A1     0.443023     2A2     0.443023  
       7B1     0.444704     7B2     0.444704     8B1     0.460118  
       8B2     0.460118    14A1     0.462677    15A1     0.491751  
       3A2     0.491751    16A1     0.493263    17A1     0.504761  
       9B1     0.571287     9B2     0.571287    18A1     0.591779  
      19A1     0.681820    10B1     0.767240    10B2     0.767240  
      20A1     0.808439     4A2     0.808439    21A1     0.844433  
      22A1     0.925599     5A2     0.925599    11B1     0.926077  
      11B2     0.926077    12B1     0.955133    12B2     0.955133  
       6A2     0.961819    23A1     0.961819    13B1     0.966868  
      13B2     0.966868     7A2     0.970867    24A1     0.970867  
      25A1     0.992127    14B1     1.009284    14B2     1.009284  
      26A1     1.035035    15B1     1.044538    15B2     1.044538  
       8A2     1.066210    27A1     1.066210    28A1     1.092858  
      16B1     1.134951    16B2     1.134951    29A1     1.208760  
      30A1     1.360579    17B1     1.424140    17B2     1.424140  
      18B1     1.575525    18B2     1.575525    31A1     1.602985  
      32A1     1.640816     9A2     1.693126    33A1     1.693126  
      19B1     1.730846    19B2     1.730846    34A1     1.871819  
      10A2     1.911138    35A1     1.911138    20B1     1.929740  
      20B2     1.929740    21B2     1.952658    21B1     1.952658  
      11A2     2.001118    36A1     2.001118    22B2     2.024219  
      22B1     2.024219    37A1     2.025082    23B2     2.060342  
      23B1     2.060342    12A2     2.061354    38A1     2.061354  
      13A2     2.077255    39A1     2.077255    14A2     2.081777  
      40A1     2.081777    24B1     2.087184    24B2     2.087184  
      25B2     2.205907    25B1     2.205907    41A1     2.223117  
      15A2     2.244869    42A1     2.244869    26B1     2.269033  
      26B2     2.269033    43A1     2.420976    27B2     2.487958  
      27B1     2.487958    44A1     2.664988    28B1     2.824490  
      28B2     2.824490    45A1     2.935840    16A2     2.956804  
      46A1     2.956804    47A1     3.033983    29B2     3.115795  
      29B1     3.115795    17A2     3.309117    48A1     3.309117  
      49A1     3.598527    30B2     3.675340    30B1     3.675340  
      18A2     3.701023    50A1     3.701023    31B2     3.743465  
      31B1     3.743465    32B1     3.788001    32B2     3.788001  
      33B1     3.828993    33B2     3.828993    19A2     3.908167  
      51A1     3.908167    20A2     3.980158    52A1     3.980158  
      53A1     3.989824    34B2     4.053730    34B1     4.053730  
      54A1     4.066513    55A1     4.265841    35B2     4.303755  
      35B1     4.303755    21A2     4.334005    56A1     4.334005  
      36B2     4.341171    36B1     4.341171    57A1     4.457063  
      22A2     4.457063    37B2     4.470968    37B1     4.470968  
      38B2     4.495145    38B1     4.495145    39B1     4.499595  
      39B2     4.499595    58A1     4.507121    23A2     4.507121  
      59A1     4.556353    24A2     4.651006    60A1     4.651006  
      61A1     4.761543    40B2     4.827479    40B1     4.827479  
      62A1     4.875011    41B2     4.947832    41B1     4.947832  
      63A1     5.534252    25A2     5.708499    64A1     5.708499  
      65A1     5.931671    66A1     6.102849    26A2     6.102849  
      42B2     6.199570    42B1     6.199570    43B2     6.439066  
      43B1     6.439066    67A1     6.997291    44B2     7.223345  
      44B1     7.223345    68A1     8.419321    27A2    10.027156  
      69A1    10.027156    45B2    10.249897    45B1    10.249897  
      70A1    10.413588    46B2    13.217294    46B1    13.217294  
      71A1    13.405379    28A2    13.431588    72A1    13.431588  
      47B2    13.462801    47B1    13.462801    73A1    13.499302  
      29A2    13.499302    48B1    13.561092    48B2    13.561092  
      30A2    13.646276    74A1    13.646276    49B2    13.668780  
      49B1    13.668780    75A1    13.754973    50B2    14.259109  
      50B1    14.259109    76A1    14.578460    77A1    14.661290  
      31A2    14.661290    51B2    15.023372    51B1    15.023372  
      78A1    15.517740    79A1    15.826045    52B2    17.766569  
      52B1    17.766569    80A1    18.794223    81A1    41.432899  

    Beta Occupied:                                                        

       1A1   -68.541232     2A1    -5.885081     3A1    -3.990114  
       1B2    -3.981202     1B1    -3.981202     4A1    -0.347334  
       5A1    -0.123771  

    Beta Virtual:                                                         

       6A1     0.130461     7A1     0.148867     2B1     0.156479  
       2B2     0.156479     8A1     0.234507     3B1     0.242273  
       3B2     0.242273     9A1     0.254665     1A2     0.263375  
      10A1     0.263375     4B2     0.272326     4B1     0.272326  
      11A1     0.313797    12A1     0.358470     5B1     0.380706  
       5B2     0.380706     2A2     0.451373    13A1     0.451373  
       6B1     0.457444     6B2     0.457444     7B2     0.466550  
       7B1     0.466550    14A1     0.471194     8B2     0.486747  
       8B1     0.486747    15A1     0.508005    16A1     0.522820  
       3A2     0.560839    17A1     0.560839     9B2     0.597573  
       9B1     0.597573    18A1     0.600215    19A1     0.692416  
      10B1     0.775283    10B2     0.775283     4A2     0.815279  
      20A1     0.815279    21A1     0.852494    11B2     0.938842  
      11B1     0.938842     5A2     0.942848    22A1     0.942848  
      12B2     0.971746    12B1     0.971746     6A2     0.979549  
      23A1     0.979549    13B2     1.002971    13B1     1.002971  
      24A1     1.004064     7A2     1.026290    25A1     1.026290  
      14B2     1.027649    14B1     1.027649    26A1     1.041534  
      15B2     1.061843    15B1     1.061843     8A2     1.081450  
      27A1     1.081450    28A1     1.106161    16B2     1.169567  
      16B1     1.169567    29A1     1.214036    30A1     1.371046  
      17B2     1.431594    17B1     1.431594    18B1     1.581637  
      18B2     1.581637    31A1     1.613837    32A1     1.649470  
       9A2     1.696878    33A1     1.696878    19B2     1.738086  
      19B1     1.738086    34A1     1.879985    10A2     1.933023  
      35A1     1.933023    20B2     1.968716    20B1     1.968716  
      21B2     1.969417    21B1     1.969417    36A1     2.024151  
      11A2     2.024151    37A1     2.036832    22B2     2.040015  
      22B1     2.040015    12A2     2.078645    38A1     2.078645  
      23B2     2.081449    23B1     2.081449    13A2     2.095867  
      39A1     2.095867    24B2     2.108275    24B1     2.108275  
      14A2     2.111026    40A1     2.111026    25B2     2.211777  
      25B1     2.211777    41A1     2.230925    15A2     2.255227  
      42A1     2.255227    26B2     2.281383    26B1     2.281383  
      43A1     2.424329    27B2     2.494705    27B1     2.494705  
      44A1     2.671988    28B2     2.836944    28B1     2.836944  
      45A1     2.939239    16A2     2.964585    46A1     2.964585  
      47A1     3.036181    29B2     3.125369    29B1     3.125369  
      17A2     3.313581    48A1     3.313581    49A1     3.604090  
      30B2     3.681408    30B1     3.681408    18A2     3.708176  
      50A1     3.708176    31B2     3.755532    31B1     3.755532  
      32B2     3.802386    32B1     3.802386    33B2     3.841835  
      33B1     3.841835    19A2     3.918978    51A1     3.918978  
      20A2     3.993128    52A1     3.993128    53A1     3.999859  
      34B2     4.064878    34B1     4.064878    54A1     4.076517  
      55A1     4.270501    35B2     4.306844    35B1     4.306844  
      56A1     4.342942    21A2     4.342942    36B2     4.347708  
      36B1     4.347708    57A1     4.481199    22A2     4.481199  
      37B2     4.487917    37B1     4.487917    38B2     4.502191  
      38B1     4.502191    39B2     4.522024    39B1     4.522024  
      58A1     4.524323    23A2     4.524323    59A1     4.556013  
      60A1     4.659893    24A2     4.659893    61A1     4.766081  
      40B2     4.836732    40B1     4.836732    62A1     4.882137  
      41B2     4.956253    41B1     4.956253    63A1     5.538212  
      64A1     5.715029    25A2     5.715029    65A1     5.933172  
      66A1     6.104335    26A2     6.104335    42B2     6.202205  
      42B1     6.202205    43B2     6.440560    43B1     6.440560  
      67A1     6.998080    44B2     7.225322    44B1     7.225322  
      68A1     8.420854    27A2    10.037669    69A1    10.037669  
      45B2    10.255701    45B1    10.255701    70A1    10.417725  
      46B2    13.217201    46B1    13.217201    71A1    13.405040  
      28A2    13.431776    72A1    13.431776    47B2    13.464792  
      47B1    13.464792    73A1    13.499208    29A2    13.499208  
      48B1    13.561274    48B2    13.561274    30A2    13.646398  
      74A1    13.646398    49B2    13.678678    49B1    13.678678  
      75A1    13.754848    50B2    14.260051    50B1    14.260051  
      76A1    14.577616    77A1    14.660858    31A2    14.660858  
      51B2    15.023740    51B1    15.023740    78A1    15.517098  
      79A1    15.827744    52B2    17.765875    52B1    17.765875  
      80A1    18.793464    81A1    41.438518  

    Final Occupation by Irrep:
             A1    A2    B1    B2 
    DOCC [     5,    0,    1,    1 ]
    SOCC [     0,    0,    1,    1 ]

  @UHF Final Energy:  -289.47035844031990

   => Energetics <=

    Nuclear Repulsion Energy =              4.7968587865608381
    One-Electron Energy =                -414.5333208685990485
    Two-Electron Energy =                 120.2661036417182743
    Total Energy =                       -289.4703584403199557

  UHF NO Occupations:
  HONO-2 :    5 A1 1.9816036
  HONO-1 :    2 B2 1.0000000
  HONO-0 :    2 B1 1.0000000
  LUNO+0 :    6 A1 0.0183964
  LUNO+1 :    7 A1 0.0005919
  LUNO+2 :    3 B1 0.0000027
  LUNO+3 :    3 B2 0.0000027


Computation Completed


Properties will be evaluated at   0.000000,   0.000000,   0.000000 [a0]

Properties computed using the SCF density matrix

  Nuclear Dipole Moment: [e a0]
     X:     0.0000      Y:     0.0000      Z:    -1.3964

  Electronic Dipole Moment: [e a0]
     X:     0.0000      Y:     0.0000      Z:     1.3341

  Dipole Moment: [e a0]
     X:     0.0000      Y:     0.0000      Z:    -0.0623     Total:     0.0623

  Dipole Moment: [D]
     X:     0.0000      Y:     0.0000      Z:    -0.1583     Total:     0.1583


*** tstop() called on n412-045.vsc4.prov at Fri Jan 22 10:48:04 2021
Module time:
	user time   =     158.16 seconds =       2.64 minutes
	system time =      11.42 seconds =       0.19 minutes
	total time  =        106 seconds =       1.77 minutes
Total time:
	user time   =     158.16 seconds =       2.64 minutes
	system time =      11.42 seconds =       0.19 minutes
	total time  =        106 seconds =       1.77 minutes

*** tstart() called on n412-045.vsc4.prov
*** at Fri Jan 22 10:48:04 2021


	Wfn Parameters:
	--------------------
	Wavefunction         = CCSD_T
	Number of irreps     = 4
	Number of MOs        = 216
	Number of active MOs = 211
	AO-Basis             = NONE
	Semicanonical        = false
	Reference            = UHF
	Print Level          = 1

	IRREP	# MOs	# FZDC	# DOCC	# SOCC	# VIRT	# FZVR
	-----	-----	------	------	------	------	------
	 A1	   81	    3	    2	    0	    76	    0
	 A2	   31	    0	    0	    0	    31	    0
	 B1	   52	    1	    0	    1	    50	    0
	 B2	   52	    1	    0	    1	    50	    0
	Transforming integrals...
	IWL integrals will be deleted.
	(OO|OO)...
	Presorting SO-basis two-electron integrals.
	Sorting File: SO Ints (nn|nn) nbuckets = 1
	Constructing frozen core operators
	Starting AA/AB first half-transformation.
	Sorting AA/AB half-transformed integrals.
	Starting BB first half-transformation.
	Sorting BB half-transformed integrals.
	First half integral transformation complete.
	Starting AA second half-transformation.
	Starting AB second half-transformation.
	Starting BB second half-transformation.
	Two-electron integral transformation complete.
	(OO|OV)...
	Starting AA second half-transformation.
	Starting AB second half-transformation.
	Starting BB second half-transformation.
	Two-electron integral transformation complete.
	(OO|VV)...
	Starting AA second half-transformation.
	Starting AB second half-transformation.
	Starting BB second half-transformation.
	Two-electron integral transformation complete.
	(OV|OO)...
	Starting AA/AB first half-transformation.
	Sorting AA/AB half-transformed integrals.
	Starting BB first half-transformation.
	Sorting BB half-transformed integrals.
	First half integral transformation complete.
	Starting AA second half-transformation.
	Starting AB second half-transformation.
	Starting BB second half-transformation.
	Two-electron integral transformation complete.
	(OV|OV)...
	Starting AA second half-transformation.
	Starting AB second half-transformation.
	Starting BB second half-transformation.
	Two-electron integral transformation complete.
	(OV|VV)...
	Starting AA second half-transformation.
	Starting AB second half-transformation.
	Starting BB second half-transformation.
	Two-electron integral transformation complete.
	(VV|OO)...
	Starting AA/AB first half-transformation.
	Sorting AA/AB half-transformed integrals.
	Starting BB first half-transformation.
	Sorting BB half-transformed integrals.
	First half integral transformation complete.
	Starting AA second half-transformation.
	Starting AB second half-transformation.
	Starting BB second half-transformation.
	Two-electron integral transformation complete.
	(VV|OV)...
	Starting AA second half-transformation.
	Starting AB second half-transformation.
	Starting BB second half-transformation.
	Two-electron integral transformation complete.
	(VV|VV)...
	Starting AA second half-transformation.
	Starting AB second half-transformation.
	Starting BB second half-transformation.
	Two-electron integral transformation complete.
	Frozen core energy     =   -288.60361456798427

	Size of irrep 0 of <AB|CD> integrals:     33.235 (MW) /    265.882 (MB)
	Size of irrep 1 of <AB|CD> integrals:     23.581 (MW) /    188.646 (MB)
	Size of irrep 2 of <AB|CD> integrals:     28.622 (MW) /    228.980 (MB)
	Size of irrep 3 of <AB|CD> integrals:     28.622 (MW) /    228.980 (MB)
	Total:                                   114.061 (MW) /    912.488 (MB)

	Size of irrep 0 of <ab|cd> integrals:     34.398 (MW) /    275.186 (MB)
	Size of irrep 1 of <ab|cd> integrals:     24.572 (MW) /    196.575 (MB)
	Size of irrep 2 of <ab|cd> integrals:     29.779 (MW) /    238.231 (MB)
	Size of irrep 3 of <ab|cd> integrals:     29.779 (MW) /    238.231 (MB)
	Total:                                   118.528 (MW) /    948.222 (MB)

	Size of irrep 0 of <Ab|Cd> integrals:    140.115 (MW) /   1120.917 (MB)
	Size of irrep 1 of <Ab|Cd> integrals:     96.275 (MW) /    770.203 (MB)
	Size of irrep 2 of <Ab|Cd> integrals:    116.791 (MW) /    934.330 (MB)
	Size of irrep 3 of <Ab|Cd> integrals:    116.791 (MW) /    934.330 (MB)
	Total:                                   469.972 (MW) /   3759.779 (MB)

	Size of irrep 0 of <IA|BC> integrals:      2.958 (MW) /     23.662 (MB)
	Size of irrep 1 of <IA|BC> integrals:      1.573 (MW) /     12.587 (MB)
	Size of irrep 2 of <IA|BC> integrals:      2.215 (MW) /     17.719 (MB)
	Size of irrep 3 of <IA|BC> integrals:      2.215 (MW) /     17.719 (MB)
	Total:                                     8.961 (MW) /     71.687 (MB)

	Size of irrep 0 of <ia|bc> integrals:      1.815 (MW) /     14.518 (MB)
	Size of irrep 1 of <ia|bc> integrals:      0.615 (MW) /      4.917 (MB)
	Size of irrep 2 of <ia|bc> integrals:      1.113 (MW) /      8.906 (MB)
	Size of irrep 3 of <ia|bc> integrals:      1.113 (MW) /      8.906 (MB)
	Total:                                     4.656 (MW) /     37.247 (MB)

	Size of irrep 0 of <Ia|Bc> integrals:      3.007 (MW) /     24.053 (MB)
	Size of irrep 1 of <Ia|Bc> integrals:      1.609 (MW) /     12.873 (MB)
	Size of irrep 2 of <Ia|Bc> integrals:      2.259 (MW) /     18.069 (MB)
	Size of irrep 3 of <Ia|Bc> integrals:      2.259 (MW) /     18.069 (MB)
	Total:                                     9.133 (MW) /     73.065 (MB)

	Size of irrep 0 of <iA|bC> integrals:      1.799 (MW) /     14.394 (MB)
	Size of irrep 1 of <iA|bC> integrals:      0.608 (MW) /      4.867 (MB)
	Size of irrep 2 of <iA|bC> integrals:      1.081 (MW) /      8.646 (MB)
	Size of irrep 3 of <iA|bC> integrals:      1.081 (MW) /      8.646 (MB)
	Total:                                     4.569 (MW) /     36.552 (MB)

	Size of irrep 0 of tIjAb amplitudes:       0.047 (MW) /      0.379 (MB)
	Size of irrep 1 of tIjAb amplitudes:       0.000 (MW) /      0.000 (MB)
	Size of irrep 2 of tIjAb amplitudes:       0.022 (MW) /      0.173 (MB)
	Size of irrep 3 of tIjAb amplitudes:       0.022 (MW) /      0.173 (MB)
	Total:                                     0.091 (MW) /      0.725 (MB)

	Nuclear Rep. energy          =      4.79685878656084
	SCF energy                   =   -289.47035844031990
	One-electron energy          =    -10.14510617284005
	Two-electron (AA) energy     =      1.55403453827651
	Two-electron (BB) energy     =      0.25195157762475
	Two-electron (AB) energy     =      2.67551739804202
	Two-electron energy          =      4.48150351394328
	Reference energy             =   -289.47035844032018

*** tstop() called on n412-045.vsc4.prov at Fri Jan 22 10:50:50 2021
Module time:
	user time   =      52.60 seconds =       0.88 minutes
	system time =      34.43 seconds =       0.57 minutes
	total time  =        166 seconds =       2.77 minutes
Total time:
	user time   =     210.76 seconds =       3.51 minutes
	system time =      45.85 seconds =       0.76 minutes
	total time  =        272 seconds =       4.53 minutes
            **************************
            *                        *
            *        CCENERGY        *
            *                        *
            **************************

    Nuclear Rep. energy (wfn)     =    4.796858786560838
    SCF energy          (wfn)     = -289.470358440319899
    Reference energy    (file100) = -289.470358440320183

    Input parameters:
    -----------------
    Wave function   =     CCSD_T
    Reference wfn   =     UHF
    Brueckner       =     No
    Memory (Mbytes) =     250000.0
    Maxiter         =     50
    R_Convergence   =     1.0e-07
    E_Convergence   =     1.0e-06
    Restart         =     Yes
    DIIS            =     Yes
    AO Basis        =     NONE
    ABCD            =     NEW
    Cache Level     =     2
    Cache Type      =     LRU
    Print Level     =     1
    Num. of threads =     48
    # Amps to Print =     10
    Print MP2 Amps? =     No
    Analyze T2 Amps =     No
    Print Pair Ener =     No
    Local CC        =     No
    SCS-MP2         =     False
    SCSN-MP2        =     False
    SCS-CCSD        =     False

MP2 correlation energy -0.1070116616361604
                Solving CC Amplitude Equations
                ------------------------------
  Iter             Energy              RMS        T1Diag      D1Diag    New D1Diag    D2Diag
  ----     ---------------------    ---------   ----------  ----------  ----------   --------
     0        -0.107011661636160    0.000e+00    0.000000    0.000000    0.000000    0.000000
     1        -0.119012596893103    6.065e-02    0.015217    0.000000    0.000000    0.000000
     2        -0.125431975323211    2.604e-02    0.025365    0.000000    0.000000    0.000000
     3        -0.125960223271968    9.569e-03    0.030385    0.000000    0.000000    0.000000
     4        -0.126010258796158    3.976e-03    0.032597    0.000000    0.000000    0.000000
     5        -0.126013301247005    1.499e-03    0.033226    0.000000    0.000000    0.000000
     6        -0.126009220848040    6.150e-04    0.033382    0.000000    0.000000    0.000000
     7        -0.126012213746543    2.421e-04    0.033405    0.000000    0.000000    0.000000
     8        -0.126015060297854    8.158e-05    0.033413    0.000000    0.000000    0.000000
     9        -0.126014893573563    3.487e-05    0.033415    0.000000    0.000000    0.000000
    10        -0.126014757907295    1.531e-05    0.033414    0.000000    0.000000    0.000000
    11        -0.126014796011780    5.431e-06    0.033414    0.000000    0.000000    0.000000
    12        -0.126014846595218    2.466e-06    0.033414    0.000000    0.000000    0.000000
    13        -0.126014916233082    1.126e-06    0.033414    0.000000    0.000000    0.000000
    14        -0.126014936633054    4.988e-07    0.033414    0.000000    0.000000    0.000000
    15        -0.126014939242300    2.273e-07    0.033414    0.000000    0.000000    0.000000
    16        -0.126014937446313    1.017e-07    0.033414    0.000000    0.000000    0.000000
    17        -0.126014937741928    4.421e-08    0.033414    0.000000    0.000000    0.000000

    Iterations converged.


    Largest TIA Amplitudes:
              1   8         0.0275387125
              1   2        -0.0204667973
              1   6        -0.0174192330
              1   5        -0.0145021947
              1  11         0.0127744223
              1   4        -0.0124907000
              3 159        -0.0105285329
              2 109        -0.0105285204
              0   2         0.0083456537
              1  15        -0.0082550189

    Largest Tia Amplitudes:
              1   8        -0.0258140845
              0   8         0.0211399586
              1   6         0.0197989940
              0   6        -0.0185845518
              1   3         0.0165220631
              1   5         0.0121788655
              0   9         0.0113248991
              0   5        -0.0109609827
              0   3        -0.0107007528
              1   2         0.0102352826

    Largest TIJAB Amplitudes:
      3   2  78   9        -0.0346462737
      3   2 160 110        -0.0241220149
      3   2  78   3        -0.0217248832
      3   2  76   9        -0.0217248832
      3   2 157 107        -0.0213380772
      3   2 157 110         0.0207968535
      3   2 160 107         0.0207968132
      3   2  76   3        -0.0182920275
      2   1 112   8         0.0142234891
      3   1 162   8         0.0142234864

    Largest Tijab Amplitudes:
      1   0 165 160         0.0082081075
      1   0 114 109         0.0082081068
      1   0 114 113        -0.0056691549
      1   0 165 164        -0.0056691504
      1   0 161 160         0.0050268666
      1   0 110 109         0.0050268659
      1   0  12   9         0.0050225946
      1   0  12   8         0.0049053564
      1   0  13  12         0.0046792976
      1   0   9   5         0.0045778156

    Largest TIjAb Amplitudes:
      1   1   8   8        -0.0320540613
      3   1   9 160         0.0303094959
      2   1  78 160        -0.0303094647
      3   1  78 109        -0.0303094512
      2   1   9 109        -0.0303094200
      3   0   9 160        -0.0252369991
      2   0  78 160         0.0252369937
      3   0  78 109         0.0252369837
      2   0   9 109         0.0252369783
      1   1   6   8         0.0230961675

    SCF energy       (wfn)                    = -289.470358440319899
    Reference energy (file100)                = -289.470358440320183

    Opposite-spin MP2 correlation energy      =   -0.086077596605210
    Same-spin MP2 correlation energy          =   -0.020934065030951
    Singles MP2 correlation energy            =   -0.000000000000000
    MP2 correlation energy                    =   -0.107011661636160
      * MP2 total energy                      = -289.577370101956319

    Opposite-spin CCSD correlation energy     =   -0.103028418329070
    Same-spin CCSD correlation energy         =   -0.022986519412861
    Singles CCSD correlation energy           =    0.000000000000002
    CCSD correlation energy                   =   -0.126014937741928
      * CCSD total energy                     = -289.596373378062140

            **************************
            *                        *
            *        CCTRIPLES       *
            *                        *
            **************************


    Wave function   =    CCSD_T
    Reference wfn   =      UHF

    Nuclear Rep. energy (wfn)                =    4.796858786560838
    SCF energy          (wfn)                = -289.470358440319899
    Reference energy    (file100)            = -289.470358440320183
    CCSD energy         (file100)            =   -0.126014937741928
    Total CCSD energy   (file100)            = -289.596373378062140

    Number of ijk index combinations:
    Spin Case AAA:                                   4
    Spin Case BBB:                                   0
    Spin Case AAB:                                  12
    Spin Case ABB:                                   4
    AAA (T) energy                             =   -0.000374067316708
    BBB (T) energy                             =    0.000000000000000
    AAB (T) energy                             =   -0.004635020484906
    ABB (T) energy                             =   -0.000896425124128
    (T) energy                                   =   -0.005905512925743
      * CCSD(T) total energy                     = -289.602278890987861


    Psi4 stopped on: Friday, 22 January 2021 10:54AM
    Psi4 wall time for execution: 0:07:46.57

*** Psi4 exiting successfully. Buy a developer a beer!
