
    -----------------------------------------------------------------------
          Psi4: An Open-Source Ab Initio Electronic Structure Package
                               Psi4 1.2a1.dev939 

                         Git: Rev {HEAD} fa1ec19 


    R. M. Parrish, L. A. Burns, D. G. A. Smith, A. C. Simmonett,
    A. E. DePrince III, E. G. Hohenstein, U. Bozkaya, A. Yu. Sokolov,
    R. Di Remigio, R. M. Richard, J. F. Gonthier, A. M. James,
    H. R. McAlexander, A. Kumar, M. Saitow, X. Wang, B. P. Pritchard,
    P. Verma, H. F. Schaefer III, K. Patkowski, R. A. King, E. F. Valeev,
    F. A. Evangelista, J. M. Turney, T. D. Crawford, and C. D. Sherrill,
    J. Chem. Theory Comput. 13(7) pp 3185--3197 (2017).
    (doi: 10.1021/acs.jctc.7b00174)

    -----------------------------------------------------------------------


    Psi4 started on: Friday, 03 May 2019 11:17AM

    Process ID:   5982
    PSIDATADIR: /home/grueneis/src/psi4/objdir/stage/usr/local/psi4/share/psi4
    Memory:     500.0 MiB
    Threads:    1
    
  ==> Input File <==

--------------------------------------------------------------------------
# Any line starting with the # character is a comment line

memory 32000 mb

molecule molecule {
0 1
H          0.0000000000        0.0000000000        0.3687192096
H          0.0000000000        0.0000000000       -0.3687192096
}

set {
  reference rhf


  basis aug-cc-pv(5+d)z
  scf_type OUT_OF_CORE
  freeze_core true
}

energy('ccsd')
--------------------------------------------------------------------------

  Memory set to  29.802 GiB by Python driver.

*** tstart() called on cqc03
*** at Fri May  3 11:17:57 2019

   => Loading Basis Set <=

    Name: AUG-CC-PV(5+D)Z
    Role: ORBITAL
    Keyword: BASIS
    atoms 1-2 entry H          line    56 file /home/grueneis/src/psi4/objdir/stage/usr/local/psi4/share/psi4/basis/aug-cc-pv_5pd_z.gbs 


         ---------------------------------------------------------
                                   SCF
            by Justin Turney, Rob Parrish, Andy Simmonett
                             and Daniel Smith
                              RHF Reference
                        1 Threads,  30517 MiB Core
         ---------------------------------------------------------

  ==> Geometry <==

    Molecular point group: d2h
    Full point group: D_inf_h

    Geometry (in Angstrom), charge = 0, multiplicity = 1:

       Center              X                  Y                   Z               Mass       
    ------------   -----------------  -----------------  -----------------  -----------------
           H          0.000000000000     0.000000000000     0.368719209600     1.007825032070
           H          0.000000000000     0.000000000000    -0.368719209600     1.007825032070

  Running in d2h symmetry.

  Rotational constants: A = ************  B =     61.51625  C =     61.51625 [cm^-1]
  Rotational constants: A = ************  B = 1844210.67276  C = 1844210.67276 [MHz]
  Nuclear repulsion =    0.717588336615375

  Charge       = 0
  Multiplicity = 1
  Electrons    = 2
  Nalpha       = 1
  Nbeta        = 1

  ==> Algorithm <==

  SCF Algorithm Type is OUT_OF_CORE.
  DIIS enabled.
  MOM disabled.
  Fractional occupation disabled.
  Guess Type is SAD.
  Energy threshold   = 1.00e-08
  Density threshold  = 1.00e-08
  Integral threshold = 0.00e+00

  ==> Primary Basis <==

  Basis Set: AUG-CC-PV(5+D)Z
    Blend: AUG-CC-PV(5+D)Z
    Number of shells: 40
    Number of basis function: 160
    Number of Cartesian functions: 210
    Spherical Harmonics?: true
    Max angular momentum: 4

  ==> Pre-Iterations <==

   -------------------------------------------------------
    Irrep   Nso     Nmo     Nalpha   Nbeta   Ndocc  Nsocc
   -------------------------------------------------------
     Ag        31      31       0       0       0       0
     B1g       11      11       0       0       0       0
     B2g       19      19       0       0       0       0
     B3g       19      19       0       0       0       0
     Au        11      11       0       0       0       0
     B1u       31      31       0       0       0       0
     B2u       19      19       0       0       0       0
     B3u       19      19       0       0       0       0
   -------------------------------------------------------
    Total     160     160       1       1       1       0
   -------------------------------------------------------

  ==> Integral Setup <==

  ==> DiskJK: Disk-Based J/K Matrices <==

    J tasked:                  Yes
    K tasked:                  Yes
    wK tasked:                  No
    Memory (MB):             22888
    Schwarz Cutoff:          1E-12

  Minimum eigenvalue in the overlap matrix is 5.4465223486E-06.
  Using Symmetric Orthogonalization.

  SCF Guess: Superposition of Atomic Densities via on-the-fly atomic UHF.

  ==> Iterations <==

                        Total Energy        Delta E     RMS |[F,P]|

   @RHF iter   0:    -0.85162425184011   -8.51624e-01   4.34512e-03 
   @RHF iter   1:    -1.13229831971886   -2.80674e-01   5.97191e-04 
   @RHF iter   2:    -1.13358846607596   -1.29015e-03   9.87383e-05 DIIS
   @RHF iter   3:    -1.13363657043957   -4.81044e-05   1.24475e-05 DIIS
   @RHF iter   4:    -1.13363727553213   -7.05093e-07   7.16744e-07 DIIS
   @RHF iter   5:    -1.13363727801752   -2.48539e-09   3.72055e-08 DIIS
   @RHF iter   6:    -1.13363727802536   -7.84217e-12   1.74692e-09 DIIS

  ==> Post-Iterations <==

    Orbital Energies (a.u.)
    -----------------------

    Doubly Occupied:                                                      

       1Ag    -0.595707  

    Virtual:                                                              

       2Ag     0.038608     1B1u    0.042903     2B1u    0.152262  
       1B2u    0.152760     1B3u    0.152760     3Ag     0.190845  
       1B2g    0.198080     1B3g    0.198080     4Ag     0.250747  
       3B1u    0.284705     4B1u    0.384323     5Ag     0.488141  
       1B1g    0.488141     1Au     0.545637     5B1u    0.545637  
       2B2u    0.549449     2B3u    0.549449     2B2g    0.552471  
       2B3g    0.552471     6Ag     0.556733     3B2u    0.601231  
       3B3u    0.601231     6B1u    0.725923     7Ag     0.856703  
       7B1u    0.875434     4B3u    1.141362     4B2u    1.141362  
       3B2g    1.175417     3B3g    1.175417     8Ag     1.224754  
       4B3g    1.320068     4B2g    1.320068     5B2g    1.320421  
       5B3g    1.320421     5B2u    1.333890     5B3u    1.333890  
       2Au     1.344073     8B1u    1.344073     9Ag     1.351382  
       2B1g    1.354754    10Ag     1.354754     9B1u    1.418738  
      10B1u    1.730801    11Ag     1.739789     3B1g    1.739789  
       6B3u    1.826396     6B2u    1.826396    12Ag     2.258659  
       6B2g    2.329908     6B3g    2.329908    11B1u    2.396840  
      13Ag     2.629693     7B2u    2.738100     7B3u    2.738100  
       3Au     2.776527    12B1u    2.776527    14Ag     2.834406  
       4B1g    2.834406     7B2g    3.029269     7B3g    3.029269  
       4Au     3.092149    13B1u    3.092149     8B2u    3.134870  
       8B3u    3.134870    14B1u    3.151735     8B2g    3.189752  
       8B3g    3.189752     9B2u    3.309644     9B3u    3.309644  
       5B1g    3.339209    15Ag     3.339209    15B1u    3.355375  
       5Au     3.355375    16Ag     3.457030    16B1u    3.532081  
       9B2g    3.987633     9B3g    3.987633    10B3u    4.045072  
      10B2u    4.045072    17Ag     4.071976    17B1u    4.474627  
       6B1g    4.564937    18Ag     4.564937    11B2u    4.967498  
      11B3u    4.967498    10B2g    5.148758    10B3g    5.148758  
      19Ag     5.279516     7B1g    5.613395    20Ag     5.613395  
      11B2g    5.667295    11B3g    5.667295     6Au     5.762130  
      18B1u    5.762130    12B2u    5.838977    12B3u    5.838977  
      21Ag     5.979208    19B1u    6.775021    12B2g    6.871496  
      12B3g    6.871496    20B1u    7.042205    21B1u    7.102239  
       7Au     7.102239    13B2u    7.401955    13B3u    7.401955  
      22B1u    8.563355    22Ag     8.784393    13B2g    9.077369  
      13B3g    9.077369    14B3u   12.091170    14B2u   12.091170  
       8B1g   12.183987    23Ag    12.183987    15B3u   12.528178  
      15B2u   12.528178    24Ag    12.735714     9B1g   12.735714  
      16B3u   13.219097    16B2u   13.219097    25Ag    13.277405  
      14B3g   13.629784    14B2g   13.629784     8Au    13.723648  
      23B1u   13.723648    10B1g   13.853747    26Ag    13.853747  
      15B2g   14.046346    15B3g   14.046346    27Ag    14.114898  
       9Au    14.207849    24B1u   14.207849    25B1u   14.210180  
      17B2u   14.360039    17B3u   14.360039    26B1u   14.948541  
      10Au    14.948541    28Ag    15.065273    11B1g   15.082906  
      29Ag    15.082906    16B2g   15.401279    16B3g   15.401279  
      17B2g   15.515649    17B3g   15.515649    27B1u   15.855784  
      28B1u   17.169220    30Ag    17.290324    18B2u   17.292782  
      18B3u   17.292782    18B3g   17.842359    18B2g   17.842359  
      19B2u   18.831942    19B3u   18.831942    29B1u   19.031525  
      11Au    19.031525    30B1u   19.534423    31Ag    23.151983  
      19B2g   24.173546    19B3g   24.173546    31B1u   29.121116  

    Final Occupation by Irrep:
             Ag   B1g   B2g   B3g    Au   B1u   B2u   B3u 
    DOCC [     1,    0,    0,    0,    0,    0,    0,    0 ]

  Energy converged.

  @RHF Final Energy:    -1.13363727802536

   => Energetics <=

    Nuclear Repulsion Energy =              0.7175883366153755
    One-Electron Energy =                  -2.5110365095905536
    Two-Electron Energy =                   0.6598108949498146
    Total Energy =                         -1.1336372780253634



Properties will be evaluated at   0.000000,   0.000000,   0.000000 Bohr

Properties computed using the SCF density matrix

  Nuclear Dipole Moment: (a.u.)
     X:     0.0000      Y:     0.0000      Z:     0.0000

  Electronic Dipole Moment: (a.u.)
     X:     0.0000      Y:     0.0000      Z:     0.0000

  Dipole Moment: (a.u.)
     X:     0.0000      Y:     0.0000      Z:     0.0000     Total:     0.0000

  Dipole Moment: (Debye)
     X:     0.0000      Y:     0.0000      Z:     0.0000     Total:     0.0000


*** tstop() called on cqc03 at Fri May  3 11:18:03 2019
Module time:
	user time   =       5.61 seconds =       0.09 minutes
	system time =       0.23 seconds =       0.00 minutes
	total time  =          6 seconds =       0.10 minutes
Total time:
	user time   =       5.61 seconds =       0.09 minutes
	system time =       0.23 seconds =       0.00 minutes
	total time  =          6 seconds =       0.10 minutes

*** tstart() called on cqc03
*** at Fri May  3 11:18:03 2019


	Wfn Parameters:
	--------------------
	Wavefunction         = CCSD
	Number of irreps     = 8
	Number of MOs        = 160
	Number of active MOs = 160
	AO-Basis             = NONE
	Semicanonical        = false
	Reference            = RHF
	Print Level          = 1

	IRREP	# MOs	# FZDC	# DOCC	# SOCC	# VIRT	# FZVR
	-----	-----	------	------	------	------	------
	 Ag	   31	    0	    1	    0	    30	    0
	 B1g	   11	    0	    0	    0	    11	    0
	 B2g	   19	    0	    0	    0	    19	    0
	 B3g	   19	    0	    0	    0	    19	    0
	 Au	   11	    0	    0	    0	    11	    0
	 B1u	   31	    0	    0	    0	    31	    0
	 B2u	   19	    0	    0	    0	    19	    0
	 B3u	   19	    0	    0	    0	    19	    0
	Transforming integrals...
	IWL integrals will be deleted.
	(OO|OO)...
	Presorting SO-basis two-electron integrals.
	Sorting File: SO Ints (nn|nn) nbuckets = 1
	Transforming the one-electron integrals and constructing Fock matrices
	Starting first half-transformation.
	Sorting half-transformed integrals.
	First half integral transformation complete.
	Starting second half-transformation.
	Two-electron integral transformation complete.
	(OO|OV)...
	Starting second half-transformation.
	Two-electron integral transformation complete.
	(OO|VV)...
	Starting second half-transformation.
	Two-electron integral transformation complete.
	(OV|OO)...
	Starting first half-transformation.
	Sorting half-transformed integrals.
	First half integral transformation complete.
	Starting second half-transformation.
	Two-electron integral transformation complete.
	(OV|OV)...
	Starting second half-transformation.
	Two-electron integral transformation complete.
	(OV|VV)...
	Starting second half-transformation.
	Two-electron integral transformation complete.
	(VV|OO)...
	Starting first half-transformation.
	Sorting half-transformed integrals.
	First half integral transformation complete.
	Starting second half-transformation.
	Two-electron integral transformation complete.
	(VV|OV)...
	Starting second half-transformation.
	Two-electron integral transformation complete.
	(VV|VV)...
	Starting second half-transformation.
	Two-electron integral transformation complete.
	Frozen core energy     =      0.00000000000000

	Size of irrep 0 of <ab|cd> integrals:     12.581 (MW) /    100.650 (MB)
	Size of irrep 1 of <ab|cd> integrals:      7.762 (MW) /     62.094 (MB)
	Size of irrep 2 of <ab|cd> integrals:      9.948 (MW) /     79.582 (MB)
	Size of irrep 3 of <ab|cd> integrals:      9.948 (MW) /     79.582 (MB)
	Size of irrep 4 of <ab|cd> integrals:      7.762 (MW) /     62.094 (MB)
	Size of irrep 5 of <ab|cd> integrals:     12.574 (MW) /    100.593 (MB)
	Size of irrep 6 of <ab|cd> integrals:      9.948 (MW) /     79.582 (MB)
	Size of irrep 7 of <ab|cd> integrals:      9.948 (MW) /     79.582 (MB)
	Total:                                    80.470 (MW) /    643.758 (MB)

	Size of irrep 0 of <ia|bc> integrals:      0.106 (MW) /      0.851 (MB)
	Size of irrep 1 of <ia|bc> integrals:      0.031 (MW) /      0.245 (MB)
	Size of irrep 2 of <ia|bc> integrals:      0.060 (MW) /      0.479 (MB)
	Size of irrep 3 of <ia|bc> integrals:      0.060 (MW) /      0.479 (MB)
	Size of irrep 4 of <ia|bc> integrals:      0.031 (MW) /      0.245 (MB)
	Size of irrep 5 of <ia|bc> integrals:      0.110 (MW) /      0.879 (MB)
	Size of irrep 6 of <ia|bc> integrals:      0.060 (MW) /      0.479 (MB)
	Size of irrep 7 of <ia|bc> integrals:      0.060 (MW) /      0.479 (MB)
	Total:                                     0.517 (MW) /      4.139 (MB)

	Size of irrep 0 of tijab amplitudes:       0.004 (MW) /      0.028 (MB)
	Size of irrep 1 of tijab amplitudes:       0.000 (MW) /      0.000 (MB)
	Size of irrep 2 of tijab amplitudes:       0.000 (MW) /      0.000 (MB)
	Size of irrep 3 of tijab amplitudes:       0.000 (MW) /      0.000 (MB)
	Size of irrep 4 of tijab amplitudes:       0.000 (MW) /      0.000 (MB)
	Size of irrep 5 of tijab amplitudes:       0.000 (MW) /      0.000 (MB)
	Size of irrep 6 of tijab amplitudes:       0.000 (MW) /      0.000 (MB)
	Size of irrep 7 of tijab amplitudes:       0.000 (MW) /      0.000 (MB)
	Total:                                     0.004 (MW) /      0.028 (MB)

	Nuclear Rep. energy          =      0.71758833661538
	SCF energy                   =     -1.13363727802536
	One-electron energy          =     -2.51103648002328
	Two-electron energy          =      0.65981086538252
	Reference energy             =     -1.13363727802538

*** tstop() called on cqc03 at Fri May  3 11:18:08 2019
Module time:
	user time   =       2.83 seconds =       0.05 minutes
	system time =       1.96 seconds =       0.03 minutes
	total time  =          5 seconds =       0.08 minutes
Total time:
	user time   =       8.45 seconds =       0.14 minutes
	system time =       2.19 seconds =       0.04 minutes
	total time  =         11 seconds =       0.18 minutes

*** tstart() called on cqc03
*** at Fri May  3 11:18:08 2019

            **************************
            *                        *
            *        CCENERGY        *
            *                        *
            **************************

    Nuclear Rep. energy (wfn)     =    0.717588336615375
    SCF energy          (wfn)     =   -1.133637278025363
    Reference energy    (file100) =   -1.133637278025377

    Input parameters:
    -----------------
    Wave function   =     CCSD
    Reference wfn   =     RHF
    Brueckner       =     No
    Memory (Mbytes) =     32000.0
    Maxiter         =     50
    R_Convergence   =     1.0e-07
    E_Convergence   =     1.0e-06
    Restart         =     Yes
    DIIS            =     Yes
    AO Basis        =     NONE
    ABCD            =     NEW
    Cache Level     =     2
    Cache Type      =     LOW
    Print Level     =     1
    Num. of threads =     1
    # Amps to Print =     10
    Print MP2 Amps? =     No
    Analyze T2 Amps =     No
    Print Pair Ener =     No
    Local CC        =     No
    SCS-MP2         =     False
    SCSN-MP2        =     False
    SCS-CCSD        =     False

MP2 correlation energy -0.0337290399885758
                Solving CC Amplitude Equations
                ------------------------------
  Iter             Energy              RMS        T1Diag      D1Diag    New D1Diag    D2Diag
  ----     ---------------------    ---------   ----------  ----------  ----------   --------
     0        -0.033729039988575    0.000e+00    0.000000    0.000000    0.000000    0.102068
     1        -0.043539428881587    6.615e-02    0.007502    0.010609    0.010609    0.148159
     2        -0.041504507548850    1.094e-02    0.005847    0.008268    0.008268    0.138208
     3        -0.040634109899592    2.773e-03    0.005702    0.008063    0.008063    0.134710
     4        -0.040618464434900    3.933e-04    0.005679    0.008031    0.008031    0.134472
     5        -0.040604394428547    1.068e-04    0.005669    0.008017    0.008017    0.134383
     6        -0.040602841232126    2.479e-05    0.005666    0.008012    0.008012    0.134371
     7        -0.040603476956080    3.843e-06    0.005664    0.008011    0.008011    0.134374
     8        -0.040603399137734    8.432e-07    0.005664    0.008010    0.008010    0.134374
     9        -0.040603374909342    1.726e-07    0.005664    0.008010    0.008010    0.134374
    10        -0.040603375385099    3.585e-08    0.005664    0.008010    0.008010    0.134374
    10        -0.040603375385099    3.585e-08    0.005664    0.008010    0.008010    0.134374

    Iterations converged.


    CCSD corr. energy   =   -0.040603375385099
    PPL corr. energy    =    0.013930303283244
    OS PPL corr. energy =    0.013930303283244
    SS PPL corr. energy =    0.000000000000000
    Largest TIA Amplitudes:
              0   2         0.0050085763
              0   5         0.0031151270
              0   6        -0.0030552347
              0   0         0.0026770390
              0   4         0.0019565204
              0  11         0.0015324294
              0   1         0.0013430017
              0   7         0.0012208171
              0  15         0.0011895694
              0  10         0.0011133679

    Largest TIjAb Amplitudes:
      0   0  93  93        -0.0515793714
      0   0  91  93        -0.0392650996
      0   0  93  91        -0.0392650996
      0   0 123 123        -0.0350970528
      0   0 142 142        -0.0350970528
      0   0  93  96        -0.0341457166
      0   0  96  93        -0.0341457166
      0   0   5   5        -0.0315117931
      0   0  91  91        -0.0313202131
      0   0  96  96        -0.0257383648

    SCF energy       (wfn)                    =   -1.133637278025363
    Reference energy (file100)                =   -1.133637278025377

    Opposite-spin MP2 correlation energy      =   -0.033729039988575
    Same-spin MP2 correlation energy          =    0.000000000000000
    MP2 correlation energy                    =   -0.033729039988576
      * MP2 total energy                      =   -1.167366318013952

    Opposite-spin CCSD correlation energy     =   -0.040603375236672
    Same-spin CCSD correlation energy         =    0.000000000000000
    CCSD correlation energy                   =   -0.040603375385099
      * CCSD total energy                     =   -1.174240653410476


*** tstop() called on cqc03 at Fri May  3 11:18:11 2019
Module time:
	user time   =       0.60 seconds =       0.01 minutes
	system time =       0.86 seconds =       0.01 minutes
	total time  =          3 seconds =       0.05 minutes
Total time:
	user time   =       9.06 seconds =       0.15 minutes
	system time =       3.05 seconds =       0.05 minutes
	total time  =         14 seconds =       0.23 minutes

*** Psi4 exiting successfully. Buy a developer a beer!
