
    -----------------------------------------------------------------------
          Psi4: An Open-Source Ab Initio Electronic Structure Package
                               Psi4 1.2a1.dev939 

                         Git: Rev {HEAD} fa1ec19 


    R. M. Parrish, L. A. Burns, D. G. A. Smith, A. C. Simmonett,
    A. E. DePrince III, E. G. Hohenstein, U. Bozkaya, A. Yu. Sokolov,
    R. Di Remigio, R. M. Richard, J. F. Gonthier, A. M. James,
    H. R. McAlexander, A. Kumar, M. Saitow, X. Wang, B. P. Pritchard,
    P. Verma, H. F. Schaefer III, K. Patkowski, R. A. King, E. F. Valeev,
    F. A. Evangelista, J. M. Turney, T. D. Crawford, and C. D. Sherrill,
    J. Chem. Theory Comput. 13(7) pp 3185--3197 (2017).
    (doi: 10.1021/acs.jctc.7b00174)

    -----------------------------------------------------------------------


    Psi4 started on: Saturday, 27 April 2019 02:21AM

    Process ID:   1690
    PSIDATADIR: /home/grueneis/src/psi4/objdir/stage/usr/local/psi4/share/psi4
    Memory:     500.0 MiB
    Threads:    1
    
  ==> Input File <==

--------------------------------------------------------------------------
# Any line starting with the # character is a comment line

memory 32000 mb

molecule molecule {
0 1
H          0.0000000000        0.0000000000        0.3687192096
H          0.0000000000        0.0000000000       -0.3687192096
}

set {
  reference rhf
  basis aug-cc-pv(T+d)z
  scf_type OUT_OF_CORE
  freeze_core true
}

energy('ccsd')
--------------------------------------------------------------------------

  Memory set to  29.802 GiB by Python driver.

*** tstart() called on cqc01
*** at Sat Apr 27 02:21:32 2019

   => Loading Basis Set <=

    Name: AUG-CC-PV(T+D)Z
    Role: ORBITAL
    Keyword: BASIS
    atoms 1-2 entry H          line    56 file /home/grueneis/src/psi4/objdir/stage/usr/local/psi4/share/psi4/basis/aug-cc-pv_tpd_z.gbs 


         ---------------------------------------------------------
                                   SCF
            by Justin Turney, Rob Parrish, Andy Simmonett
                             and Daniel Smith
                              RHF Reference
                        1 Threads,  30517 MiB Core
         ---------------------------------------------------------

  ==> Geometry <==

    Molecular point group: d2h
    Full point group: D_inf_h

    Geometry (in Angstrom), charge = 0, multiplicity = 1:

       Center              X                  Y                   Z               Mass       
    ------------   -----------------  -----------------  -----------------  -----------------
           H          0.000000000000     0.000000000000     0.368719209600     1.007825032070
           H          0.000000000000     0.000000000000    -0.368719209600     1.007825032070

  Running in d2h symmetry.

  Rotational constants: A = ************  B =     61.51625  C =     61.51625 [cm^-1]
  Rotational constants: A = ************  B = 1844210.67276  C = 1844210.67276 [MHz]
  Nuclear repulsion =    0.717588336615375

  Charge       = 0
  Multiplicity = 1
  Electrons    = 2
  Nalpha       = 1
  Nbeta        = 1

  ==> Algorithm <==

  SCF Algorithm Type is OUT_OF_CORE.
  DIIS enabled.
  MOM disabled.
  Fractional occupation disabled.
  Guess Type is SAD.
  Energy threshold   = 1.00e-08
  Density threshold  = 1.00e-08
  Integral threshold = 0.00e+00

  ==> Primary Basis <==

  Basis Set: AUG-CC-PV(T+D)Z
    Blend: AUG-CC-PV(T+D)Z
    Number of shells: 18
    Number of basis function: 46
    Number of Cartesian functions: 50
    Spherical Harmonics?: true
    Max angular momentum: 2

  ==> Pre-Iterations <==

   -------------------------------------------------------
    Irrep   Nso     Nmo     Nalpha   Nbeta   Ndocc  Nsocc
   -------------------------------------------------------
     Ag        11      11       0       0       0       0
     B1g        2       2       0       0       0       0
     B2g        5       5       0       0       0       0
     B3g        5       5       0       0       0       0
     Au         2       2       0       0       0       0
     B1u       11      11       0       0       0       0
     B2u        5       5       0       0       0       0
     B3u        5       5       0       0       0       0
   -------------------------------------------------------
    Total      46      46       1       1       1       0
   -------------------------------------------------------

  ==> Integral Setup <==

  ==> DiskJK: Disk-Based J/K Matrices <==

    J tasked:                  Yes
    K tasked:                  Yes
    wK tasked:                  No
    Memory (MB):             22888
    Schwarz Cutoff:          1E-12

  Minimum eigenvalue in the overlap matrix is 5.3008784417E-05.
  Using Symmetric Orthogonalization.

  SCF Guess: Superposition of Atomic Densities via on-the-fly atomic UHF.

  ==> Iterations <==

                        Total Energy        Delta E     RMS |[F,P]|

   @RHF iter   0:    -0.85132103287643   -8.51321e-01   1.25189e-02 
   @RHF iter   1:    -1.13171065575981   -2.80390e-01   1.91866e-03 
   @RHF iter   2:    -1.13300093116484   -1.29028e-03   3.15186e-04 DIIS
   @RHF iter   3:    -1.13304878203061   -4.78509e-05   3.94826e-05 DIIS
   @RHF iter   4:    -1.13304944884377   -6.66813e-07   1.79297e-06 DIIS
   @RHF iter   5:    -1.13304945040129   -1.55753e-09   9.37552e-08 DIIS
   @RHF iter   6:    -1.13304945040587   -4.57057e-12   7.97990e-09 DIIS

  ==> Post-Iterations <==

    Orbital Energies (a.u.)
    -----------------------

    Doubly Occupied:                                                      

       1Ag    -0.595454  

    Virtual:                                                              

       1B1u    0.052607     2Ag     0.053068     2B1u    0.190746  
       1B2u    0.208987     1B3u    0.208987     3Ag     0.284719  
       1B2g    0.297460     1B3g    0.297460     4Ag     0.417103  
       3B1u    0.421212     4B1u    0.736661     5Ag     0.791586  
       1B1g    0.791586     2B2g    0.884129     2B3g    0.884129  
       6Ag     0.903733     2B2u    0.931829     2B3u    0.931829  
       1Au     1.048518     5B1u    1.048518     6B1u    1.048924  
       3B2u    1.067222     3B3u    1.067222     7Ag     1.523559  
       3B2g    1.940612     3B3g    1.940612     7B1u    2.116849  
       8B1u    2.602497     8Ag     2.937745     9Ag     3.615722  
       2B1g    3.615722     4B2u    3.635343     4B3u    3.635343  
      10Ag     4.159728     2Au     4.409686     9B1u    4.409686  
       5B2u    4.434395     5B3u    4.434395     4B2g    4.488515  
       4B3g    4.488515    10B1u    5.201964     5B2g    5.797297  
       5B3g    5.797297    11Ag     6.011666    11B1u    7.139877  

    Final Occupation by Irrep:
             Ag   B1g   B2g   B3g    Au   B1u   B2u   B3u 
    DOCC [     1,    0,    0,    0,    0,    0,    0,    0 ]

  Energy converged.

  @RHF Final Energy:    -1.13304945040587

   => Energetics <=

    Nuclear Repulsion Energy =              0.7175883366153755
    One-Electron Energy =                  -2.5103675281918365
    Two-Electron Energy =                   0.6597297411705958
    Total Energy =                         -1.1330494504058652



Properties will be evaluated at   0.000000,   0.000000,   0.000000 Bohr

Properties computed using the SCF density matrix

  Nuclear Dipole Moment: (a.u.)
     X:     0.0000      Y:     0.0000      Z:     0.0000

  Electronic Dipole Moment: (a.u.)
     X:     0.0000      Y:     0.0000      Z:     0.0000

  Dipole Moment: (a.u.)
     X:     0.0000      Y:     0.0000      Z:     0.0000     Total:     0.0000

  Dipole Moment: (Debye)
     X:     0.0000      Y:     0.0000      Z:     0.0000     Total:     0.0000


*** tstop() called on cqc01 at Sat Apr 27 02:21:32 2019
Module time:
	user time   =       0.39 seconds =       0.01 minutes
	system time =       0.32 seconds =       0.01 minutes
	total time  =          0 seconds =       0.00 minutes
Total time:
	user time   =       0.39 seconds =       0.01 minutes
	system time =       0.32 seconds =       0.01 minutes
	total time  =          0 seconds =       0.00 minutes

*** tstart() called on cqc01
*** at Sat Apr 27 02:21:32 2019


	Wfn Parameters:
	--------------------
	Wavefunction         = CCSD
	Number of irreps     = 8
	Number of MOs        = 46
	Number of active MOs = 46
	AO-Basis             = NONE
	Semicanonical        = false
	Reference            = RHF
	Print Level          = 1

	IRREP	# MOs	# FZDC	# DOCC	# SOCC	# VIRT	# FZVR
	-----	-----	------	------	------	------	------
	 Ag	   11	    0	    1	    0	    10	    0
	 B1g	   2	    0	    0	    0	    2	    0
	 B2g	   5	    0	    0	    0	    5	    0
	 B3g	   5	    0	    0	    0	    5	    0
	 Au	   2	    0	    0	    0	    2	    0
	 B1u	   11	    0	    0	    0	    11	    0
	 B2u	   5	    0	    0	    0	    5	    0
	 B3u	   5	    0	    0	    0	    5	    0
	Transforming integrals...
	IWL integrals will be deleted.
	(OO|OO)...
	Presorting SO-basis two-electron integrals.
	Sorting File: SO Ints (nn|nn) nbuckets = 1
	Transforming the one-electron integrals and constructing Fock matrices
	Starting first half-transformation.
	Sorting half-transformed integrals.
	First half integral transformation complete.
	Starting second half-transformation.
	Two-electron integral transformation complete.
	(OO|OV)...
	Starting second half-transformation.
	Two-electron integral transformation complete.
	(OO|VV)...
	Starting second half-transformation.
	Two-electron integral transformation complete.
	(OV|OO)...
	Starting first half-transformation.
	Sorting half-transformed integrals.
	First half integral transformation complete.
	Starting second half-transformation.
	Two-electron integral transformation complete.
	(OV|OV)...
	Starting second half-transformation.
	Two-electron integral transformation complete.
	(OV|VV)...
	Starting second half-transformation.
	Two-electron integral transformation complete.
	(VV|OO)...
	Starting first half-transformation.
	Sorting half-transformed integrals.
	First half integral transformation complete.
	Starting second half-transformation.
	Two-electron integral transformation complete.
	(VV|OV)...
	Starting second half-transformation.
	Two-electron integral transformation complete.
	(VV|VV)...
	Starting second half-transformation.
	Two-electron integral transformation complete.
	Frozen core energy     =      0.00000000000000

	Size of irrep 0 of <ab|cd> integrals:      0.108 (MW) /      0.866 (MB)
	Size of irrep 1 of <ab|cd> integrals:      0.034 (MW) /      0.271 (MB)
	Size of irrep 2 of <ab|cd> integrals:      0.062 (MW) /      0.500 (MB)
	Size of irrep 3 of <ab|cd> integrals:      0.062 (MW) /      0.500 (MB)
	Size of irrep 4 of <ab|cd> integrals:      0.034 (MW) /      0.271 (MB)
	Size of irrep 5 of <ab|cd> integrals:      0.108 (MW) /      0.861 (MB)
	Size of irrep 6 of <ab|cd> integrals:      0.062 (MW) /      0.500 (MB)
	Size of irrep 7 of <ab|cd> integrals:      0.062 (MW) /      0.500 (MB)
	Total:                                     0.534 (MW) /      4.268 (MB)

	Size of irrep 0 of <ia|bc> integrals:      0.003 (MW) /      0.026 (MB)
	Size of irrep 1 of <ia|bc> integrals:      0.000 (MW) /      0.003 (MB)
	Size of irrep 2 of <ia|bc> integrals:      0.001 (MW) /      0.010 (MB)
	Size of irrep 3 of <ia|bc> integrals:      0.001 (MW) /      0.010 (MB)
	Size of irrep 4 of <ia|bc> integrals:      0.000 (MW) /      0.003 (MB)
	Size of irrep 5 of <ia|bc> integrals:      0.004 (MW) /      0.029 (MB)
	Size of irrep 6 of <ia|bc> integrals:      0.001 (MW) /      0.010 (MB)
	Size of irrep 7 of <ia|bc> integrals:      0.001 (MW) /      0.010 (MB)
	Total:                                     0.013 (MW) /      0.101 (MB)

	Size of irrep 0 of tijab amplitudes:       0.000 (MW) /      0.003 (MB)
	Size of irrep 1 of tijab amplitudes:       0.000 (MW) /      0.000 (MB)
	Size of irrep 2 of tijab amplitudes:       0.000 (MW) /      0.000 (MB)
	Size of irrep 3 of tijab amplitudes:       0.000 (MW) /      0.000 (MB)
	Size of irrep 4 of tijab amplitudes:       0.000 (MW) /      0.000 (MB)
	Size of irrep 5 of tijab amplitudes:       0.000 (MW) /      0.000 (MB)
	Size of irrep 6 of tijab amplitudes:       0.000 (MW) /      0.000 (MB)
	Size of irrep 7 of tijab amplitudes:       0.000 (MW) /      0.000 (MB)
	Total:                                     0.000 (MW) /      0.003 (MB)

	Nuclear Rep. energy          =      0.71758833661538
	SCF energy                   =     -1.13304945040587
	One-electron energy          =     -2.51036745759897
	Two-electron energy          =      0.65972967057771
	Reference energy             =     -1.13304945040589

*** tstop() called on cqc01 at Sat Apr 27 02:21:33 2019
Module time:
	user time   =       0.08 seconds =       0.00 minutes
	system time =       0.09 seconds =       0.00 minutes
	total time  =          1 seconds =       0.02 minutes
Total time:
	user time   =       0.47 seconds =       0.01 minutes
	system time =       0.41 seconds =       0.01 minutes
	total time  =          1 seconds =       0.02 minutes

*** tstart() called on cqc01
*** at Sat Apr 27 02:21:33 2019

            **************************
            *                        *
            *        CCENERGY        *
            *                        *
            **************************

    Nuclear Rep. energy (wfn)     =    0.717588336615375
    SCF energy          (wfn)     =   -1.133049450405865
    Reference energy    (file100) =   -1.133049450405890

    Input parameters:
    -----------------
    Wave function   =     CCSD
    Reference wfn   =     RHF
    Brueckner       =     No
    Memory (Mbytes) =     32000.0
    Maxiter         =     50
    R_Convergence   =     1.0e-07
    E_Convergence   =     1.0e-06
    Restart         =     Yes
    DIIS            =     Yes
    AO Basis        =     NONE
    ABCD            =     NEW
    Cache Level     =     2
    Cache Type      =     LOW
    Print Level     =     1
    Num. of threads =     1
    # Amps to Print =     10
    Print MP2 Amps? =     No
    Analyze T2 Amps =     No
    Print Pair Ener =     No
    Local CC        =     No
    SCS-MP2         =     False
    SCSN-MP2        =     False
    SCS-CCSD        =     False

MP2 correlation energy -0.0319736353910931
                Solving CC Amplitude Equations
                ------------------------------
  Iter             Energy              RMS        T1Diag      D1Diag    New D1Diag    D2Diag
  ----     ---------------------    ---------   ----------  ----------  ----------   --------
     0        -0.031973635391091    0.000e+00    0.000000    0.000000    0.000000    0.101318
     1        -0.043350422776960    6.163e-02    0.006650    0.009405    0.009405    0.149660
     2        -0.040152473845541    1.146e-02    0.005463    0.007726    0.007726    0.137601
     3        -0.039637325244250    2.150e-03    0.005310    0.007510    0.007510    0.135153
     4        -0.039566766738911    3.798e-04    0.005288    0.007478    0.007478    0.134744
     5        -0.039565701105347    7.699e-05    0.005280    0.007467    0.007467    0.134712
     6        -0.039565888656384    1.525e-05    0.005276    0.007462    0.007462    0.134710
     7        -0.039565655202006    2.737e-06    0.005275    0.007460    0.007460    0.134709
     8        -0.039565632192619    5.318e-07    0.005275    0.007460    0.007460    0.134709
     9        -0.039565631396795    1.014e-07    0.005275    0.007460    0.007460    0.134709
    10        -0.039565631115945    2.033e-08    0.005275    0.007460    0.007460    0.134709
    10        -0.039565631115945    2.033e-08    0.005275    0.007460    0.007460    0.134709

    Iterations converged.


    CCSD corr. energy   =   -0.039565631115945
    PPL corr. energy    =    0.013008025896528
    OS PPL corr. energy =    0.013008025896529
    SS PPL corr. energy =    0.000000000000000
    Largest TIA Amplitudes:
              0   2         0.0052762916
              0   4        -0.0031435016
              0   0         0.0030506084
              0   6         0.0027028612
              0   9         0.0006939714
              0   8        -0.0006711673
              0   1         0.0006087156
              0   5         0.0001050297

    Largest TIjAb Amplitudes:
      0   0  25  25        -0.0437879845
      0   0  36  36        -0.0389789887
      0   0  41  41        -0.0389789887
      0   0  25  26        -0.0386053932
      0   0  26  25        -0.0386053932
      0   0  26  26        -0.0356735455
      0   0   2   2        -0.0346839955
      0   0  25  27        -0.0342055524
      0   0  27  25        -0.0342055524
      0   0  27  27        -0.0328792101

    SCF energy       (wfn)                    =   -1.133049450405865
    Reference energy (file100)                =   -1.133049450405890

    Opposite-spin MP2 correlation energy      =   -0.031973635391091
    Same-spin MP2 correlation energy          =    0.000000000000000
    MP2 correlation energy                    =   -0.031973635391093
      * MP2 total energy                      =   -1.165023085796983

    Opposite-spin CCSD correlation energy     =   -0.039565630749986
    Same-spin CCSD correlation energy         =    0.000000000000000
    CCSD correlation energy                   =   -0.039565631115945
      * CCSD total energy                     =   -1.172615081521835


*** tstop() called on cqc01 at Sat Apr 27 02:22:06 2019
Module time:
	user time   =       0.54 seconds =       0.01 minutes
	system time =       1.31 seconds =       0.02 minutes
	total time  =         33 seconds =       0.55 minutes
Total time:
	user time   =       1.01 seconds =       0.02 minutes
	system time =       1.72 seconds =       0.03 minutes
	total time  =         34 seconds =       0.57 minutes

*** Psi4 exiting successfully. Buy a developer a beer!
