
    -----------------------------------------------------------------------
          Psi4: An Open-Source Ab Initio Electronic Structure Package
                               Psi4 1.2a1.dev939 

                         Git: Rev {HEAD} fa1ec19 


    R. M. Parrish, L. A. Burns, D. G. A. Smith, A. C. Simmonett,
    A. E. DePrince III, E. G. Hohenstein, U. Bozkaya, A. Yu. Sokolov,
    R. Di Remigio, R. M. Richard, J. F. Gonthier, A. M. James,
    H. R. McAlexander, A. Kumar, M. Saitow, X. Wang, B. P. Pritchard,
    P. Verma, H. F. Schaefer III, K. Patkowski, R. A. King, E. F. Valeev,
    F. A. Evangelista, J. M. Turney, T. D. Crawford, and C. D. Sherrill,
    J. Chem. Theory Comput. 13(7) pp 3185--3197 (2017).
    (doi: 10.1021/acs.jctc.7b00174)

    -----------------------------------------------------------------------


    Psi4 started on: Friday, 26 April 2019 04:37PM

    Process ID:   4857
    PSIDATADIR: /home/grueneis/src/psi4/objdir/stage/usr/local/psi4/share/psi4
    Memory:     500.0 MiB
    Threads:    1
    
  ==> Input File <==

--------------------------------------------------------------------------
# Any line starting with the # character is a comment line

memory 32000 mb

molecule molecule {
0 1
H          0.0000000000        0.0000000000        0.3687192096
H          0.0000000000        0.0000000000       -0.3687192096
}

set {
  reference rhf
  basis aug-cc-pv(D+d)z
  scf_type OUT_OF_CORE
  freeze_core true
}

energy('ccsd')
--------------------------------------------------------------------------

  Memory set to  29.802 GiB by Python driver.

*** tstart() called on cqc01
*** at Fri Apr 26 16:37:56 2019

   => Loading Basis Set <=

    Name: AUG-CC-PV(D+D)Z
    Role: ORBITAL
    Keyword: BASIS
    atoms 1-2 entry H          line    56 file /home/grueneis/src/psi4/objdir/stage/usr/local/psi4/share/psi4/basis/aug-cc-pv_dpd_z.gbs 


         ---------------------------------------------------------
                                   SCF
            by Justin Turney, Rob Parrish, Andy Simmonett
                             and Daniel Smith
                              RHF Reference
                        1 Threads,  30517 MiB Core
         ---------------------------------------------------------

  ==> Geometry <==

    Molecular point group: d2h
    Full point group: D_inf_h

    Geometry (in Angstrom), charge = 0, multiplicity = 1:

       Center              X                  Y                   Z               Mass       
    ------------   -----------------  -----------------  -----------------  -----------------
           H          0.000000000000     0.000000000000     0.368719209600     1.007825032070
           H          0.000000000000     0.000000000000    -0.368719209600     1.007825032070

  Running in d2h symmetry.

  Rotational constants: A = ************  B =     61.51625  C =     61.51625 [cm^-1]
  Rotational constants: A = ************  B = 1844210.67276  C = 1844210.67276 [MHz]
  Nuclear repulsion =    0.717588336615375

  Charge       = 0
  Multiplicity = 1
  Electrons    = 2
  Nalpha       = 1
  Nbeta        = 1

  ==> Algorithm <==

  SCF Algorithm Type is OUT_OF_CORE.
  DIIS enabled.
  MOM disabled.
  Fractional occupation disabled.
  Guess Type is SAD.
  Energy threshold   = 1.00e-08
  Density threshold  = 1.00e-08
  Integral threshold = 0.00e+00

  ==> Primary Basis <==

  Basis Set: AUG-CC-PV(D+D)Z
    Blend: AUG-CC-PV(D+D)Z
    Number of shells: 10
    Number of basis function: 18
    Number of Cartesian functions: 18
    Spherical Harmonics?: true
    Max angular momentum: 1

  ==> Pre-Iterations <==

   -------------------------------------------------------
    Irrep   Nso     Nmo     Nalpha   Nbeta   Ndocc  Nsocc
   -------------------------------------------------------
     Ag         5       5       0       0       0       0
     B1g        0       0       0       0       0       0
     B2g        2       2       0       0       0       0
     B3g        2       2       0       0       0       0
     Au         0       0       0       0       0       0
     B1u        5       5       0       0       0       0
     B2u        2       2       0       0       0       0
     B3u        2       2       0       0       0       0
   -------------------------------------------------------
    Total      18      18       1       1       1       0
   -------------------------------------------------------

  ==> Integral Setup <==

  ==> DiskJK: Disk-Based J/K Matrices <==

    J tasked:                  Yes
    K tasked:                  Yes
    wK tasked:                  No
    Memory (MB):             22888
    Schwarz Cutoff:          1E-12

  Minimum eigenvalue in the overlap matrix is 2.8301359257E-04.
  Using Symmetric Orthogonalization.

  SCF Guess: Superposition of Atomic Densities via on-the-fly atomic UHF.

  ==> Iterations <==

                        Total Energy        Delta E     RMS |[F,P]|

   @RHF iter   0:    -0.85043134714219   -8.50431e-01   2.28460e-02 
   @RHF iter   1:    -1.12722393158795   -2.76793e-01   4.55727e-03 
   @RHF iter   2:    -1.12868837553954   -1.46444e-03   7.84413e-04 DIIS
   @RHF iter   3:    -1.12874273804388   -5.43625e-05   6.43212e-05 DIIS
   @RHF iter   4:    -1.12874312530436   -3.87260e-07   3.20598e-06 DIIS
   @RHF iter   5:    -1.12874312613770   -8.33332e-10   1.79732e-07 DIIS
   @RHF iter   6:    -1.12874312614033   -2.63256e-12   1.32750e-08 DIIS
   @RHF iter   7:    -1.12874312614034   -1.59872e-14   5.21272e-11 DIIS

  ==> Post-Iterations <==

    Orbital Energies (a.u.)
    -----------------------

    Doubly Occupied:                                                      

       1Ag    -0.593569  

    Virtual:                                                              

       1B1u    0.061526     2Ag     0.066919     2B1u    0.231699  
       1B2u    0.285259     1B3u    0.285259     3Ag     0.416614  
       1B2g    0.458847     1B3g    0.458847     3B1u    0.558753  
       4Ag     0.717036     4B1u    1.247119     2B2u    1.604653  
       2B3u    1.604653     5Ag     2.085578     2B2g    2.245536  
       2B3g    2.245536     5B1u    3.723325  

    Final Occupation by Irrep:
             Ag   B1g   B2g   B3g    Au   B1u   B2u   B3u 
    DOCC [     1,    0,    0,    0,    0,    0,    0,    0 ]

  Energy converged.

  @RHF Final Energy:    -1.12874312614034

   => Energetics <=

    Nuclear Repulsion Energy =              0.7175883366153755
    One-Electron Energy =                  -2.5055253811906821
    Two-Electron Energy =                   0.6591939184349617
    Total Energy =                         -1.1287431261403449



Properties will be evaluated at   0.000000,   0.000000,   0.000000 Bohr

Properties computed using the SCF density matrix

  Nuclear Dipole Moment: (a.u.)
     X:     0.0000      Y:     0.0000      Z:     0.0000

  Electronic Dipole Moment: (a.u.)
     X:     0.0000      Y:     0.0000      Z:     0.0000

  Dipole Moment: (a.u.)
     X:     0.0000      Y:     0.0000      Z:     0.0000     Total:     0.0000

  Dipole Moment: (Debye)
     X:     0.0000      Y:     0.0000      Z:     0.0000     Total:     0.0000


*** tstop() called on cqc01 at Fri Apr 26 16:37:56 2019
Module time:
	user time   =       0.25 seconds =       0.00 minutes
	system time =       0.16 seconds =       0.00 minutes
	total time  =          0 seconds =       0.00 minutes
Total time:
	user time   =       0.25 seconds =       0.00 minutes
	system time =       0.16 seconds =       0.00 minutes
	total time  =          0 seconds =       0.00 minutes

*** tstart() called on cqc01
*** at Fri Apr 26 16:37:56 2019


	Wfn Parameters:
	--------------------
	Wavefunction         = CCSD
	Number of irreps     = 8
	Number of MOs        = 18
	Number of active MOs = 18
	AO-Basis             = NONE
	Semicanonical        = false
	Reference            = RHF
	Print Level          = 1

	IRREP	# MOs	# FZDC	# DOCC	# SOCC	# VIRT	# FZVR
	-----	-----	------	------	------	------	------
	 Ag	   5	    0	    1	    0	    4	    0
	 B1g	   0	    0	    0	    0	    0	    0
	 B2g	   2	    0	    0	    0	    2	    0
	 B3g	   2	    0	    0	    0	    2	    0
	 Au	   0	    0	    0	    0	    0	    0
	 B1u	   5	    0	    0	    0	    5	    0
	 B2u	   2	    0	    0	    0	    2	    0
	 B3u	   2	    0	    0	    0	    2	    0
	Transforming integrals...
	IWL integrals will be deleted.
	(OO|OO)...
	Presorting SO-basis two-electron integrals.
	Sorting File: SO Ints (nn|nn) nbuckets = 1
	Transforming the one-electron integrals and constructing Fock matrices
	Starting first half-transformation.
	Sorting half-transformed integrals.
	First half integral transformation complete.
	Starting second half-transformation.
	Two-electron integral transformation complete.
	(OO|OV)...
	Starting second half-transformation.
	Two-electron integral transformation complete.
	(OO|VV)...
	Starting second half-transformation.
	Two-electron integral transformation complete.
	(OV|OO)...
	Starting first half-transformation.
	Sorting half-transformed integrals.
	First half integral transformation complete.
	Starting second half-transformation.
	Two-electron integral transformation complete.
	(OV|OV)...
	Starting second half-transformation.
	Two-electron integral transformation complete.
	(OV|VV)...
	Starting second half-transformation.
	Two-electron integral transformation complete.
	(VV|OO)...
	Starting first half-transformation.
	Sorting half-transformed integrals.
	First half integral transformation complete.
	Starting second half-transformation.
	Two-electron integral transformation complete.
	(VV|OV)...
	Starting second half-transformation.
	Two-electron integral transformation complete.
	(VV|VV)...
	Starting second half-transformation.
	Two-electron integral transformation complete.
	Frozen core energy     =      0.00000000000000

	Size of irrep 0 of <ab|cd> integrals:      0.003 (MW) /      0.026 (MB)
	Size of irrep 1 of <ab|cd> integrals:      0.000 (MW) /      0.002 (MB)
	Size of irrep 2 of <ab|cd> integrals:      0.001 (MW) /      0.010 (MB)
	Size of irrep 3 of <ab|cd> integrals:      0.001 (MW) /      0.010 (MB)
	Size of irrep 4 of <ab|cd> integrals:      0.000 (MW) /      0.002 (MB)
	Size of irrep 5 of <ab|cd> integrals:      0.003 (MW) /      0.025 (MB)
	Size of irrep 6 of <ab|cd> integrals:      0.001 (MW) /      0.010 (MB)
	Size of irrep 7 of <ab|cd> integrals:      0.001 (MW) /      0.010 (MB)
	Total:                                     0.012 (MW) /      0.097 (MB)

	Size of irrep 0 of <ia|bc> integrals:      0.000 (MW) /      0.002 (MB)
	Size of irrep 1 of <ia|bc> integrals:      0.000 (MW) /      0.000 (MB)
	Size of irrep 2 of <ia|bc> integrals:      0.000 (MW) /      0.001 (MB)
	Size of irrep 3 of <ia|bc> integrals:      0.000 (MW) /      0.001 (MB)
	Size of irrep 4 of <ia|bc> integrals:      0.000 (MW) /      0.000 (MB)
	Size of irrep 5 of <ia|bc> integrals:      0.000 (MW) /      0.002 (MB)
	Size of irrep 6 of <ia|bc> integrals:      0.000 (MW) /      0.001 (MB)
	Size of irrep 7 of <ia|bc> integrals:      0.000 (MW) /      0.001 (MB)
	Total:                                     0.001 (MW) /      0.006 (MB)

	Size of irrep 0 of tijab amplitudes:       0.000 (MW) /      0.000 (MB)
	Size of irrep 1 of tijab amplitudes:       0.000 (MW) /      0.000 (MB)
	Size of irrep 2 of tijab amplitudes:       0.000 (MW) /      0.000 (MB)
	Size of irrep 3 of tijab amplitudes:       0.000 (MW) /      0.000 (MB)
	Size of irrep 4 of tijab amplitudes:       0.000 (MW) /      0.000 (MB)
	Size of irrep 5 of tijab amplitudes:       0.000 (MW) /      0.000 (MB)
	Size of irrep 6 of tijab amplitudes:       0.000 (MW) /      0.000 (MB)
	Size of irrep 7 of tijab amplitudes:       0.000 (MW) /      0.000 (MB)
	Total:                                     0.000 (MW) /      0.000 (MB)

	Nuclear Rep. energy          =      0.71758833661538
	SCF energy                   =     -1.12874312614034
	One-electron energy          =     -2.50552538095640
	Two-electron energy          =      0.65919391820068
	Reference energy             =     -1.12874312614034

*** tstop() called on cqc01 at Fri Apr 26 16:37:57 2019
Module time:
	user time   =       0.02 seconds =       0.00 minutes
	system time =       0.02 seconds =       0.00 minutes
	total time  =          1 seconds =       0.02 minutes
Total time:
	user time   =       0.27 seconds =       0.00 minutes
	system time =       0.18 seconds =       0.00 minutes
	total time  =          1 seconds =       0.02 minutes

*** tstart() called on cqc01
*** at Fri Apr 26 16:37:57 2019

            **************************
            *                        *
            *        CCENERGY        *
            *                        *
            **************************

    Nuclear Rep. energy (wfn)     =    0.717588336615375
    SCF energy          (wfn)     =   -1.128743126140345
    Reference energy    (file100) =   -1.128743126140345

    Input parameters:
    -----------------
    Wave function   =     CCSD
    Reference wfn   =     RHF
    Brueckner       =     No
    Memory (Mbytes) =     32000.0
    Maxiter         =     50
    R_Convergence   =     1.0e-07
    E_Convergence   =     1.0e-06
    Restart         =     Yes
    DIIS            =     Yes
    AO Basis        =     NONE
    ABCD            =     NEW
    Cache Level     =     2
    Cache Type      =     LOW
    Print Level     =     1
    Num. of threads =     1
    # Amps to Print =     10
    Print MP2 Amps? =     No
    Analyze T2 Amps =     No
    Print Pair Ener =     No
    Local CC        =     No
    SCS-MP2         =     False
    SCSN-MP2        =     False
    SCS-CCSD        =     False

MP2 correlation energy -0.0272580040250614
                Solving CC Amplitude Equations
                ------------------------------
  Iter             Energy              RMS        T1Diag      D1Diag    New D1Diag    D2Diag
  ----     ---------------------    ---------   ----------  ----------  ----------   --------
     0        -0.027258004025061    0.000e+00    0.000000    0.000000    0.000000    0.098289
     1        -0.040167935004684    5.156e-02    0.005027    0.007110    0.007110    0.150790
     2        -0.035929299842672    1.263e-02    0.004930    0.006972    0.006972    0.135448
     3        -0.035867798016268    1.363e-03    0.004696    0.006641    0.006641    0.134730
     4        -0.035755571637532    4.102e-04    0.004660    0.006590    0.006590    0.134204
     5        -0.035758616025420    7.547e-05    0.004646    0.006570    0.006570    0.134190
     6        -0.035759419937722    1.298e-05    0.004642    0.006564    0.006564    0.134192
     7        -0.035758342042823    3.483e-06    0.004641    0.006563    0.006563    0.134187
     8        -0.035758453043549    5.825e-07    0.004640    0.006563    0.006563    0.134188
     9        -0.035758460800079    7.817e-08    0.004640    0.006563    0.006563    0.134188
     9        -0.035758460800079    7.817e-08    0.004640    0.006563    0.006563    0.134188

    Iterations converged.


    CCSD corr. energy   =   -0.035758460800079
    PPL corr. energy    =    0.010854346104482
    OS PPL corr. energy =    0.010854346104482
    SS PPL corr. energy =   -0.000000000000000
    Largest TIA Amplitudes:
              0   2         0.0048015744
              0   3         0.0036057862
              0   0         0.0025465851
              0   1        -0.0007242061

    Largest TIjAb Amplitudes:
      0   0   9   9        -0.0585519732
      0   0   9  10        -0.0452890629
      0   0  10   9        -0.0452890629
      0   0  11  11        -0.0412708757
      0   0   9  11        -0.0383942039
      0   0  11   9        -0.0383942039
      0   0  10  10        -0.0379621292
      0   0   2   2        -0.0375728047
      0   0  10  11        -0.0353263954
      0   0  11  10        -0.0353263954

    SCF energy       (wfn)                    =   -1.128743126140345
    Reference energy (file100)                =   -1.128743126140345

    Opposite-spin MP2 correlation energy      =   -0.027258004025061
    Same-spin MP2 correlation energy          =    0.000000000000000
    MP2 correlation energy                    =   -0.027258004025061
      * MP2 total energy                      =   -1.156001130165406

    Opposite-spin CCSD correlation energy     =   -0.035758460799613
    Same-spin CCSD correlation energy         =    0.000000000000000
    CCSD correlation energy                   =   -0.035758460800079
      * CCSD total energy                     =   -1.164501586940424


*** tstop() called on cqc01 at Fri Apr 26 16:37:58 2019
Module time:
	user time   =       0.08 seconds =       0.00 minutes
	system time =       0.27 seconds =       0.00 minutes
	total time  =          1 seconds =       0.02 minutes
Total time:
	user time   =       0.35 seconds =       0.01 minutes
	system time =       0.45 seconds =       0.01 minutes
	total time  =          2 seconds =       0.03 minutes

*** Psi4 exiting successfully. Buy a developer a beer!
