
    -----------------------------------------------------------------------
          Psi4: An Open-Source Ab Initio Electronic Structure Package
                               Psi4 1.2a1.dev939 

                         Git: Rev {HEAD} fa1ec19 


    R. M. Parrish, L. A. Burns, D. G. A. Smith, A. C. Simmonett,
    A. E. DePrince III, E. G. Hohenstein, U. Bozkaya, A. Yu. Sokolov,
    R. Di Remigio, R. M. Richard, J. F. Gonthier, A. M. James,
    H. R. McAlexander, A. Kumar, M. Saitow, X. Wang, B. P. Pritchard,
    P. Verma, H. F. Schaefer III, K. Patkowski, R. A. King, E. F. Valeev,
    F. A. Evangelista, J. M. Turney, T. D. Crawford, and C. D. Sherrill,
    J. Chem. Theory Comput. 13(7) pp 3185--3197 (2017).
    (doi: 10.1021/acs.jctc.7b00174)

    -----------------------------------------------------------------------


    Psi4 started on: Wednesday, 05 August 2020 10:41AM

    Process ID:  30846
    PSIDATADIR: /home/grueneis/src/psi4/objdir/stage/usr/local/psi4/share/psi4
    Memory:     500.0 MiB
    Threads:    1
    
  ==> Input File <==

--------------------------------------------------------------------------
# Any line starting with the # character is a comment line

memory 32000 mb

molecule molecule {
0 1
H          0.0000000000        0.0000000000        0.3687192096
H          0.0000000000        0.0000000000       -0.3687192096
}

set {
  reference rhf


  basis aug-cc-pv(6+d)z
  scf_type OUT_OF_CORE
  freeze_core true
}

energy('ccsd')
--------------------------------------------------------------------------

  Memory set to  29.802 GiB by Python driver.

*** tstart() called on cqc05
*** at Wed Aug  5 10:41:05 2020

   => Loading Basis Set <=

    Name: AUG-CC-PV(6+D)Z
    Role: ORBITAL
    Keyword: BASIS
    atoms 1-2 entry H          line    51 file /home/grueneis/src/psi4/objdir/stage/usr/local/psi4/share/psi4/basis/aug-cc-pv_6pd_z.gbs 


         ---------------------------------------------------------
                                   SCF
            by Justin Turney, Rob Parrish, Andy Simmonett
                             and Daniel Smith
                              RHF Reference
                        1 Threads,  30517 MiB Core
         ---------------------------------------------------------

  ==> Geometry <==

    Molecular point group: d2h
    Full point group: D_inf_h

    Geometry (in Angstrom), charge = 0, multiplicity = 1:

       Center              X                  Y                   Z               Mass       
    ------------   -----------------  -----------------  -----------------  -----------------
           H          0.000000000000     0.000000000000     0.368719209600     1.007825032070
           H          0.000000000000     0.000000000000    -0.368719209600     1.007825032070

  Running in d2h symmetry.

  Rotational constants: A = ************  B =     61.51625  C =     61.51625 [cm^-1]
  Rotational constants: A = ************  B = 1844210.67276  C = 1844210.67276 [MHz]
  Nuclear repulsion =    0.717588336615375

  Charge       = 0
  Multiplicity = 1
  Electrons    = 2
  Nalpha       = 1
  Nbeta        = 1

  ==> Algorithm <==

  SCF Algorithm Type is OUT_OF_CORE.
  DIIS enabled.
  MOM disabled.
  Fractional occupation disabled.
  Guess Type is SAD.
  Energy threshold   = 1.00e-08
  Density threshold  = 1.00e-08
  Integral threshold = 0.00e+00

  ==> Primary Basis <==

  Basis Set: AUG-CC-PV(6+D)Z
    Blend: AUG-CC-PV(6+D)Z
    Number of shells: 54
    Number of basis function: 254
    Number of Cartesian functions: 364
    Spherical Harmonics?: true
    Max angular momentum: 5

  ==> Pre-Iterations <==

   -------------------------------------------------------
    Irrep   Nso     Nmo     Nalpha   Nbeta   Ndocc  Nsocc
   -------------------------------------------------------
     Ag        46      46       0       0       0       0
     B1g       19      19       0       0       0       0
     B2g       31      31       0       0       0       0
     B3g       31      31       0       0       0       0
     Au        19      19       0       0       0       0
     B1u       46      46       0       0       0       0
     B2u       31      31       0       0       0       0
     B3u       31      31       0       0       0       0
   -------------------------------------------------------
    Total     254     254       1       1       1       0
   -------------------------------------------------------

  ==> Integral Setup <==

  ==> DiskJK: Disk-Based J/K Matrices <==

    J tasked:                  Yes
    K tasked:                  Yes
    wK tasked:                  No
    Memory (MB):             22888
    Schwarz Cutoff:          1E-12

  Minimum eigenvalue in the overlap matrix is 1.8191095851E-06.
  Using Symmetric Orthogonalization.

  SCF Guess: Superposition of Atomic Densities via on-the-fly atomic UHF.

  ==> Iterations <==

                        Total Energy        Delta E     RMS |[F,P]|

   @RHF iter   0:    -0.85163075438119   -8.51631e-01   2.83917e-03 
   @RHF iter   1:    -1.13231425867552   -2.80684e-01   3.82446e-04 
   @RHF iter   2:    -1.13360442969234   -1.29017e-03   6.32365e-05 DIIS
   @RHF iter   3:    -1.13365253510653   -4.81054e-05   7.97569e-06 DIIS
   @RHF iter   4:    -1.13365323958055   -7.04474e-07   4.57424e-07 DIIS
   @RHF iter   5:    -1.13365324205752   -2.47696e-09   2.49207e-08 DIIS
   @RHF iter   6:    -1.13365324206622   -8.70060e-12   1.25663e-09 DIIS

  ==> Post-Iterations <==

    Orbital Energies (a.u.)
    -----------------------

    Doubly Occupied:                                                      

       1Ag    -0.595712  

    Virtual:                                                              

       2Ag     0.032985     1B1u    0.037977     2B1u    0.129272  
       1B2u    0.137831     1B3u    0.137831     3Ag     0.161678  
       1B3g    0.170335     1B2g    0.170335     4Ag     0.201467  
       3B1u    0.238106     4B1u    0.344432     5Ag     0.393097  
       1B1g    0.393097     2B2u    0.445731     2B3u    0.445731  
       1Au     0.446051     5B1u    0.446051     6Ag     0.459288  
       2B3g    0.464003     2B2g    0.464003     3B2u    0.530072  
       3B3u    0.530072     6B1u    0.581258     7Ag     0.634202  
       7B1u    0.709130     3B3g    0.966217     3B2g    0.966217  
       8Ag     0.967227     4B3u    1.010760     4B2u    1.010760  
       4B3g    1.081011     4B2g    1.081011     5B2g    1.098541  
       5B3g    1.098541     9Ag     1.099485     2B1g    1.099485  
       5B2u    1.109273     5B3u    1.109273    10Ag     1.114185  
       2Au     1.117384     8B1u    1.117384     9B1u    1.212730  
      10B1u    1.310842    11Ag     1.331925     3B1g    1.331925  
       6B2u    1.550370     6B3u    1.550370    12Ag     1.658398  
       6B3g    1.799067     6B2g    1.799067    13Ag     1.818758  
      14Ag     2.089243     4B1g    2.089243    11B1u    2.147996  
       3Au     2.245743    12B1u    2.245743     7B2u    2.265544  
       7B3u    2.265544    13B1u    2.285446     4Au     2.289628  
      14B1u    2.289628     8B2u    2.331455     8B3u    2.331455  
      15B1u    2.341526     5Au     2.341526     7B2g    2.365744  
       7B3g    2.365744    15Ag     2.391818     5B1g    2.410868  
      16Ag     2.410868     8B3g    2.454946     8B2g    2.454946  
       9B3u    2.455444     9B2u    2.455444    16B1u    2.466511  
       9B2g    2.966852     9B3g    2.966852    17Ag     3.015938  
      10B3u    3.421144    10B2u    3.421144    18Ag     3.445749  
       6B1g    3.445749    17B1u    3.644833    19Ag     3.865338  
      11B2u    3.949248    11B3u    3.949248    10B2g    4.078986  
      10B3g    4.078986    12B2u    4.226127    12B3u    4.226127  
      20Ag     4.235011     7B1g    4.235011    21Ag     4.238123  
      11B2g    4.380733    11B3g    4.380733    13B2u    4.518834  
      13B3u    4.518834    18B1u    4.521797     6Au     4.521797  
      12B2g    4.662005    12B3g    4.662005    19B1u    4.687761  
       8B1g    4.794694    22Ag     4.794694    20B1u    4.819136  
       7Au     4.819136    13B3g    4.860378    13B2g    4.860378  
      23Ag     4.930077    21B1u    4.963240    22B1u    5.012913  
       8Au     5.012913    14B3g    5.096778    14B2g    5.096778  
       9B1g    5.122787    24Ag     5.122787    14B2u    5.294705  
      14B3u    5.294705    15B3u    5.354269    15B2u    5.354269  
      15B2g    5.505914    15B3g    5.505914    25Ag     5.643795  
      23B1u    5.679000    24B1u    5.864727     9Au     5.864727  
      16B2u    5.922264    16B3u    5.922264    25B1u    6.267768  
      10B1g    7.201453    26Ag     7.201453    17B2u    7.607425  
      17B3u    7.607425    16B2g    7.746213    16B3g    7.746213  
      27Ag     8.148617    28Ag     8.377184    11B1g    8.377184  
      26B1u    8.764923    18B2u    8.783490    18B3u    8.783490  
      10Au     8.826362    27B1u    8.826362    17B2g    9.047187  
      17B3g    9.047187    19B3u    9.307325    19B2u    9.307325  
      28B1u    9.393298    11Au     9.393298    20B2u    9.529093  
      20B3u    9.529093    29Ag     9.553230    29B1u    9.584802  
      30Ag     9.785390    30B1u    9.821522    12Au     9.821522  
      31Ag     9.976199    12B1g    9.976199    18B3g   10.259280  
      18B2g   10.259280    19B3g   10.652263    19B2g   10.652263  
      13B1g   10.692558    32Ag    10.692558    20B2g   10.756238  
      20B3g   10.756238    33Ag    11.109238    31B1u   11.792354  
      21B2u   12.244683    21B3u   12.244683    32B1u   12.631465  
      22B2u   13.521044    22B3u   13.521044    33B1u   13.729772  
      13Au    13.729772    21B2g   13.880102    21B3g   13.880102  
      34B1u   16.047194    34Ag    16.762196    14B1g   16.762196  
      35Ag    16.783192    22B2g   16.873122    22B3g   16.873122  
      23B3u   17.119964    23B2u   17.119964    23B3g   18.068225  
      23B2g   18.068225    24B2u   18.227642    24B3u   18.227642  
      14Au    19.492886    35B1u   19.492886    36Ag    19.762862  
      15B1g   19.762862    25B2u   19.846795    25B3u   19.846795  
      36B1u   19.990021    15Au    19.990021    16B1g   20.177061  
      37Ag    20.177061    26B3u   20.235142    26B2u   20.235142  
      24B2g   20.609500    24B3g   20.609500    37B1u   20.655457  
      38Ag    20.870132    25B3g   21.028057    25B2g   21.028057  
      27B2u   21.038443    27B3u   21.038443    38B1u   21.306699  
      16Au    21.306699    39Ag    21.378113    17B1g   21.618163  
      40Ag    21.618163    41Ag    22.740801    18B1g   22.740801  
      39B1u   22.932103    17Au    22.932103    40B1u   22.934498  
      26B2g   23.303088    26B3g   23.303088    28B2u   23.659467  
      28B3u   23.659467    42Ag    23.775422    27B3g   24.036551  
      27B2g   24.036551    29B2u   24.533197    29B3u   24.533197  
      28B3g   24.771276    28B2g   24.771276    43Ag    25.305413  
      19B1g   25.774837    44Ag    25.774837    41B1u   26.326564  
      18Au    26.326564    29B2g   26.627030    29B3g   26.627030  
      42B1u   26.710273    43B1u   29.148816    30B2u   29.687169  
      30B3u   29.687169    19Au    30.605935    44B1u   30.605935  
      45Ag    32.072053    45B1u   33.926228    30B2g   35.272104  
      30B3g   35.272104    31B2u   36.659116    31B3u   36.659116  
      31B2g   37.561420    31B3g   37.561420    46B1u   42.732786  
      46Ag    45.787088  

    Final Occupation by Irrep:
             Ag   B1g   B2g   B3g    Au   B1u   B2u   B3u 
    DOCC [     1,    0,    0,    0,    0,    0,    0,    0 ]

  Energy converged.

  @RHF Final Energy:    -1.13365324206622

   => Energetics <=

    Nuclear Repulsion Energy =              0.7175883366153755
    One-Electron Energy =                  -2.5110583387079135
    Two-Electron Energy =                   0.6598167600263223
    PCM Polarization Energy =               0.0000000000000000
    Total Energy =                         -1.1336532420662158

    Alert: EFP and PCM quantities not currently incorporated into SCF psivars.

Properties will be evaluated at   0.000000,   0.000000,   0.000000 Bohr

Properties computed using the SCF density matrix

  Nuclear Dipole Moment: (a.u.)
     X:     0.0000      Y:     0.0000      Z:     0.0000

  Electronic Dipole Moment: (a.u.)
     X:     0.0000      Y:     0.0000      Z:     0.0000

  Dipole Moment: (a.u.)
     X:     0.0000      Y:     0.0000      Z:     0.0000     Total:     0.0000

  Dipole Moment: (Debye)
     X:     0.0000      Y:     0.0000      Z:     0.0000     Total:     0.0000


*** tstop() called on cqc05 at Wed Aug  5 10:42:02 2020
Module time:
	user time   =      54.69 seconds =       0.91 minutes
	system time =       1.68 seconds =       0.03 minutes
	total time  =         57 seconds =       0.95 minutes
Total time:
	user time   =      54.69 seconds =       0.91 minutes
	system time =       1.68 seconds =       0.03 minutes
	total time  =         57 seconds =       0.95 minutes

*** tstart() called on cqc05
*** at Wed Aug  5 10:42:02 2020


	Wfn Parameters:
	--------------------
	Wavefunction         = CCSD
	Number of irreps     = 8
	Number of MOs        = 254
	Number of active MOs = 254
	AO-Basis             = NONE
	Semicanonical        = false
	Reference            = RHF
	Print Level          = 1

	IRREP	# MOs	# FZDC	# DOCC	# SOCC	# VIRT	# FZVR
	-----	-----	------	------	------	------	------
	 Ag	   46	    0	    1	    0	    45	    0
	 B1g	   19	    0	    0	    0	    19	    0
	 B2g	   31	    0	    0	    0	    31	    0
	 B3g	   31	    0	    0	    0	    31	    0
	 Au	   19	    0	    0	    0	    19	    0
	 B1u	   46	    0	    0	    0	    46	    0
	 B2u	   31	    0	    0	    0	    31	    0
	 B3u	   31	    0	    0	    0	    31	    0
	Transforming integrals...
	IWL integrals will be deleted.
	(OO|OO)...
	Presorting SO-basis two-electron integrals.
	Sorting File: SO Ints (nn|nn) nbuckets = 1
	Transforming the one-electron integrals and constructing Fock matrices
	Starting first half-transformation.
	Sorting half-transformed integrals.
	First half integral transformation complete.
	Starting second half-transformation.
	Two-electron integral transformation complete.
	(OO|OV)...
	Starting second half-transformation.
	Two-electron integral transformation complete.
	(OO|VV)...
	Starting second half-transformation.
	Two-electron integral transformation complete.
	(OV|OO)...
	Starting first half-transformation.
	Sorting half-transformed integrals.
	First half integral transformation complete.
	Starting second half-transformation.
	Two-electron integral transformation complete.
	(OV|OV)...
	Starting second half-transformation.
	Two-electron integral transformation complete.
	(OV|VV)...
	Starting second half-transformation.
	Two-electron integral transformation complete.
	(VV|OO)...
	Starting first half-transformation.
	Sorting half-transformed integrals.
	First half integral transformation complete.
	Starting second half-transformation.
	Two-electron integral transformation complete.
	(VV|OV)...
	Starting second half-transformation.
	Two-electron integral transformation complete.
	(VV|VV)...
	Starting second half-transformation.
	Two-electron integral transformation complete.
	Frozen core energy     =      0.00000000000000

	Size of irrep 0 of <ab|cd> integrals:     75.812 (MW) /    606.495 (MB)
	Size of irrep 1 of <ab|cd> integrals:     53.319 (MW) /    426.554 (MB)
	Size of irrep 2 of <ab|cd> integrals:     63.968 (MW) /    511.744 (MB)
	Size of irrep 3 of <ab|cd> integrals:     63.968 (MW) /    511.744 (MB)
	Size of irrep 4 of <ab|cd> integrals:     53.319 (MW) /    426.554 (MB)
	Size of irrep 5 of <ab|cd> integrals:     75.794 (MW) /    606.355 (MB)
	Size of irrep 6 of <ab|cd> integrals:     63.968 (MW) /    511.744 (MB)
	Size of irrep 7 of <ab|cd> integrals:     63.968 (MW) /    511.744 (MB)
	Total:                                   514.117 (MW) /   4112.934 (MB)

	Size of irrep 0 of <ia|bc> integrals:      0.392 (MW) /      3.135 (MB)
	Size of irrep 1 of <ia|bc> integrals:      0.139 (MW) /      1.110 (MB)
	Size of irrep 2 of <ia|bc> integrals:      0.248 (MW) /      1.984 (MB)
	Size of irrep 3 of <ia|bc> integrals:      0.248 (MW) /      1.984 (MB)
	Size of irrep 4 of <ia|bc> integrals:      0.139 (MW) /      1.110 (MB)
	Size of irrep 5 of <ia|bc> integrals:      0.400 (MW) /      3.204 (MB)
	Size of irrep 6 of <ia|bc> integrals:      0.248 (MW) /      1.984 (MB)
	Size of irrep 7 of <ia|bc> integrals:      0.248 (MW) /      1.984 (MB)
	Total:                                     2.062 (MW) /     16.492 (MB)

	Size of irrep 0 of tijab amplitudes:       0.009 (MW) /      0.070 (MB)
	Size of irrep 1 of tijab amplitudes:       0.000 (MW) /      0.000 (MB)
	Size of irrep 2 of tijab amplitudes:       0.000 (MW) /      0.000 (MB)
	Size of irrep 3 of tijab amplitudes:       0.000 (MW) /      0.000 (MB)
	Size of irrep 4 of tijab amplitudes:       0.000 (MW) /      0.000 (MB)
	Size of irrep 5 of tijab amplitudes:       0.000 (MW) /      0.000 (MB)
	Size of irrep 6 of tijab amplitudes:       0.000 (MW) /      0.000 (MB)
	Size of irrep 7 of tijab amplitudes:       0.000 (MW) /      0.000 (MB)
	Total:                                     0.009 (MW) /      0.070 (MB)

	Nuclear Rep. energy          =      0.71758833661538
	SCF energy                   =     -1.13365324206622
	One-electron energy          =     -2.51105831003635
	Two-electron energy          =      0.65981673135475
	Reference energy             =     -1.13365324206623

*** tstop() called on cqc05 at Wed Aug  5 10:42:38 2020
Module time:
	user time   =      22.60 seconds =       0.38 minutes
	system time =      12.90 seconds =       0.21 minutes
	total time  =         36 seconds =       0.60 minutes
Total time:
	user time   =      77.29 seconds =       1.29 minutes
	system time =      14.58 seconds =       0.24 minutes
	total time  =         93 seconds =       1.55 minutes

*** tstart() called on cqc05
*** at Wed Aug  5 10:42:38 2020

            **************************
            *                        *
            *        CCENERGY        *
            *                        *
            **************************

    Nuclear Rep. energy (wfn)     =    0.717588336615375
    SCF energy          (wfn)     =   -1.133653242066216
    Reference energy    (file100) =   -1.133653242066230

    Input parameters:
    -----------------
    Wave function   =     CCSD
    Reference wfn   =     RHF
    Brueckner       =     No
    Memory (Mbytes) =     32000.0
    Maxiter         =     50
    R_Convergence   =     1.0e-07
    E_Convergence   =     1.0e-06
    Restart         =     Yes
    DIIS            =     Yes
    AO Basis        =     NONE
    ABCD            =     NEW
    Cache Level     =     2
    Cache Type      =     LOW
    Print Level     =     1
    Num. of threads =     1
    # Amps to Print =     10
    Print MP2 Amps? =     No
    Analyze T2 Amps =     No
    Print Pair Ener =     No
    Local CC        =     No
    SCS-MP2         =     False
    SCSN-MP2        =     False
    SCS-CCSD        =     False

MP2 correlation energy -0.0339421237455511
                Solving CC Amplitude Equations
                ------------------------------
  Iter             Energy              RMS        T1Diag      D1Diag    New D1Diag    D2Diag
  ----     ---------------------    ---------   ----------  ----------  ----------   --------
     0        -0.033942123745550    0.000e+00    0.000000    0.000000    0.000000    0.102110
     1        -0.043461889366741    6.675e-02    0.007592    0.010736    0.010736    0.147876
     2        -0.041659956918474    1.092e-02    0.005887    0.008325    0.008325    0.138288
     3        -0.040717636014880    2.906e-03    0.005732    0.008106    0.008106    0.134597
     4        -0.040713475727656    4.099e-04    0.005715    0.008082    0.008082    0.134395
     5        -0.040697933374260    1.186e-04    0.005703    0.008066    0.008066    0.134297
     6        -0.040694847370569    2.855e-05    0.005700    0.008060    0.008060    0.134278
     7        -0.040695821411730    4.573e-06    0.005698    0.008059    0.008059    0.134282
     8        -0.040695740262284    9.432e-07    0.005698    0.008058    0.008058    0.134282
     9        -0.040695703109608    2.026e-07    0.005698    0.008058    0.008058    0.134282
    10        -0.040695703551036    4.036e-08    0.005698    0.008058    0.008058    0.134282
    10        -0.040695703551036    4.036e-08    0.005698    0.008058    0.008058    0.134282

    Iterations converged.


    CCSD corr. energy   =   -0.040695703551036
    PPL corr. energy    =    0.014046233875400
    OS PPL corr. energy =    0.014046233875400
    SS PPL corr. energy =   -0.000000000000000
    Largest TIA Amplitudes:
              0   5         0.0043491655
              0   2         0.0043334989
              0  11         0.0024521350
              0   0         0.0024006457
              0   6        -0.0022261287
              0   1         0.0020095534
              0  10        -0.0015663020
              0  15        -0.0013472262
              0   4         0.0007792896
              0  19         0.0006557093

    Largest TIjAb Amplitudes:
      0   0 148 148        -0.0419024525
      0   0 148 151        -0.0360915747
      0   0 151 148        -0.0360915747
      0   0 151 151        -0.0336357268
      0   0 193 193        -0.0328696760
      0   0 224 224        -0.0328696760
      0   0 146 148        -0.0297774424
      0   0 148 146        -0.0297774424
      0   0   5   5        -0.0281977342
      0   0 146 151        -0.0242475798

    SCF energy       (wfn)                    =   -1.133653242066216
    Reference energy (file100)                =   -1.133653242066230

    Opposite-spin MP2 correlation energy      =   -0.033942123745550
    Same-spin MP2 correlation energy          =    0.000000000000000
    MP2 correlation energy                    =   -0.033942123745551
      * MP2 total energy                      =   -1.167595365811781

    Opposite-spin CCSD correlation energy     =   -0.040695703417192
    Same-spin CCSD correlation energy         =   -0.000000000000000
    CCSD correlation energy                   =   -0.040695703551036
      * CCSD total energy                     =   -1.174348945617266


*** tstop() called on cqc05 at Wed Aug  5 10:42:47 2020
Module time:
	user time   =       1.10 seconds =       0.02 minutes
	system time =       7.15 seconds =       0.12 minutes
	total time  =          9 seconds =       0.15 minutes
Total time:
	user time   =      78.39 seconds =       1.31 minutes
	system time =      21.73 seconds =       0.36 minutes
	total time  =        102 seconds =       1.70 minutes

*** Psi4 exiting successfully. Buy a developer a beer!
