
    -----------------------------------------------------------------------
          Psi4: An Open-Source Ab Initio Electronic Structure Package
                               Psi4 1.4a3.dev88 

                         Git: Rev {master} 262e345 


    D. G. A. Smith, L. A. Burns, A. C. Simmonett, R. M. Parrish,
    M. C. Schieber, R. Galvelis, P. Kraus, H. Kruse, R. Di Remigio,
    A. Alenaizan, A. M. James, S. Lehtola, J. P. Misiewicz, M. Scheurer,
    R. A. Shaw, J. B. Schriber, Y. Xie, Z. L. Glick, D. A. Sirianni,
    J. S. O'Brien, J. M. Waldrop, A. Kumar, E. G. Hohenstein,
    B. P. Pritchard, B. R. Brooks, H. F. Schaefer III, A. Yu. Sokolov,
    K. Patkowski, A. E. DePrince III, U. Bozkaya, R. A. King,
    F. A. Evangelista, J. M. Turney, T. D. Crawford, C. D. Sherrill,
    J. Chem. Phys. 152(18) 184108 (2020). https://doi.org/10.1063/5.0006002

                            Additional Code Authors
    E. T. Seidl, C. L. Janssen, E. F. Valeev, M. L. Leininger,
    J. F. Gonthier, R. M. Richard, H. R. McAlexander, M. Saitow, X. Wang,
    P. Verma, and M. H. Lechner

             Previous Authors, Complete List of Code Contributors,
                       and Citations for Specific Modules
    https://github.com/psi4/psi4/blob/master/codemeta.json
    https://github.com/psi4/psi4/graphs/contributors
    http://psicode.org/psi4manual/master/introduction.html#citing-psifour

    -----------------------------------------------------------------------


    Psi4 started on: Tuesday, 26 January 2021 06:36PM

    Process ID: 410284
    Host:       n412-039.vsc4.prov
    PSIDATADIR: /home/fs71337/gallo4/psi4/eri-6/psi4/build/stage/share/psi4
    Memory:     500.0 MiB
    Threads:    48
    
  ==> Input File <==

--------------------------------------------------------------------------
# Any line starting with the # character is a comment line
memory 250000 mb
molecule molecule{
0 1
S          0.0000000000        0.0000000000       -0.0547164095
H          0.0000000000       -0.9606862082        0.8701946977
H          0.0000000000        0.9606862082        0.8701946977
}

set {
  reference rhf
  basis aug-cc-pV(d+d)Z
  scf_type OUT_OF_CORE
  freeze_core true
}

energy('ccsd(t)')
--------------------------------------------------------------------------

  Memory set to 232.831 GiB by Python driver.

Scratch directory: /binfl/lv71337/airmler/temp/

*** tstart() called on n412-039.vsc4.prov
*** at Tue Jan 26 18:36:21 2021

   => Loading Basis Set <=

    Name: AUG-CC-PV(D+D)Z
    Role: ORBITAL
    Keyword: BASIS
    atoms 1   entry S          line   740 file /home/fs71337/gallo4/psi4/eri-6/psi4/build/stage/share/psi4/basis/aug-cc-pv_dpd_z.gbs 
    atoms 2-3 entry H          line    68 file /home/fs71337/gallo4/psi4/eri-6/psi4/build/stage/share/psi4/basis/aug-cc-pv_dpd_z.gbs 


         ---------------------------------------------------------
                                   SCF
               by Justin Turney, Rob Parrish, Andy Simmonett
                          and Daniel G. A. Smith
                              RHF Reference
                       48 Threads, 238418 MiB Core
         ---------------------------------------------------------

  ==> Geometry <==

    Molecular point group: c2v
    Full point group: C2v

    Geometry (in Angstrom), charge = 0, multiplicity = 1:

       Center              X                  Y                   Z               Mass       
    ------------   -----------------  -----------------  -----------------  -----------------
         S            0.000000000000     0.000000000000    -0.054852077894    31.972071174400
         H            0.000000000000    -0.960686208200     0.870059029306     1.007825032230
         H           -0.000000000000     0.960686208200     0.870059029306     1.007825032230

  Running in c2v symmetry.

  Rotational constants: A =     10.39280  B =      9.06188  C =      4.84091 [cm^-1]
  Rotational constants: A = 311568.36069  B = 271668.29099  C = 145126.75743 [MHz]
  Nuclear repulsion =   12.973523947983656

  Charge       = 0
  Multiplicity = 1
  Electrons    = 18
  Nalpha       = 9
  Nbeta        = 9

  ==> Algorithm <==

  SCF Algorithm Type is OUT_OF_CORE.
  DIIS enabled.
  MOM disabled.
  Fractional occupation disabled.
  Guess Type is SAD.
  Energy threshold   = 1.00e-08
  Density threshold  = 1.00e-08
  Integral threshold = 1.00e-12

  ==> Primary Basis <==

  Basis Set: AUG-CC-PV(D+D)Z
    Blend: AUG-CC-PV(D+D)Z
    Number of shells: 22
    Number of basis function: 50
    Number of Cartesian functions: 53
    Spherical Harmonics?: true
    Max angular momentum: 2

  ==> Integral Setup <==

  ==> DiskJK: Disk-Based J/K Matrices <==

    J tasked:                  Yes
    K tasked:                  Yes
    wK tasked:                  No
    Memory [MiB]:           178813
    Schwarz Cutoff:          1E-12

  Minimum eigenvalue in the overlap matrix is 1.1088201754E-03.
  Reciprocal condition number of the overlap matrix is 2.4322404537E-04.
    Using symmetric orthogonalization.

  ==> Pre-Iterations <==

  SCF Guess: Superposition of Atomic Densities via on-the-fly atomic UHF (no occupation information).


 WARNING: Atomic UHF is not converging! Try casting from a smaller basis or call Rob at CCMST.

 WARNING: Atomic UHF is not converging! Try casting from a smaller basis or call Rob at CCMST.
   -------------------------
    Irrep   Nso     Nmo    
   -------------------------
     A1        22      22 
     A2         5       5 
     B1         9       9 
     B2        14      14 
   -------------------------
    Total      50      50
   -------------------------

  ==> Iterations <==

                        Total Energy        Delta E     RMS |[F,P]|

   @RHF iter SAD:  -394.36019720649165   -3.94360e+02   0.00000e+00 
   @RHF iter   1:  -398.50744185571199   -4.14724e+00   1.83832e-02 DIIS
   @RHF iter   2:  -398.68806296077776   -1.80621e-01   5.90482e-03 DIIS
   @RHF iter   3:  -398.70158485584631   -1.35219e-02   8.36327e-04 DIIS
   @RHF iter   4:  -398.70217562401439   -5.90768e-04   2.26299e-04 DIIS
   @RHF iter   5:  -398.70223419964225   -5.85756e-05   7.07751e-05 DIIS
   @RHF iter   6:  -398.70224129195509   -7.09231e-06   1.41977e-05 DIIS
   @RHF iter   7:  -398.70224158133686   -2.89382e-07   1.53775e-06 DIIS
   @RHF iter   8:  -398.70224158466726   -3.33040e-09   3.58465e-07 DIIS
   @RHF iter   9:  -398.70224158485411   -1.86844e-10   4.44448e-08 DIIS
   @RHF iter  10:  -398.70224158485746   -3.35376e-12   6.82620e-09 DIIS
  Energy and wave function converged.


  ==> Post-Iterations <==

    Orbital Energies [Eh]
    ---------------------

    Doubly Occupied:                                                      

       1A1   -91.968939     2A1    -8.970983     1B2    -6.653139  
       3A1    -6.652094     1B1    -6.649656     4A1    -0.984420  
       2B2    -0.591786     5A1    -0.503055     2B1    -0.384453  

    Virtual:                                                              

       6A1     0.034678     3B2     0.061985     7A1     0.112032  
       4B2     0.118659     3B1     0.124845     8A1     0.178270  
       5B2     0.210673     9A1     0.241008    10A1     0.274114  
       1A2     0.311087     4B1     0.315954     6B2     0.411501  
      11A1     0.462160     7B2     0.480252    12A1     0.533738  
       5B1     0.535459     2A2     0.539715    13A1     0.575489  
       8B2     0.603865    14A1     0.842829     6B1     0.868620  
       9B2     0.874343    15A1     0.888460     3A2     1.073471  
       7B1     1.096358    16A1     1.124659    10B2     1.154408  
      17A1     1.200432    11B2     1.357337    18A1     1.614957  
       4A2     1.833022    12B2     1.853375     8B1     1.887433  
      19A1     1.986550    20A1     2.371206    13B2     2.440872  
       5A2     5.091963     9B1     5.097474    21A1     5.113655  
      22A1     5.130292    14B2     5.233082  

    Final Occupation by Irrep:
             A1    A2    B1    B2 
    DOCC [     5,    0,    2,    2 ]

  @RHF Final Energy:  -398.70224158485746

   => Energetics <=

    Nuclear Repulsion Energy =             12.9735239479836562
    One-Electron Energy =                -576.6344798555285251
    Two-Electron Energy =                 164.9587143226874275
    Total Energy =                       -398.7022415848574610

Computation Completed


Properties will be evaluated at   0.000000,   0.000000,   0.000000 [a0]

Properties computed using the SCF density matrix

  Nuclear Dipole Moment: [e a0]
     X:     0.0000      Y:     0.0000      Z:     1.6299

  Electronic Dipole Moment: [e a0]
     X:     0.0000      Y:     0.0000      Z:    -1.1953

  Dipole Moment: [e a0]
     X:     0.0000      Y:     0.0000      Z:     0.4346     Total:     0.4346

  Dipole Moment: [D]
     X:     0.0000      Y:     0.0000      Z:     1.1046     Total:     1.1046


*** tstop() called on n412-039.vsc4.prov at Tue Jan 26 18:36:23 2021
Module time:
	user time   =      18.47 seconds =       0.31 minutes
	system time =       1.53 seconds =       0.03 minutes
	total time  =          2 seconds =       0.03 minutes
Total time:
	user time   =      18.47 seconds =       0.31 minutes
	system time =       1.53 seconds =       0.03 minutes
	total time  =          2 seconds =       0.03 minutes

*** tstart() called on n412-039.vsc4.prov
*** at Tue Jan 26 18:36:23 2021


	Wfn Parameters:
	--------------------
	Wavefunction         = CCSD_T
	Number of irreps     = 4
	Number of MOs        = 50
	Number of active MOs = 45
	AO-Basis             = NONE
	Semicanonical        = false
	Reference            = RHF
	Print Level          = 1

	IRREP	# MOs	# FZDC	# DOCC	# SOCC	# VIRT	# FZVR
	-----	-----	------	------	------	------	------
	 A1	   22	    3	    2	    0	    17	    0
	 A2	   5	    0	    0	    0	    5	    0
	 B1	   9	    1	    1	    0	    7	    0
	 B2	   14	    1	    1	    0	    12	    0
	Transforming integrals...
	IWL integrals will be deleted.
	(OO|OO)...
	Presorting SO-basis two-electron integrals.
	Sorting File: SO Ints (nn|nn) nbuckets = 1
	Constructing frozen core operators
	Starting first half-transformation.
	Sorting half-transformed integrals.
	First half integral transformation complete.
	Starting second half-transformation.
	Two-electron integral transformation complete.
	(OO|OV)...
	Starting second half-transformation.
	Two-electron integral transformation complete.
	(OO|VV)...
	Starting second half-transformation.
	Two-electron integral transformation complete.
	(OV|OO)...
	Starting first half-transformation.
	Sorting half-transformed integrals.
	First half integral transformation complete.
	Starting second half-transformation.
	Two-electron integral transformation complete.
	(OV|OV)...
	Starting second half-transformation.
	Two-electron integral transformation complete.
	(OV|VV)...
	Starting second half-transformation.
	Two-electron integral transformation complete.
	(VV|OO)...
	Starting first half-transformation.
	Sorting half-transformed integrals.
	First half integral transformation complete.
	Starting second half-transformation.
	Two-electron integral transformation complete.
	(VV|OV)...
	Starting second half-transformation.
	Two-electron integral transformation complete.
	(VV|VV)...
	Starting second half-transformation.
	Two-electron integral transformation complete.
	Frozen core energy     =   -395.48192137777500

	Size of irrep 0 of <ab|cd> integrals:      0.257 (MW) /      2.056 (MB)
	Size of irrep 1 of <ab|cd> integrals:      0.114 (MW) /      0.914 (MB)
	Size of irrep 2 of <ab|cd> integrals:      0.128 (MW) /      1.025 (MB)
	Size of irrep 3 of <ab|cd> integrals:      0.228 (MW) /      1.828 (MB)
	Total:                                     0.728 (MW) /      5.824 (MB)

	Size of irrep 0 of <ia|bc> integrals:      0.027 (MW) /      0.215 (MB)
	Size of irrep 1 of <ia|bc> integrals:      0.010 (MW) /      0.078 (MB)
	Size of irrep 2 of <ia|bc> integrals:      0.013 (MW) /      0.103 (MB)
	Size of irrep 3 of <ia|bc> integrals:      0.022 (MW) /      0.176 (MB)
	Total:                                     0.072 (MW) /      0.572 (MB)

	Size of irrep 0 of tijab amplitudes:       0.003 (MW) /      0.024 (MB)
	Size of irrep 1 of tijab amplitudes:       0.001 (MW) /      0.005 (MB)
	Size of irrep 2 of tijab amplitudes:       0.001 (MW) /      0.011 (MB)
	Size of irrep 3 of tijab amplitudes:       0.002 (MW) /      0.015 (MB)
	Total:                                     0.007 (MW) /      0.056 (MB)

	Nuclear Rep. energy          =     12.97352394798366
	SCF energy                   =   -398.70224158485746
	One-electron energy          =    -27.46025909108851
	Two-electron energy          =     11.26641493602282
	Reference energy             =   -398.70224158485706

*** tstop() called on n412-039.vsc4.prov at Tue Jan 26 18:36:24 2021
Module time:
	user time   =       0.09 seconds =       0.00 minutes
	system time =       0.14 seconds =       0.00 minutes
	total time  =          1 seconds =       0.02 minutes
Total time:
	user time   =      18.56 seconds =       0.31 minutes
	system time =       1.67 seconds =       0.03 minutes
	total time  =          3 seconds =       0.05 minutes
            **************************
            *                        *
            *        CCENERGY        *
            *                        *
            **************************

    Nuclear Rep. energy (wfn)     =   12.973523947983656
    SCF energy          (wfn)     = -398.702241584857461
    Reference energy    (file100) = -398.702241584857063

    Input parameters:
    -----------------
    Wave function   =     CCSD_T
    Reference wfn   =     RHF
    Brueckner       =     No
    Memory (Mbytes) =     250000.0
    Maxiter         =     50
    R_Convergence   =     1.0e-07
    E_Convergence   =     1.0e-06
    Restart         =     Yes
    DIIS            =     Yes
    AO Basis        =     NONE
    ABCD            =     NEW
    Cache Level     =     2
    Cache Type      =     LOW
    Print Level     =     1
    Num. of threads =     48
    # Amps to Print =     10
    Print MP2 Amps? =     No
    Analyze T2 Amps =     No
    Print Pair Ener =     No
    Local CC        =     No
    SCS-MP2         =     False
    SCSN-MP2        =     False
    SCS-CCSD        =     False

MP2 correlation energy -0.1565074854852813
                Solving CC Amplitude Equations
                ------------------------------
  Iter             Energy              RMS        T1Diag      D1Diag    New D1Diag    D2Diag
  ----     ---------------------    ---------   ----------  ----------  ----------   --------
     0        -0.156507485485281    0.000e+00    0.000000    0.000000    0.000000    0.126621
     1        -0.174263951394596    4.460e-02    0.006433    0.011235    0.011235    0.144809
     2        -0.179962974993870    1.481e-02    0.009020    0.016535    0.016535    0.153631
     3        -0.180281645833513    3.208e-03    0.009775    0.018104    0.018104    0.155023
     4        -0.180295114494789    9.210e-04    0.009970    0.018499    0.018499    0.155404
     5        -0.180287162892658    2.230e-04    0.010017    0.018582    0.018582    0.155438
     6        -0.180285942622188    6.058e-05    0.010030    0.018596    0.018596    0.155441
     7        -0.180286544047235    1.809e-05    0.010033    0.018598    0.018598    0.155444
     8        -0.180286521069560    5.507e-06    0.010034    0.018598    0.018598    0.155444
     9        -0.180286440104931    1.672e-06    0.010034    0.018597    0.018597    0.155444
    10        -0.180286442432232    5.074e-07    0.010034    0.018597    0.018597    0.155444
    11        -0.180286450443880    1.473e-07    0.010034    0.018597    0.018597    0.155444
    12        -0.180286453455267    3.778e-08    0.010034    0.018597    0.018597    0.155444

    Iterations converged.


    Largest TIA Amplitudes:
              2  23        -0.0104717009
              3  30         0.0092742344
              1   5        -0.0087607604
              1   4        -0.0082688867
              3  31         0.0077131917
              1   3         0.0076672183
              3  32        -0.0072956699
              3  37        -0.0069322730
              1  11         0.0064294114
              1   7        -0.0049121690

    Largest TIjAb Amplitudes:
      1   1  31  31        -0.0334942025
      3   3  31  31        -0.0322415131
      2   2   3   3        -0.0319861014
      2   2  23  23        -0.0284007314
      2   2  17  17        -0.0282856495
      1   1   4   4        -0.0275829144
      2   2  25  25        -0.0273959225
      1   1  30  31        -0.0261734681
      1   1  31  30        -0.0261734681
      2   2   5   5        -0.0260693145

    SCF energy       (wfn)                    = -398.702241584857461
    Reference energy (file100)                = -398.702241584857063

    Opposite-spin MP2 correlation energy      =   -0.122292243572563
    Same-spin MP2 correlation energy          =   -0.034215241912719
    Singles MP2 correlation energy            =   -0.000000000000000
    MP2 correlation energy                    =   -0.156507485485281
      * MP2 total energy                      = -398.858749070342355

    Opposite-spin CCSD correlation energy     =   -0.146432421972277
    Same-spin CCSD correlation energy         =   -0.033854031482989
    Singles CCSD correlation energy           =    0.000000000000000
    CCSD correlation energy                   =   -0.180286453455267
      * CCSD total energy                     = -398.882528038312330

            **************************
            *                        *
            *        CCTRIPLES       *
            *                        *
            **************************


    Wave function   =    CCSD_T
    Reference wfn   =      RHF

    Nuclear Rep. energy (wfn)                =   12.973523947983656
    SCF energy          (wfn)                = -398.702241584857461
    Reference energy    (file100)            = -398.702241584857063
    CCSD energy         (file100)            =   -0.180286453455267
    Total CCSD energy   (file100)            = -398.882528038312330

    Number of ijk index combinations:               20
    Memory available in words        :     31250000000
    ~Words needed per explicit thread:           19652
    Number of threads for explicit ijk threading:   48

    (T) energy                                =   -0.005216319245238
      * CCSD(T) total energy                  = -398.887744357557551


    Psi4 stopped on: Tuesday, 26 January 2021 06:36PM
    Psi4 wall time for execution: 0:00:05.62

*** Psi4 exiting successfully. Buy a developer a beer!
