
    -----------------------------------------------------------------------
          Psi4: An Open-Source Ab Initio Electronic Structure Package
                               Psi4 1.4a3.dev88 

                         Git: Rev {master} 262e345 


    D. G. A. Smith, L. A. Burns, A. C. Simmonett, R. M. Parrish,
    M. C. Schieber, R. Galvelis, P. Kraus, H. Kruse, R. Di Remigio,
    A. Alenaizan, A. M. James, S. Lehtola, J. P. Misiewicz, M. Scheurer,
    R. A. Shaw, J. B. Schriber, Y. Xie, Z. L. Glick, D. A. Sirianni,
    J. S. O'Brien, J. M. Waldrop, A. Kumar, E. G. Hohenstein,
    B. P. Pritchard, B. R. Brooks, H. F. Schaefer III, A. Yu. Sokolov,
    K. Patkowski, A. E. DePrince III, U. Bozkaya, R. A. King,
    F. A. Evangelista, J. M. Turney, T. D. Crawford, C. D. Sherrill,
    J. Chem. Phys. 152(18) 184108 (2020). https://doi.org/10.1063/5.0006002

                            Additional Code Authors
    E. T. Seidl, C. L. Janssen, E. F. Valeev, M. L. Leininger,
    J. F. Gonthier, R. M. Richard, H. R. McAlexander, M. Saitow, X. Wang,
    P. Verma, and M. H. Lechner

             Previous Authors, Complete List of Code Contributors,
                       and Citations for Specific Modules
    https://github.com/psi4/psi4/blob/master/codemeta.json
    https://github.com/psi4/psi4/graphs/contributors
    http://psicode.org/psi4manual/master/introduction.html#citing-psifour

    -----------------------------------------------------------------------


    Psi4 started on: Wednesday, 20 January 2021 09:43PM

    Process ID: 5938
    Host:       l43
    PSIDATADIR: /home/fs71337/gallo4/psi4/psi4/build/stage/share/psi4
    Memory:     500.0 MiB
    Threads:    48
    
  ==> Input File <==

--------------------------------------------------------------------------
# Any line starting with the # character is a comment line
memory 250000 mb
molecule molecule{
0 1
S          0.0000000000        0.0000000000       -0.0547164095
H          0.0000000000       -0.9606862082        0.8701946977
H          0.0000000000        0.9606862082        0.8701946977
}

set {
  reference rhf
  basis aug-cc-pV(Q+d)Z
  scf_type OUT_OF_CORE
  freeze_core true
}

energy('ccsd(t)')
--------------------------------------------------------------------------

  Memory set to 232.831 GiB by Python driver.

Scratch directory: /tmp/

*** tstart() called on l43
*** at Wed Jan 20 21:43:09 2021

   => Loading Basis Set <=

    Name: AUG-CC-PV(Q+D)Z
    Role: ORBITAL
    Keyword: BASIS
    atoms 1   entry S          line  1164 file /home/fs71337/gallo4/psi4/psi4/build/stage/share/psi4/basis/aug-cc-pv_qpd_z.gbs 
    atoms 2-3 entry H          line    68 file /home/fs71337/gallo4/psi4/psi4/build/stage/share/psi4/basis/aug-cc-pv_qpd_z.gbs 


         ---------------------------------------------------------
                                   SCF
               by Justin Turney, Rob Parrish, Andy Simmonett
                          and Daniel G. A. Smith
                              RHF Reference
                       48 Threads, 238418 MiB Core
         ---------------------------------------------------------

  ==> Geometry <==

    Molecular point group: c2v
    Full point group: C2v

    Geometry (in Angstrom), charge = 0, multiplicity = 1:

       Center              X                  Y                   Z               Mass       
    ------------   -----------------  -----------------  -----------------  -----------------
         S            0.000000000000     0.000000000000    -0.054852077894    31.972071174400
         H            0.000000000000    -0.960686208200     0.870059029306     1.007825032230
         H           -0.000000000000     0.960686208200     0.870059029306     1.007825032230

  Running in c2v symmetry.

  Rotational constants: A =     10.39280  B =      9.06188  C =      4.84091 [cm^-1]
  Rotational constants: A = 311568.36069  B = 271668.29099  C = 145126.75743 [MHz]
  Nuclear repulsion =   12.973523947983656

  Charge       = 0
  Multiplicity = 1
  Electrons    = 18
  Nalpha       = 9
  Nbeta        = 9

  ==> Algorithm <==

  SCF Algorithm Type is OUT_OF_CORE.
  DIIS enabled.
  MOM disabled.
  Fractional occupation disabled.
  Guess Type is SAD.
  Energy threshold   = 1.00e-08
  Density threshold  = 1.00e-08
  Integral threshold = 1.00e-12

  ==> Primary Basis <==

  Basis Set: AUG-CC-PV(Q+D)Z
    Blend: AUG-CC-PV(Q+D)Z
    Number of shells: 51
    Number of basis function: 181
    Number of Cartesian functions: 225
    Spherical Harmonics?: true
    Max angular momentum: 4

  ==> Integral Setup <==

  ==> DiskJK: Disk-Based J/K Matrices <==

    J tasked:                  Yes
    K tasked:                  Yes
    wK tasked:                  No
    Memory [MiB]:           178813
    Schwarz Cutoff:          1E-12

  Minimum eigenvalue in the overlap matrix is 5.7643555753E-05.
  Reciprocal condition number of the overlap matrix is 8.6626052443E-06.
    Using symmetric orthogonalization.

  ==> Pre-Iterations <==

  SCF Guess: Superposition of Atomic Densities via on-the-fly atomic UHF (no occupation information).


 WARNING: Atomic UHF is not converging! Try casting from a smaller basis or call Rob at CCMST.

 WARNING: Atomic UHF is not converging! Try casting from a smaller basis or call Rob at CCMST.
   -------------------------
    Irrep   Nso     Nmo    
   -------------------------
     A1        65      65 
     A2        28      28 
     B1        37      37 
     B2        51      51 
   -------------------------
    Total     181     181
   -------------------------

  ==> Iterations <==

                        Total Energy        Delta E     RMS |[F,P]|

   @RHF iter SAD:  -395.57515216906313   -3.95575e+02   0.00000e+00 
   @RHF iter   1:  -398.65188106586533   -3.07673e+00   3.58756e-03 DIIS
   @RHF iter   2:  -398.71062685625441   -5.87458e-02   1.35117e-03 DIIS
   @RHF iter   3:  -398.71822152242623   -7.59467e-03   2.72438e-04 DIIS
   @RHF iter   4:  -398.71932808287102   -1.10656e-03   6.43185e-05 DIIS
   @RHF iter   5:  -398.71939195542399   -6.38726e-05   1.07439e-05 DIIS
   @RHF iter   6:  -398.71939320292086   -1.24750e-06   2.42691e-06 DIIS
   @RHF iter   7:  -398.71939328258878   -7.96679e-08   6.12850e-07 DIIS
   @RHF iter   8:  -398.71939328918222   -6.59344e-09   1.24815e-07 DIIS
   @RHF iter   9:  -398.71939328946110   -2.78874e-10   1.67697e-08 DIIS
   @RHF iter  10:  -398.71939328946559   -4.49063e-12   2.79784e-09 DIIS
  Energy and wave function converged.


  ==> Post-Iterations <==

    Orbital Energies [Eh]
    ---------------------

    Doubly Occupied:                                                      

       1A1   -91.963746     2A1    -8.966920     1B2    -6.648518  
       3A1    -6.647754     1B1    -6.646609     4A1    -0.982304  
       2B2    -0.591155     5A1    -0.502440     2B1    -0.385290  

    Virtual:                                                              

       6A1     0.025154     3B2     0.043792     7A1     0.075370  
       3B1     0.084241     4B2     0.097658     8A1     0.118501  
       5B2     0.147941     9A1     0.177118    10A1     0.187490  
       1A2     0.194149     4B1     0.196944     6B2     0.231360  
      11A1     0.254811     7B2     0.263027    12A1     0.267998  
       5B1     0.272288     2A2     0.276777     8B2     0.297130  
      13A1     0.315796     9B2     0.423852    14A1     0.423896  
      15A1     0.441920     6B1     0.445690    16A1     0.471422  
       3A2     0.489030     7B1     0.499355     8B1     0.553778  
      10B2     0.594688    17A1     0.612672    11B2     0.618520  
      12B2     0.641666    18A1     0.650286     4A2     0.656366  
       9B1     0.657182    19A1     0.715065    13B2     0.722145  
      20A1     0.736086     5A2     0.749984    14B2     0.750752  
      10B1     0.752116    21A1     0.798641    11B1     0.809618  
      22A1     0.812559     6A2     0.815977    15B2     0.910335  
      16B2     0.979179    23A1     0.991928    24A1     1.210686  
      17B2     1.219088    12B1     1.225590     7A2     1.232999  
      25A1     1.243874    18B2     1.251363    26A1     1.332850  
      13B1     1.341428     8A2     1.348531    27A1     1.453984  
      19B2     1.481709    14B1     1.515897    28A1     1.546459  
      15B1     1.548721    29A1     1.565078    20B2     1.598346  
       9A2     1.611872    16B1     1.626910    17B1     1.644851  
      30A1     1.650547    21B2     1.654063    10A2     1.658090  
      31A1     1.672775    32A1     1.734602    18B1     1.776104  
      22B2     1.785919    11A2     1.786152    23B2     1.807918  
      19B1     1.817133    33A1     1.852939    24B2     1.877518  
      34A1     1.928865    12A2     1.941391    25B2     1.974542  
      26B2     2.048376    20B1     2.055950    35A1     2.065713  
      36A1     2.167239    13A2     2.193721    14A2     2.289723  
      27B2     2.317053    37A1     2.361723    21B1     2.361968  
      28B2     2.493625    29B2     2.507364    38A1     2.535067  
      39A1     2.820382    15A2     2.835325    30B2     2.878152  
      40A1     2.921902    22B1     2.924593    16A2     2.988658  
      41A1     3.060353    23B1     3.064148    31B2     3.137510  
      42A1     3.162398    17A2     3.190944    24B1     3.239553  
      43A1     3.311180    32B2     3.478665    44A1     3.604829  
      33B2     3.605956    25B1     3.619733    18A2     3.629294  
      34B2     3.652441    26B1     3.703633    45A1     3.754699  
      46A1     3.798444    35B2     3.876262    47A1     3.888145  
      27B1     3.922947    19A2     3.960359    36B2     4.003703  
      20A2     4.019693    28B1     4.061272    48A1     4.112155  
      37B2     4.385005    49A1     4.394157    29B1     4.581253  
      50A1     4.595082    38B2     4.719414    21A2     4.770245  
      51A1     4.866976    39B2     4.919551    30B1     6.006021  
      31B1     6.619979    40B2     6.620033    22A2     6.647820  
      52A1     6.675787    53A1     6.821253    41B2     6.839254  
      23A2     6.922316    42B2     7.016382    32B1     7.119167  
      54A1     7.137647    43B2     7.353562    55A1     7.404176  
      33B1     7.426905    24A2     7.432124    56A1     7.614349  
      44B2     7.723796    45B2     8.240571    57A1     8.245560  
      25A2     8.608713    34B1     8.615953    46B2     8.625478  
      26A2     8.663066    58A1     8.665192    35B1     8.761711  
      59A1     8.894052    47B2     8.933631    27A2     9.248700  
      36B1     9.284723    60A1     9.327467    48B2     9.555771  
      61A1     9.567148    28A2     9.593011    37B1     9.593479  
      49B2     9.707795    62A1     9.779339    63A1     9.801243  
      50B2    10.183766    64A1    10.885697    51B2    11.836724  
      65A1    22.042825  

    Final Occupation by Irrep:
             A1    A2    B1    B2 
    DOCC [     5,    0,    2,    2 ]

  @RHF Final Energy:  -398.71939328946559

   => Energetics <=

    Nuclear Repulsion Energy =             12.9735239479836562
    One-Electron Energy =                -576.7163614454730123
    Two-Electron Energy =                 165.0234442080238182
    Total Energy =                       -398.7193932894655859

Computation Completed


Properties will be evaluated at   0.000000,   0.000000,   0.000000 [a0]

Properties computed using the SCF density matrix

  Nuclear Dipole Moment: [e a0]
     X:     0.0000      Y:     0.0000      Z:     1.6299

  Electronic Dipole Moment: [e a0]
     X:     0.0000      Y:     0.0000      Z:    -1.2091

  Dipole Moment: [e a0]
     X:     0.0000      Y:     0.0000      Z:     0.4208     Total:     0.4208

  Dipole Moment: [D]
     X:     0.0000      Y:     0.0000      Z:     1.0695     Total:     1.0695


*** tstop() called on l43 at Wed Jan 20 21:43:35 2021
Module time:
	user time   =      27.61 seconds =       0.46 minutes
	system time =       6.91 seconds =       0.12 minutes
	total time  =         26 seconds =       0.43 minutes
Total time:
	user time   =      27.61 seconds =       0.46 minutes
	system time =       6.91 seconds =       0.12 minutes
	total time  =         26 seconds =       0.43 minutes

*** tstart() called on l43
*** at Wed Jan 20 21:43:35 2021


	Wfn Parameters:
	--------------------
	Wavefunction         = CCSD_T
	Number of irreps     = 4
	Number of MOs        = 181
	Number of active MOs = 176
	AO-Basis             = NONE
	Semicanonical        = false
	Reference            = RHF
	Print Level          = 1

	IRREP	# MOs	# FZDC	# DOCC	# SOCC	# VIRT	# FZVR
	-----	-----	------	------	------	------	------
	 A1	   65	    3	    2	    0	    60	    0
	 A2	   28	    0	    0	    0	    28	    0
	 B1	   37	    1	    1	    0	    35	    0
	 B2	   51	    1	    1	    0	    49	    0
	Transforming integrals...
	IWL integrals will be deleted.
	(OO|OO)...
	Presorting SO-basis two-electron integrals.
	Sorting File: SO Ints (nn|nn) nbuckets = 1
	Constructing frozen core operators
	Starting first half-transformation.
	Sorting half-transformed integrals.
	First half integral transformation complete.
	Starting second half-transformation.
	Two-electron integral transformation complete.
	(OO|OV)...
	Starting second half-transformation.
	Two-electron integral transformation complete.
	(OO|VV)...
	Starting second half-transformation.
	Two-electron integral transformation complete.
	(OV|OO)...
	Starting first half-transformation.
	Sorting half-transformed integrals.
	First half integral transformation complete.
	Starting second half-transformation.
	Two-electron integral transformation complete.
	(OV|OV)...
	Starting second half-transformation.
	Two-electron integral transformation complete.
	(OV|VV)...
	Starting second half-transformation.
	Two-electron integral transformation complete.
	(VV|OO)...
	Starting first half-transformation.
	Sorting half-transformed integrals.
	First half integral transformation complete.
	Starting second half-transformation.
	Two-electron integral transformation complete.
	(VV|OV)...
	Starting second half-transformation.
	Two-electron integral transformation complete.
	(VV|VV)...
	Starting second half-transformation.
	Two-electron integral transformation complete.
	Frozen core energy     =   -395.48955840544699

	Size of irrep 0 of <ab|cd> integrals:     64.160 (MW) /    513.281 (MB)
	Size of irrep 1 of <ab|cd> integrals:     46.104 (MW) /    368.833 (MB)
	Size of irrep 2 of <ab|cd> integrals:     48.219 (MW) /    385.753 (MB)
	Size of irrep 3 of <ab|cd> integrals:     61.466 (MW) /    491.725 (MB)
	Total:                                   219.949 (MW) /   1759.591 (MB)

	Size of irrep 0 of <ia|bc> integrals:      1.634 (MW) /     13.072 (MB)
	Size of irrep 1 of <ia|bc> integrals:      0.951 (MW) /      7.605 (MB)
	Size of irrep 2 of <ia|bc> integrals:      1.097 (MW) /      8.777 (MB)
	Size of irrep 3 of <ia|bc> integrals:      1.458 (MW) /     11.666 (MB)
	Total:                                     5.140 (MW) /     41.120 (MB)

	Size of irrep 0 of tijab amplitudes:       0.048 (MW) /      0.384 (MB)
	Size of irrep 1 of tijab amplitudes:       0.014 (MW) /      0.109 (MB)
	Size of irrep 2 of tijab amplitudes:       0.028 (MW) /      0.222 (MB)
	Size of irrep 3 of tijab amplitudes:       0.031 (MW) /      0.251 (MB)
	Total:                                     0.121 (MW) /      0.966 (MB)

	Nuclear Rep. energy          =     12.97352394798366
	SCF energy                   =   -398.71939328946559
	One-electron energy          =    -27.48433861238426
	Two-electron energy          =     11.28097978038088
	Reference energy             =   -398.71939328946672

*** tstop() called on l43 at Wed Jan 20 21:43:56 2021
Module time:
	user time   =      14.18 seconds =       0.24 minutes
	system time =       7.50 seconds =       0.12 minutes
	total time  =         21 seconds =       0.35 minutes
Total time:
	user time   =      41.79 seconds =       0.70 minutes
	system time =      14.41 seconds =       0.24 minutes
	total time  =         47 seconds =       0.78 minutes
            **************************
            *                        *
            *        CCENERGY        *
            *                        *
            **************************

    Nuclear Rep. energy (wfn)     =   12.973523947983656
    SCF energy          (wfn)     = -398.719393289465586
    Reference energy    (file100) = -398.719393289466723

    Input parameters:
    -----------------
    Wave function   =     CCSD_T
    Reference wfn   =     RHF
    Brueckner       =     No
    Memory (Mbytes) =     250000.0
    Maxiter         =     50
    R_Convergence   =     1.0e-07
    E_Convergence   =     1.0e-06
    Restart         =     Yes
    DIIS            =     Yes
    AO Basis        =     NONE
    ABCD            =     NEW
    Cache Level     =     2
    Cache Type      =     LOW
    Print Level     =     1
    Num. of threads =     48
    # Amps to Print =     10
    Print MP2 Amps? =     No
    Analyze T2 Amps =     No
    Print Pair Ener =     No
    Local CC        =     No
    SCS-MP2         =     False
    SCSN-MP2        =     False
    SCS-CCSD        =     False

MP2 correlation energy -0.2085589603950481
                Solving CC Amplitude Equations
                ------------------------------
  Iter             Energy              RMS        T1Diag      D1Diag    New D1Diag    D2Diag
  ----     ---------------------    ---------   ----------  ----------  ----------   --------
     0        -0.208558960395048    0.000e+00    0.000000    0.000000    0.000000    0.137143
     1        -0.223419602349036    4.364e-02    0.006995    0.011737    0.011737    0.150702
     2        -0.229661390678515    1.462e-02    0.009059    0.015455    0.015455    0.157866
     3        -0.229994052291003    3.728e-03    0.009966    0.017128    0.017128    0.159160
     4        -0.229980184530777    1.175e-03    0.010286    0.017766    0.017766    0.159581
     5        -0.229980114963403    2.894e-04    0.010358    0.017926    0.017926    0.159618
     6        -0.229977444705151    9.210e-05    0.010384    0.017995    0.017995    0.159614
     7        -0.229977425311675    2.526e-05    0.010391    0.018015    0.018015    0.159613
     8        -0.229977672798023    7.362e-06    0.010392    0.018021    0.018021    0.159613
     9        -0.229977584273345    2.251e-06    0.010392    0.018023    0.018023    0.159613
    10        -0.229977560214518    7.205e-07    0.010392    0.018023    0.018023    0.159613
    11        -0.229977572194822    2.153e-07    0.010392    0.018023    0.018023    0.159613
    12        -0.229977578055917    7.179e-08    0.010392    0.018023    0.018023    0.159613

    Iterations converged.


    Largest TIA Amplitudes:
              3 125         0.0105494376
              1   3         0.0100916195
              1   9        -0.0094062881
              2  89        -0.0086832464
              2  92         0.0082767135
              3 126         0.0076911024
              3 124        -0.0066460894
              3 128        -0.0060053233
              1  11        -0.0055552610
              3 130         0.0050920969

    Largest TIjAb Amplitudes:
      2   2  92  92        -0.0270801665
      2   2  62  62        -0.0269919845
      1   1  10  10        -0.0260030323
      1   1 125 125        -0.0219442071
      3   3 125 125        -0.0202987723
      2   2  10  10        -0.0201640528
      2   2  91  91        -0.0201268989
      3   3   9   9        -0.0196615500
      1   1  92  92        -0.0188295819
      1   1 125 126        -0.0183851700

    SCF energy       (wfn)                    = -398.719393289465586
    Reference energy (file100)                = -398.719393289466723

    Opposite-spin MP2 correlation energy      =   -0.167459814179727
    Same-spin MP2 correlation energy          =   -0.041099146215321
    Singles MP2 correlation energy            =   -0.000000000000000
    MP2 correlation energy                    =   -0.208558960395048
      * MP2 total energy                      = -398.927952249861789

    Opposite-spin CCSD correlation energy     =   -0.189549974929732
    Same-spin CCSD correlation energy         =   -0.040427603126190
    Singles CCSD correlation energy           =    0.000000000000000
    CCSD correlation energy                   =   -0.229977578055917
      * CCSD total energy                     = -398.949370867522646

            **************************
            *                        *
            *        CCTRIPLES       *
            *                        *
            **************************


    Wave function   =    CCSD_T
    Reference wfn   =      RHF

    Nuclear Rep. energy (wfn)                =   12.973523947983656
    SCF energy          (wfn)                = -398.719393289465586
    Reference energy    (file100)            = -398.719393289466723
    CCSD energy         (file100)            =   -0.229977578055917
    Total CCSD energy   (file100)            = -398.949370867522646

    Number of ijk index combinations:               20
    Memory available in words        :     31250000000
    ~Words needed per explicit thread:          864000
    Number of threads for explicit ijk threading:   48

    (T) energy                                =   -0.009600393833041
      * CCSD(T) total energy                  = -398.958971261355657


    Psi4 stopped on: Wednesday, 20 January 2021 09:44PM
    Psi4 wall time for execution: 0:01:00.93

*** Psi4 exiting successfully. Buy a developer a beer!
