
    -----------------------------------------------------------------------
          Psi4: An Open-Source Ab Initio Electronic Structure Package
                               Psi4 1.4a3.dev88 

                         Git: Rev {master} 262e345 


    D. G. A. Smith, L. A. Burns, A. C. Simmonett, R. M. Parrish,
    M. C. Schieber, R. Galvelis, P. Kraus, H. Kruse, R. Di Remigio,
    A. Alenaizan, A. M. James, S. Lehtola, J. P. Misiewicz, M. Scheurer,
    R. A. Shaw, J. B. Schriber, Y. Xie, Z. L. Glick, D. A. Sirianni,
    J. S. O'Brien, J. M. Waldrop, A. Kumar, E. G. Hohenstein,
    B. P. Pritchard, B. R. Brooks, H. F. Schaefer III, A. Yu. Sokolov,
    K. Patkowski, A. E. DePrince III, U. Bozkaya, R. A. King,
    F. A. Evangelista, J. M. Turney, T. D. Crawford, C. D. Sherrill,
    J. Chem. Phys. 152(18) 184108 (2020). https://doi.org/10.1063/5.0006002

                            Additional Code Authors
    E. T. Seidl, C. L. Janssen, E. F. Valeev, M. L. Leininger,
    J. F. Gonthier, R. M. Richard, H. R. McAlexander, M. Saitow, X. Wang,
    P. Verma, and M. H. Lechner

             Previous Authors, Complete List of Code Contributors,
                       and Citations for Specific Modules
    https://github.com/psi4/psi4/blob/master/codemeta.json
    https://github.com/psi4/psi4/graphs/contributors
    http://psicode.org/psi4manual/master/introduction.html#citing-psifour

    -----------------------------------------------------------------------


    Psi4 started on: Tuesday, 26 January 2021 06:37PM

    Process ID: 411277
    Host:       n412-039.vsc4.prov
    PSIDATADIR: /home/fs71337/gallo4/psi4/eri-6/psi4/build/stage/share/psi4
    Memory:     500.0 MiB
    Threads:    48
    
  ==> Input File <==

--------------------------------------------------------------------------
# Any line starting with the # character is a comment line
memory 250000 mb
molecule molecule{
0 1
Si         0.0000000000        0.0000000000        0.0702843410
H          0.0000000000        1.0886337008       -0.9792104977
H          0.0000000000       -1.0886337008       -0.9792104977
}

set {
  reference rhf
  basis aug-cc-pV(d+d)Z
  scf_type OUT_OF_CORE
  freeze_core true
}

energy('ccsd(t)')
--------------------------------------------------------------------------

  Memory set to 232.831 GiB by Python driver.

Scratch directory: /binfl/lv71337/airmler/temp/

*** tstart() called on n412-039.vsc4.prov
*** at Tue Jan 26 18:37:32 2021

   => Loading Basis Set <=

    Name: AUG-CC-PV(D+D)Z
    Role: ORBITAL
    Keyword: BASIS
    atoms 1   entry SI         line   604 file /home/fs71337/gallo4/psi4/eri-6/psi4/build/stage/share/psi4/basis/aug-cc-pv_dpd_z.gbs 
    atoms 2-3 entry H          line    68 file /home/fs71337/gallo4/psi4/eri-6/psi4/build/stage/share/psi4/basis/aug-cc-pv_dpd_z.gbs 


         ---------------------------------------------------------
                                   SCF
               by Justin Turney, Rob Parrish, Andy Simmonett
                          and Daniel G. A. Smith
                              RHF Reference
                       48 Threads, 238418 MiB Core
         ---------------------------------------------------------

  ==> Geometry <==

    Molecular point group: c2v
    Full point group: C2v

    Geometry (in Angstrom), charge = 0, multiplicity = 1:

       Center              X                  Y                   Z               Mass       
    ------------   -----------------  -----------------  -----------------  -----------------
         SI          -0.000000000000     0.000000000000     0.070531264037    27.976926534650
         H           -0.000000000000     1.088633700800    -0.978963574663     1.007825032230
         H            0.000000000000    -1.088633700800    -0.978963574663     1.007825032230

  Running in c2v symmetry.

  Rotational constants: A =      8.14019  B =      7.05696  C =      3.77999 [cm^-1]
  Rotational constants: A = 244036.74440  B = 211562.41375  C = 113321.11082 [MHz]
  Nuclear repulsion =   10.041727103643940

  Charge       = 0
  Multiplicity = 1
  Electrons    = 16
  Nalpha       = 8
  Nbeta        = 8

  ==> Algorithm <==

  SCF Algorithm Type is OUT_OF_CORE.
  DIIS enabled.
  MOM disabled.
  Fractional occupation disabled.
  Guess Type is SAD.
  Energy threshold   = 1.00e-08
  Density threshold  = 1.00e-08
  Integral threshold = 1.00e-12

  ==> Primary Basis <==

  Basis Set: AUG-CC-PV(D+D)Z
    Blend: AUG-CC-PV(D+D)Z
    Number of shells: 22
    Number of basis function: 50
    Number of Cartesian functions: 53
    Spherical Harmonics?: true
    Max angular momentum: 2

  ==> Integral Setup <==

  ==> DiskJK: Disk-Based J/K Matrices <==

    J tasked:                  Yes
    K tasked:                  Yes
    wK tasked:                  No
    Memory [MiB]:           178813
    Schwarz Cutoff:          1E-12

  Minimum eigenvalue in the overlap matrix is 1.1913984989E-03.
  Reciprocal condition number of the overlap matrix is 2.6083222965E-04.
    Using symmetric orthogonalization.

  ==> Pre-Iterations <==

  SCF Guess: Superposition of Atomic Densities via on-the-fly atomic UHF (no occupation information).


 WARNING: Atomic UHF is not converging! Try casting from a smaller basis or call Rob at CCMST.
   -------------------------
    Irrep   Nso     Nmo    
   -------------------------
     A1        22      22 
     A2         5       5 
     B1         9       9 
     B2        14      14 
   -------------------------
    Total      50      50
   -------------------------

  ==> Iterations <==

                        Total Energy        Delta E     RMS |[F,P]|

   @RHF iter SAD:  -288.45507615865262   -2.88455e+02   0.00000e+00 
   @RHF iter   1:  -290.01015175303195   -1.55508e+00   3.63165e-03 DIIS
   @RHF iter   2:  -290.02145912848874   -1.13074e-02   8.99393e-04 DIIS
   @RHF iter   3:  -290.02254442300608   -1.08529e-03   2.82577e-04 DIIS
   @RHF iter   4:  -290.02269874692632   -1.54324e-04   5.33341e-05 DIIS
   @RHF iter   5:  -290.02270495949500   -6.21257e-06   6.66318e-06 DIIS
   @RHF iter   6:  -290.02270504675755   -8.72625e-08   6.78975e-07 DIIS
   @RHF iter   7:  -290.02270504735014   -5.92593e-10   1.20979e-07 DIIS
   @RHF iter   8:  -290.02270504737595   -2.58069e-11   3.18926e-08 DIIS
   @RHF iter   9:  -290.02270504737828   -2.33058e-12   5.38855e-09 DIIS
  Energy and wave function converged.


  ==> Post-Iterations <==

    Orbital Energies [Eh]
    ---------------------

    Doubly Occupied:                                                      

       1A1   -68.805477     2A1    -6.149016     1B1    -4.252932  
       1B2    -4.250492     3A1    -4.249423     4A1    -0.676732  
       2B2    -0.459160     5A1    -0.337943  

    Virtual:                                                              

       2B1    -0.002924     6A1     0.043488     3B2     0.061914  
       7A1     0.072248     4B2     0.090911     3B1     0.093397  
       8A1     0.146442     5B2     0.181866     9A1     0.205839  
      10A1     0.216744     1A2     0.217039     4B1     0.219167  
      11A1     0.358214     6B2     0.360242    12A1     0.366870  
       7B2     0.390384     2A2     0.453776    13A1     0.466097  
       5B1     0.470254     8B2     0.502086     6B1     0.557228  
      14A1     0.623446     9B2     0.642856     3A2     0.684569  
       7B1     0.693149    15A1     0.701983    16A1     0.734695  
      17A1     0.906271    10B2     0.964133    18A1     1.128563  
      11B2     1.295149    12B2     1.826749     4A2     1.901184  
       8B1     1.950093    19A1     2.019558    13B2     2.206992  
      20A1     2.240268     5A2     3.343991     9B1     3.350249  
      21A1     3.371495    22A1     3.392755    14B2     3.456751  

    Final Occupation by Irrep:
             A1    A2    B1    B2 
    DOCC [     5,    0,    1,    2 ]

  @RHF Final Energy:  -290.02270504737828

   => Energetics <=

    Nuclear Repulsion Energy =             10.0417271036439395
    One-Electron Energy =                -421.7665157788293300
    Two-Electron Energy =                 121.7020836278070988
    Total Energy =                       -290.0227050473782811

Computation Completed


Properties will be evaluated at   0.000000,   0.000000,   0.000000 [a0]

Properties computed using the SCF density matrix

  Nuclear Dipole Moment: [e a0]
     X:     0.0000      Y:     0.0000      Z:    -1.8340

  Electronic Dipole Moment: [e a0]
     X:     0.0000      Y:     0.0000      Z:     1.7076

  Dipole Moment: [e a0]
     X:     0.0000      Y:     0.0000      Z:    -0.1263     Total:     0.1263

  Dipole Moment: [D]
     X:     0.0000      Y:     0.0000      Z:    -0.3211     Total:     0.3211


*** tstop() called on n412-039.vsc4.prov at Tue Jan 26 18:37:35 2021
Module time:
	user time   =      17.28 seconds =       0.29 minutes
	system time =       1.71 seconds =       0.03 minutes
	total time  =          3 seconds =       0.05 minutes
Total time:
	user time   =      17.28 seconds =       0.29 minutes
	system time =       1.71 seconds =       0.03 minutes
	total time  =          3 seconds =       0.05 minutes

*** tstart() called on n412-039.vsc4.prov
*** at Tue Jan 26 18:37:35 2021


	Wfn Parameters:
	--------------------
	Wavefunction         = CCSD_T
	Number of irreps     = 4
	Number of MOs        = 50
	Number of active MOs = 45
	AO-Basis             = NONE
	Semicanonical        = false
	Reference            = RHF
	Print Level          = 1

	IRREP	# MOs	# FZDC	# DOCC	# SOCC	# VIRT	# FZVR
	-----	-----	------	------	------	------	------
	 A1	   22	    3	    2	    0	    17	    0
	 A2	   5	    0	    0	    0	    5	    0
	 B1	   9	    1	    0	    0	    8	    0
	 B2	   14	    1	    1	    0	    12	    0
	Transforming integrals...
	IWL integrals will be deleted.
	(OO|OO)...
	Presorting SO-basis two-electron integrals.
	Sorting File: SO Ints (nn|nn) nbuckets = 1
	Constructing frozen core operators
	Starting first half-transformation.
	Sorting half-transformed integrals.
	First half integral transformation complete.
	Starting second half-transformation.
	Two-electron integral transformation complete.
	(OO|OV)...
	Starting second half-transformation.
	Two-electron integral transformation complete.
	(OO|VV)...
	Starting second half-transformation.
	Two-electron integral transformation complete.
	(OV|OO)...
	Starting first half-transformation.
	Sorting half-transformed integrals.
	First half integral transformation complete.
	Starting second half-transformation.
	Two-electron integral transformation complete.
	(OV|OV)...
	Starting second half-transformation.
	Two-electron integral transformation complete.
	(OV|VV)...
	Starting second half-transformation.
	Two-electron integral transformation complete.
	(VV|OO)...
	Starting first half-transformation.
	Sorting half-transformed integrals.
	First half integral transformation complete.
	Starting second half-transformation.
	Two-electron integral transformation complete.
	(VV|OV)...
	Starting second half-transformation.
	Two-electron integral transformation complete.
	(VV|VV)...
	Starting second half-transformation.
	Two-electron integral transformation complete.
	Frozen core energy     =   -292.17050161529028

	Size of irrep 0 of <ab|cd> integrals:      0.272 (MW) /      2.180 (MB)
	Size of irrep 1 of <ab|cd> integrals:      0.131 (MW) /      1.048 (MB)
	Size of irrep 2 of <ab|cd> integrals:      0.154 (MW) /      1.229 (MB)
	Size of irrep 3 of <ab|cd> integrals:      0.238 (MW) /      1.905 (MB)
	Total:                                     0.795 (MW) /      6.363 (MB)

	Size of irrep 0 of <ia|bc> integrals:      0.024 (MW) /      0.192 (MB)
	Size of irrep 1 of <ia|bc> integrals:      0.007 (MW) /      0.052 (MB)
	Size of irrep 2 of <ia|bc> integrals:      0.008 (MW) /      0.066 (MB)
	Size of irrep 3 of <ia|bc> integrals:      0.020 (MW) /      0.160 (MB)
	Total:                                     0.059 (MW) /      0.470 (MB)

	Size of irrep 0 of tijab amplitudes:       0.003 (MW) /      0.021 (MB)
	Size of irrep 1 of tijab amplitudes:       0.000 (MW) /      0.000 (MB)
	Size of irrep 2 of tijab amplitudes:       0.000 (MW) /      0.000 (MB)
	Size of irrep 3 of tijab amplitudes:       0.002 (MW) /      0.016 (MB)
	Total:                                     0.005 (MW) /      0.036 (MB)

	Nuclear Rep. energy          =     10.04172710364394
	SCF energy                   =   -290.02270504737828
	One-electron energy          =    -12.84019181158215
	Two-electron energy          =      4.94626127585029
	Reference energy             =   -290.02270504737817

*** tstop() called on n412-039.vsc4.prov at Tue Jan 26 18:37:36 2021
Module time:
	user time   =       0.10 seconds =       0.00 minutes
	system time =       0.12 seconds =       0.00 minutes
	total time  =          1 seconds =       0.02 minutes
Total time:
	user time   =      17.38 seconds =       0.29 minutes
	system time =       1.83 seconds =       0.03 minutes
	total time  =          4 seconds =       0.07 minutes
            **************************
            *                        *
            *        CCENERGY        *
            *                        *
            **************************

    Nuclear Rep. energy (wfn)     =   10.041727103643940
    SCF energy          (wfn)     = -290.022705047378281
    Reference energy    (file100) = -290.022705047378167

    Input parameters:
    -----------------
    Wave function   =     CCSD_T
    Reference wfn   =     RHF
    Brueckner       =     No
    Memory (Mbytes) =     250000.0
    Maxiter         =     50
    R_Convergence   =     1.0e-07
    E_Convergence   =     1.0e-06
    Restart         =     Yes
    DIIS            =     Yes
    AO Basis        =     NONE
    ABCD            =     NEW
    Cache Level     =     2
    Cache Type      =     LOW
    Print Level     =     1
    Num. of threads =     48
    # Amps to Print =     10
    Print MP2 Amps? =     No
    Analyze T2 Amps =     No
    Print Pair Ener =     No
    Local CC        =     No
    SCS-MP2         =     False
    SCSN-MP2        =     False
    SCS-CCSD        =     False

MP2 correlation energy -0.0929413202874307
                Solving CC Amplitude Equations
                ------------------------------
  Iter             Energy              RMS        T1Diag      D1Diag    New D1Diag    D2Diag
  ----     ---------------------    ---------   ----------  ----------  ----------   --------
     0        -0.092941320287431    0.000e+00    0.000000    0.000000    0.000000    0.143902
     1        -0.113026720955565    6.234e-02    0.006545    0.012408    0.012408    0.187380
     2        -0.121831055559020    2.681e-02    0.011606    0.022617    0.022617    0.216754
     3        -0.122252652727385    8.599e-03    0.013599    0.026842    0.026842    0.226024
     4        -0.122353799156705    2.957e-03    0.014097    0.028048    0.028048    0.228998
     5        -0.122353461422870    1.113e-03    0.014161    0.028284    0.028284    0.229640
     6        -0.122345346412972    3.798e-04    0.014131    0.028272    0.028272    0.229747
     7        -0.122350258329116    1.285e-04    0.014116    0.028254    0.028254    0.229812
     8        -0.122350187880040    4.261e-05    0.014108    0.028238    0.028238    0.229825
     9        -0.122349227852578    1.322e-05    0.014104    0.028230    0.028230    0.229823
    10        -0.122349203062260    4.369e-06    0.014104    0.028228    0.028228    0.229824
    11        -0.122349254266582    1.284e-06    0.014103    0.028228    0.028228    0.229824
    12        -0.122349299953749    3.521e-07    0.014103    0.028228    0.028228    0.229824
    13        -0.122349296024453    9.325e-08    0.014103    0.028228    0.028228    0.229824

    Iterations converged.


    Largest TIA Amplitudes:
              1   4         0.0160939889
              2  32         0.0137903246
              0   3         0.0130044689
              1   3        -0.0111237365
              1   0         0.0067131714
              1   6        -0.0065071131
              2  30        -0.0065049614
              0   8         0.0058868313
              2  36        -0.0055354442
              0   4        -0.0053139496

    Largest TIjAb Amplitudes:
      1   1  22  22        -0.0846409058
      1   1  32  32        -0.0625500378
      1   1  22  23        -0.0458689815
      1   1  23  22        -0.0458689815
      1   1  22  24         0.0373742239
      1   1  24  22         0.0373742239
      1   1   4   4        -0.0350751150
      2   2  32  32        -0.0326756777
      0   0  22  22        -0.0326556396
      1   1  22  27         0.0309298452

    SCF energy       (wfn)                    = -290.022705047378281
    Reference energy (file100)                = -290.022705047378167

    Opposite-spin MP2 correlation energy      =   -0.083050559578615
    Same-spin MP2 correlation energy          =   -0.009890760708816
    Singles MP2 correlation energy            =   -0.000000000000000
    MP2 correlation energy                    =   -0.092941320287431
      * MP2 total energy                      = -290.115646367665590

    Opposite-spin CCSD correlation energy     =   -0.111525555270369
    Same-spin CCSD correlation energy         =   -0.010823740754084
    Singles CCSD correlation energy           =    0.000000000000000
    CCSD correlation energy                   =   -0.122349296024453
      * CCSD total energy                     = -290.145054343402649

            **************************
            *                        *
            *        CCTRIPLES       *
            *                        *
            **************************


    Wave function   =    CCSD_T
    Reference wfn   =      RHF

    Nuclear Rep. energy (wfn)                =   10.041727103643940
    SCF energy          (wfn)                = -290.022705047378281
    Reference energy    (file100)            = -290.022705047378167
    CCSD energy         (file100)            =   -0.122349296024453
    Total CCSD energy   (file100)            = -290.145054343402649

    Number of ijk index combinations:               10
    Memory available in words        :     31250000000
    ~Words needed per explicit thread:           19652
    Number of threads for explicit ijk threading:   48

    (T) energy                                =   -0.002754421602159
      * CCSD(T) total energy                  = -290.147808765004754


    Psi4 stopped on: Tuesday, 26 January 2021 06:37PM
    Psi4 wall time for execution: 0:00:05.65

*** Psi4 exiting successfully. Buy a developer a beer!
