
    -----------------------------------------------------------------------
          Psi4: An Open-Source Ab Initio Electronic Structure Package
                               Psi4 1.2a1.dev939 

                         Git: Rev {HEAD} fa1ec19 dirty


    R. M. Parrish, L. A. Burns, D. G. A. Smith, A. C. Simmonett,
    A. E. DePrince III, E. G. Hohenstein, U. Bozkaya, A. Yu. Sokolov,
    R. Di Remigio, R. M. Richard, J. F. Gonthier, A. M. James,
    H. R. McAlexander, A. Kumar, M. Saitow, X. Wang, B. P. Pritchard,
    P. Verma, H. F. Schaefer III, K. Patkowski, R. A. King, E. F. Valeev,
    F. A. Evangelista, J. M. Turney, T. D. Crawford, and C. D. Sherrill,
    J. Chem. Theory Comput. 13(7) pp 3185--3197 (2017).
    (doi: 10.1021/acs.jctc.7b00174)

    -----------------------------------------------------------------------


    Psi4 started on: Saturday, 31 October 2020 03:17AM

    Process ID: 367157
    PSIDATADIR: /home/fs71337/airmler/src/psi4_uhf/build/stage/usr/local/psi4/share/psi4
    Memory:     500.0 MiB
    Threads:    48
    
  ==> Input File <==

--------------------------------------------------------------------------
# Any line starting with the # character is a comment line
memory 250000 mb
molecule molecule{
-1 2
O          0.0000000000        0.0000000000        0.6938800435
O          0.0000000000        0.0000000000       -0.6938800435
}

set {
  reference uhf
  basis aug-cc-pv(6+d)z
  scf_type OUT_OF_CORE
  freeze_core true
}

energy('ccsd')
--------------------------------------------------------------------------

  Memory set to 232.831 GiB by Python driver.

*** tstart() called on n412-050.vsc4.prov
*** at Sat Oct 31 03:17:32 2020

   => Loading Basis Set <=

    Name: AUG-CC-PV(6+D)Z
    Role: ORBITAL
    Keyword: BASIS
    atoms 1-2 entry O          line   459 file /home/fs71337/airmler/src/psi4_uhf/build/stage/usr/local/psi4/share/psi4/basis/aug-cc-pv_6pd_z.gbs 


         ---------------------------------------------------------
                                   SCF
            by Justin Turney, Rob Parrish, Andy Simmonett
                             and Daniel Smith
                              UHF Reference
                       48 Threads, 238418 MiB Core
         ---------------------------------------------------------

  ==> Geometry <==

    Molecular point group: d2h
    Full point group: D_inf_h

    Geometry (in Angstrom), charge = -1, multiplicity = 2:

       Center              X                  Y                   Z               Mass       
    ------------   -----------------  -----------------  -----------------  -----------------
           O          0.000000000000     0.000000000000     0.693880043500    15.994914619560
           O          0.000000000000     0.000000000000    -0.693880043500    15.994914619560

  Running in d2h symmetry.

  Rotational constants: A = ************  B =      1.09450  C =      1.09450 [cm^-1]
  Rotational constants: A = ************  B =  32812.28538  C =  32812.28538 [MHz]
  Nuclear repulsion =   24.404320074497139

  Charge       = -1
  Multiplicity = 2
  Electrons    = 17
  Nalpha       = 9
  Nbeta        = 8

  ==> Algorithm <==

  SCF Algorithm Type is OUT_OF_CORE.
  DIIS enabled.
  MOM disabled.
  Fractional occupation disabled.
  Guess Type is GWH.
  Energy threshold   = 1.00e-08
  Density threshold  = 1.00e-08
  Integral threshold = 0.00e+00

  ==> Primary Basis <==

  Basis Set: AUG-CC-PV(6+D)Z
    Blend: AUG-CC-PV(6+D)Z
    Number of shells: 70
    Number of basis function: 378
    Number of Cartesian functions: 588
    Spherical Harmonics?: true
    Max angular momentum: 6

  ==> Pre-Iterations <==

   -------------------------------------------------------
    Irrep   Nso     Nmo     Nalpha   Nbeta   Ndocc  Nsocc
   -------------------------------------------------------
     Ag        66      66       0       0       0       0
     B1g       31      31       0       0       0       0
     B2g       46      46       0       0       0       0
     B3g       46      46       0       0       0       0
     Au        31      31       0       0       0       0
     B1u       66      66       0       0       0       0
     B2u       46      46       0       0       0       0
     B3u       46      46       0       0       0       0
   -------------------------------------------------------
    Total     378     378       9       8       8       1
   -------------------------------------------------------

  ==> Integral Setup <==

  ==> DiskJK: Disk-Based J/K Matrices <==

    J tasked:                  Yes
    K tasked:                  Yes
    wK tasked:                  No
    Memory (MB):            178813
    Schwarz Cutoff:          1E-12

  Minimum eigenvalue in the overlap matrix is 6.1127010847E-06.
  Using Symmetric Orthogonalization.

  SCF Guess: Generalized Wolfsberg-Helmholtz.

  ==> Iterations <==

                        Total Energy        Delta E     RMS |[F,P]|

    Occupation by irrep:
             Ag   B1g   B2g   B3g    Au   B1u   B2u   B3u 
    DOCC [     3,    0,    0,    1,    0,    2,    1,    1 ]
    SOCC [     0,    0,    1,    0,    0,    0,    0,    0 ]

   @UHF iter   1:  -132.33420634140356   -1.32334e+02   2.81849e-01 
    Occupation by irrep:
             Ag   B1g   B2g   B3g    Au   B1u   B2u   B3u 
    DOCC [     3,    0,    0,    0,    0,    3,    1,    1 ]
    SOCC [     0,    0,    0,    0,    0,    0,    0,    1 ]

   @UHF iter   2:  -147.94514070284083   -1.56109e+01   5.72674e-02 DIIS
    Occupation by irrep:
             Ag   B1g   B2g   B3g    Au   B1u   B2u   B3u 
    DOCC [     3,    0,    0,    1,    0,    2,    1,    1 ]
    SOCC [     0,    0,    1,    0,    0,    0,    0,    0 ]

   @UHF iter   3:  -141.88737441881335    6.05777e+00   7.12106e-02 DIIS
   @UHF iter   4:  -149.32189151376872   -7.43452e+00   1.90784e-02 DIIS
   @UHF iter   5:  -149.63674241260790   -3.14851e-01   3.46076e-03 DIIS
   @UHF iter   6:  -149.65181546326502   -1.50731e-02   4.25993e-04 DIIS
   @UHF iter   7:  -149.65213727220447   -3.21809e-04   1.75593e-04 DIIS
   @UHF iter   8:  -149.65218729113778   -5.00189e-05   6.28447e-05 DIIS
   @UHF iter   9:  -149.65219874967198   -1.14585e-05   2.17183e-05 DIIS
   @UHF iter  10:  -149.65220021773314   -1.46806e-06   4.74136e-06 DIIS
   @UHF iter  11:  -149.65220027349164   -5.57585e-08   1.17262e-06 DIIS
   @UHF iter  12:  -149.65220027798657   -4.49492e-09   3.25063e-07 DIIS
   @UHF iter  13:  -149.65220027830173   -3.15168e-10   4.47050e-08 DIIS
   @UHF iter  14:  -149.65220027830617   -4.43379e-12   8.37522e-09 DIIS

  ==> Post-Iterations <==

   @Spin Contamination Metric:   4.995645679E-02
   @S^2 Expected:                7.500000000E-01
   @S^2 Observed:                7.999564568E-01
   @S   Expected:                5.000000000E-01
   @S   Observed:                5.000000000E-01

    Orbital Energies (a.u.)
    -----------------------

    Alpha Occupied:                                                       

       1Ag   -20.329679     1B1u  -20.329342     2Ag    -1.164565  
       2B1u   -0.830071     1B3u   -0.387657     1B2u   -0.332025  
       3Ag    -0.304628     1B2g   -0.200310     1B3g   -0.137908  

    Alpha Virtual:                                                        

       3B1u    0.178545     2B3u    0.227272     4Ag     0.228391  
       2B2u    0.228880     2B2g    0.242827     2B3g    0.244132  
       5Ag     0.301742     4B1u    0.346211     6Ag     0.548546  
       1B1g    0.548811     5B1u    0.555456     3B3u    0.557140  
       7Ag     0.561288     3B2u    0.565085     8Ag     0.607046  
       3B2g    0.607755     3B3g    0.616191     6B1u    0.616194  
       1Au     0.627229     7B1u    0.627537     4B2g    0.644322  
       4B3g    0.646060     4B3u    0.656120     4B2u    0.660652  
       8B1u    0.760447     9Ag     0.928652     5B3u    0.994670  
       5B2u    0.994670     9B1u    1.132927     2B1g    1.135386  
      10Ag     1.135414     5B2g    1.157403     5B3g    1.157405  
       2Au     1.184095    10B1u    1.184337    11Ag     1.187464  
       6B3u    1.207687     6B2u    1.214082     6B2g    1.234103  
       6B3g    1.238818     3B1g    1.289844    12Ag     1.290042  
      11B1u    1.293425    13Ag     1.355449     7B3u    1.368627  
       7B2u    1.388743     7B2g    1.413008     7B3g    1.434272  
       8B3u    1.449023     8B2u    1.465213    12B1u    1.544879  
       3Au     1.606403    13B1u    1.606573    14B1u    1.999599  
       8B2g    2.043034     8B3g    2.054928    14Ag     2.084577  
      15Ag     2.219718     4B1g    2.219718    16Ag     2.248924  
       9B3u    2.345380     9B2u    2.345382     5B1g    2.489179  
      17Ag     2.489253    15B1u    2.503046     4Au     2.503048  
      16B1u    2.520434     5Au     2.521581    10B3u    2.523883  
      10B2u    2.530742    11B3u    2.534106    11B2u    2.536858  
      17B1u    2.543692     9B2g    2.609311     9B3g    2.609315  
      12B3u    2.618149    12B2u    2.640346    18Ag     2.716686  
       6B1g    2.717065    10B2g    2.760592    19Ag     2.766176  
      10B3g    2.770845    20Ag     2.920611    11B2g    2.976010  
      11B3g    2.976024    18B1u    2.986544     6Au     2.986674  
       7B1g    3.025532    21Ag     3.026613    19B1u    3.187324  
      12B2g    3.203185    13B2g    3.224173    12B3g    3.233892  
      13B3g    3.248316    13B3u    3.258513    13B2u    3.291476  
      20B1u    3.419885    22Ag     3.448883    21B1u    3.648446  
       7Au     3.722429    22B1u    3.723537    14B3u    3.790902  
      14B2u    3.810599    23Ag     4.136332     8B1g    4.568019  
      24Ag     4.568019    15B3u    4.600073    15B2u    4.600073  
      14B2g    4.702286    14B3g    4.728652    15B2g    4.896630  
      15B3g    4.896630    16B3u    4.981189    16B2u    4.981193  
      17B3u    5.175713    17B2u    5.192110    25Ag     5.202429  
       9B1g    5.202678    23B1u    5.316401    24B1u    5.403648  
       8Au     5.403665    25B1u    5.419647     9Au     5.421037  
      26B1u    5.447697    26Ag     5.490300    16B2g    5.642312  
      16B3g    5.642332    18B3u    5.660181    27Ag     5.668562  
      10B1g    5.668562    18B2u    5.671118    19B3u    5.677231  
      19B2u    5.686722    20B3u    5.734202    20B2u    5.734258  
      28Ag     5.775482    11B1g    5.776696    17B2g    5.797857  
      17B3g    5.813174    10Au     5.868615    27B1u    5.868615  
      18B2g    5.886381    18B3g    5.886410    29Ag     5.893177  
      11Au     6.091572    28B1u    6.091959    19B2g    6.100400  
      19B3g    6.125615    30Ag     6.263264    12B1g    6.325860  
      31Ag     6.326051    21B3u    6.347754    21B2u    6.377927  
      13B1g    6.522252    32Ag     6.523215    29B1u    6.527602  
      12Au     6.529284    20B2g    6.678508    20B3g    6.678519  
      30B1u    6.685791    21B2g    6.854435    21B3g    6.890411  
      31B1u    7.049054    33Ag     7.134791    32B1u    7.502118  
      22B3u    7.524122    22B2u    7.561586    34Ag     7.671256  
      22B2g    8.245906    22B3g    8.280130    13Au     8.326859  
      33B1u    8.327145    23B3u    8.401126    23B2u    8.434960  
      14B1g    9.318504    35Ag     9.318504    34B1u    9.345350  
      24B3u    9.350211    24B2u    9.350211    36Ag     9.633573  
      15B1g    9.633573    35B1u    9.766236    14Au     9.766236  
      25B3u    9.865992    25B2u    9.865994    23B2g    9.937213  
      23B3g    9.972051    24B2g   10.151329    24B3g   10.151329  
      36B1u   10.306661    37Ag    10.408752    16B1g   10.476549  
      38Ag    10.478167    26B3u   10.538711    26B2u   10.561324  
      39Ag    11.044823    17B1g   11.044823    37B1u   11.050316  
      15Au    11.050522    27B3u   11.074893    27B2u   11.074893  
      38B1u   11.106461    16Au    11.106462    40Ag    11.193218  
      25B2g   11.211124    25B3g   11.211124    28B3u   11.345129  
      39B1u   11.358309    28B2u   11.367116    29B3u   11.448409  
      29B2u   11.448635    17Au    11.475391    40B1u   11.475391  
      26B2g   11.607198    26B3g   11.607404    27B2g   11.682072  
      27B3g   11.704290    41Ag    11.792041    18B1g   11.794257  
      42Ag    11.890481    28B2g   12.255506    28B3g   12.256379  
      29B2g   12.290195    29B3g   12.317982    18Au    12.363529  
      41B1u   12.363611    30B3u   12.555173    30B2u   12.555178  
      43Ag    12.682707    19B1g   12.682757    30B2g   12.887589  
      30B3g   12.887591    44Ag    13.269821    20B1g   13.269821  
      31B3u   13.313779    31B2u   13.313829    42B1u   13.401422  
      19Au    13.401422    32B3u   13.419559    45Ag    13.449114  
      32B2u   13.454637    43B1u   13.562893    31B2g   13.816195  
      20Au    13.846121    44B1u   13.846782    31B3g   13.849668  
      33B3u   13.960479    33B2u   13.996584    32B2g   14.133978  
      32B3g   14.134028    46Ag    14.157504    21B1g   14.175902  
      47Ag    14.191567    45B1u   14.667244    22B1g   14.718235  
      48Ag    14.718580    46B1u   14.815487    21Au    14.815550  
      47B1u   15.650691    33B2g   15.851805    33B3g   15.886769  
      22Au    16.575449    48B1u   16.575784    49B1u   16.623523  
      34B3u   17.091017    34B2u   17.122330    34B2g   18.187217  
      34B3g   18.218427    49Ag    18.260492    50Ag    21.064224  
      35B3u   22.594807    35B2u   22.628322    50B1u   22.868301  
      36B3u   22.930548    36B2u   22.930548    51Ag    23.027880  
      23B1g   23.027881    52Ag    23.041939    24B1g   23.041939  
      23Au    23.096605    51B1u   23.096605    35B2g   23.241117  
      35B3g   23.241117    53Ag    23.286414    37B3u   23.416173  
      37B2u   23.449233    38B3u   23.471438    38B2u   23.472484  
      36B2g   23.526159    36B3g   23.564192    52B1u   23.567322  
      24Au    23.567323    25B1g   23.657463    54Ag    23.658556  
      37B2g   23.902750    37B3g   23.902755    53B1u   23.944343  
      25Au    23.944675    54B1u   24.643443    38B2g   24.794290  
      38B3g   24.824146    55B1u   25.589553    55Ag    25.608941  
      56Ag    27.054535    26B1g   27.054536    39B3u   27.099297  
      39B2u   27.099303    40B3u   27.115784    40B2u   27.115795  
      39B2g   27.176697    39B3g   27.176697    56B1u   27.317917  
      26Au    27.317917    57Ag    27.359770    27B1g   27.360876  
      41B3u   27.605013    41B2u   27.637090    40B2g   27.672607  
      40B3g   27.673244    58Ag    27.711273    41B2g   27.749213  
      41B3g   27.781043    57B1u   27.947066    27Au    27.951944  
      58B1u   28.025089    42B3u   28.747957    42B2u   28.747960  
      28B1g   28.860813    59Ag    28.860903    42B2g   28.881748  
      42B3g   28.881749    43B3u   29.909150    43B2u   29.945156  
      59B1u   30.122994    28Au    30.123509    60B1u   30.773519  
      60Ag    31.556223    29B1g   31.768300    61Ag    31.768301  
      44B3u   31.778685    44B2u   31.778695    61B1u   31.843508  
      29Au    31.843508    43B2g   31.846191    43B3g   31.881289  
      44B2g   32.104130    44B3g   32.104201    62Ag    32.136472  
      30B1g   32.144402    63Ag    32.181318    45B3u   32.539745  
      62B1u   32.542454    30Au    32.542850    45B2u   32.576200  
      45B2g   33.432948    45B3g   33.468387    63B1u   33.728182  
      31B1g   34.829275    64Ag    34.829328    64B1u   35.356476  
      31Au    35.356523    46B2g   36.052259    46B3u   36.061917  
      46B3g   36.083463    46B2u   36.092678    65B1u   36.787811  
      65Ag    38.139006    66Ag   101.967527    66B1u  105.169563  

    Beta Occupied:                                                        

       1Ag   -20.301802     1B1u  -20.301321     2Ag    -1.082918  
       2B1u   -0.717144     1B2u   -0.303353     3Ag    -0.279076  
       1B3u   -0.129540     1B3g   -0.101275  

    Beta Virtual:                                                         

       3B1u    0.178546     4Ag     0.228584     2B2u    0.228894  
       2B3u    0.230886     1B2g    0.239139     2B3g    0.244479  
       5Ag     0.299416     4B1u    0.347788     2B2g    0.392992  
       6Ag     0.543366     1B1g    0.544690     7Ag     0.559067  
       5B1u    0.565271     3B2u    0.566540     3B3u    0.578125  
       8Ag     0.609588     3B3g    0.618937     6B1u    0.624134  
       1Au     0.627003     7B1u    0.627878     3B2g    0.643281  
       4B3g    0.645721     4B2u    0.659349     4B2g    0.660156  
       4B3u    0.663087     8B1u    0.782828     9Ag     0.928056  
       5B3u    0.991870     5B2u    0.991870     2B1g    1.132395  
      10Ag     1.132535     9B1u    1.137302     5B2g    1.156937  
       5B3g    1.156938     2Au     1.187122    10B1u    1.187195  
      11Ag     1.188490     6B2u    1.212505     6B3u    1.213126  
       6B2g    1.235538     6B3g    1.237784    11B1u    1.295830  
       3B1g    1.297465    12Ag     1.297567    13Ag     1.359737  
       7B2u    1.394095     7B3u    1.408899     7B3g    1.440947  
       8B2u    1.465693     7B2g    1.473945     8B3u    1.487136  
      12B1u    1.550405     3Au     1.619918    13B1u    1.620086  
      14B1u    2.007838     8B2g    2.053635     8B3g    2.054370  
      14Ag     2.089484    15Ag     2.218298     4B1g    2.218298  
      16Ag     2.258847     9B2u    2.343055     9B3u    2.343056  
       5B1g    2.491257    17Ag     2.491472    15B1u    2.503473  
       4Au     2.503474    16B1u    2.522626     5Au     2.523114  
      10B3u    2.527952    10B2u    2.532956    11B3u    2.538660  
      11B2u    2.538867    17B1u    2.545509     9B2g    2.614490  
       9B3g    2.614490    12B2u    2.643376    12B3u    2.647818  
      18Ag     2.727967     6B1g    2.728298    10B2g    2.763368  
      19Ag     2.767911    10B3g    2.770184    20Ag     2.942468  
      11B2g    2.978639    11B3g    2.978640     6Au     3.025038  
      18B1u    3.025059     7B1g    3.049760    21Ag     3.050318  
      19B1u    3.200047    12B3g    3.241291    12B2g    3.248484  
      13B3g    3.254065    13B2g    3.269128    13B2u    3.301728  
      13B3u    3.322223    20B1u    3.426030    22Ag     3.457606  
      21B1u    3.658997     7Au     3.729729    22B1u    3.730159  
      14B3u    3.805501    14B2u    3.812191    23Ag     4.151385  
       8B1g    4.567762    24Ag     4.567762    15B2u    4.601069  
      15B3u    4.601069    14B3g    4.734900    14B2g    4.737123  
      15B3g    4.898636    15B2g    4.898636    16B3u    4.981288  
      16B2u    4.981289    17B3u    5.184426    17B2u    5.192862  
      25Ag     5.208893     9B1g    5.209020    23B1u    5.328461  
      24B1u    5.405596     8Au     5.405605    25B1u    5.425090  
       9Au     5.426277    26B1u    5.451208    26Ag     5.495652  
      16B2g    5.650638    16B3g    5.650646    18B3u    5.670228  
      27Ag     5.677346    10B1g    5.677346    18B2u    5.680275  
      19B3u    5.685058    19B2u    5.688284    20B3u    5.751886  
      20B2u    5.751898    28Ag     5.780734    11B1g    5.781278  
      17B2g    5.801067    17B3g    5.812614    10Au     5.877795  
      27B1u    5.877795    29Ag     5.896868    18B2g    5.904596  
      18B3g    5.904601    11Au     6.116628    28B1u    6.116647  
      19B2g    6.117306    19B3g    6.127942    30Ag     6.272674  
      12B1g    6.367950    31Ag     6.368355    21B3u    6.382288  
      21B2u    6.384089    13B1g    6.535652    32Ag     6.535866  
      29B1u    6.556718    12Au     6.556738    20B2g    6.683598  
      20B3g    6.683600    30B1u    6.710650    21B2g    6.895129  
      21B3g    6.899465    31B1u    7.060024    33Ag     7.147902  
      32B1u    7.509389    22B3u    7.565939    22B2u    7.570895  
      34Ag     7.690785    22B2g    8.286298    22B3g    8.288396  
      13Au     8.340117    33B1u    8.340170    23B3u    8.437102  
      23B2u    8.442618    35Ag     9.320403    14B1g    9.320403  
      24B3u    9.352967    24B2u    9.352967    34B1u    9.354284  
      36Ag     9.637884    15B1g    9.637884    35B1u    9.770781  
      14Au     9.770781    25B3u    9.868404    25B2u    9.868404  
      23B2g    9.968244    23B3g    9.979637    24B2g   10.154769  
      24B3g   10.154769    36B1u   10.322078    37Ag    10.417438  
      16B1g   10.480104    38Ag    10.481497    26B3u   10.549482  
      26B2u   10.563720    39Ag    11.052497    17B1g   11.052497  
      37B1u   11.055760    15Au    11.055922    27B3u   11.085119  
      27B2u   11.085119    38B1u   11.109410    16Au    11.109411  
      40Ag    11.206267    25B2g   11.221507    25B3g   11.221507  
      28B3u   11.352189    39B1u   11.361301    28B2u   11.368339  
      29B3u   11.453456    29B2u   11.453553    17Au    11.483279  
      40B1u   11.483279    26B2g   11.612686    26B3g   11.612795  
      27B2g   11.687417    27B3g   11.704747    41Ag    11.797963  
      18B1g   11.799285    42Ag    11.892685    28B2g   12.270160  
      28B3g   12.270473    29B2g   12.302755    29B3g   12.320200  
      18Au    12.377232    41B1u   12.377262    30B3u   12.586071  
      30B2u   12.586071    43Ag    12.703970    19B1g   12.703979  
      30B2g   12.911014    30B3g   12.911015    44Ag    13.290771  
      20B1g   13.290771    31B3u   13.329997    31B2u   13.330005  
      42B1u   13.422338    19Au    13.422338    32B3u   13.444378  
      32B2u   13.461015    45Ag    13.461355    43B1u   13.570942  
      31B2g   13.835095    31B3g   13.855101    20Au    13.862334  
      44B1u   13.862618    33B3u   13.987494    33B2u   14.003243  
      32B2g   14.147200    32B3g   14.147212    46Ag    14.179957  
      21B1g   14.193062    47Ag    14.199816    45B1u   14.683044  
      22B1g   14.750280    48Ag    14.750323    21Au    14.843226  
      46B1u   14.843258    47B1u   15.660393    33B2g   15.882426  
      33B3g   15.894549    22Au    16.591369    48B1u   16.591447  
      49B1u   16.634775    34B3u   17.113964    34B2u   17.128234  
      34B2g   18.204510    34B3g   18.223091    49Ag    18.268549  
      50Ag    21.083364    35B3u   22.613853    35B2u   22.633308  
      50B1u   22.883571    36B3u   22.940443    36B2u   22.940443  
      51Ag    23.037942    23B1g   23.037942    52Ag    23.052040  
      24B1g   23.052040    23Au    23.108564    51B1u   23.108564  
      35B2g   23.250912    35B3g   23.250912    53Ag    23.291930  
      37B3u   23.444158    37B2u   23.456895    38B3u   23.478067  
      38B2u   23.478550    36B2g   23.563872    36B3g   23.573833  
      52B1u   23.575422    24Au    23.575422    25B1g   23.662795  
      54Ag    23.663497    37B2g   23.909413    37B3g   23.909415  
      53B1u   23.950332    25Au    23.950541    54B1u   24.648723  
      38B2g   24.803429    38B3g   24.826732    55B1u   25.599195  
      55Ag    25.621571    56Ag    27.069466    26B1g   27.069466  
      39B3u   27.117135    39B2u   27.117139    40B3u   27.128366  
      40B2u   27.128369    39B2g   27.194899    39B3g   27.194899  
      56B1u   27.332575    26Au    27.332575    57Ag    27.370062  
      27B1g   27.370649    41B3u   27.618270    41B2u   27.640966  
      40B2g   27.685335    40B3g   27.685608    58Ag    27.719042  
      41B2g   27.761090    41B3g   27.783985    57B1u   27.959483  
      27Au    27.962320    58B1u   28.030927    42B3u   28.774659  
      42B2u   28.774660    28B1g   28.880067    59Ag    28.880095  
      42B2g   28.908249    42B3g   28.908249    43B3u   29.930679  
      43B2u   29.951658    59B1u   30.140506    28Au    30.140657  
      60B1u   30.785780    60Ag    31.567768    29B1g   31.791073  
      61Ag    31.791073    44B3u   31.796426    44B2u   31.796429  
      43B2g   31.865696    61B1u   31.866172    29Au    31.866172  
      43B3g   31.887671    44B2g   32.121386    44B3g   32.121405  
      62Ag    32.153760    30B1g   32.158283    63Ag    32.188185  
      62B1u   32.556960    30Au    32.557130    45B3u   32.557984  
      45B2u   32.581678    45B2g   33.450610    45B3g   33.473815  
      63B1u   33.739202    31B1g   34.852710    64Ag    34.852731  
      64B1u   35.378951    31Au    35.378953    46B2g   36.073159  
      46B3u   36.082304    46B3g   36.088989    46B2u   36.098172  
      65B1u   36.796735    65Ag    38.146972    66Ag   101.975281  
      66B1u  105.176927  

    Final Occupation by Irrep:
             Ag   B1g   B2g   B3g    Au   B1u   B2u   B3u 
    DOCC [     3,    0,    0,    1,    0,    2,    1,    1 ]
    SOCC [     0,    0,    1,    0,    0,    0,    0,    0 ]

  Energy converged.

  @UHF Final Energy:  -149.65220027830617

   => Energetics <=

    Nuclear Repulsion Energy =             24.4043200744971394
    One-Electron Energy =                -260.8804270199508437
    Two-Electron Energy =                  86.8239066671475257
    PCM Polarization Energy =               0.0000000000000000
    Total Energy =                       -149.6522002783061680

    Alert: EFP and PCM quantities not currently incorporated into SCF psivars.
  UHF NO Occupations:
  HONO-2 :    2B1u 1.9985750
  HONO-1 :    1B3u 1.9782333
  HONO-0 :    1B2g 1.0000000
  LUNO+0 :    2B3u 0.0217667
  LUNO+1 :    3B1u 0.0014250
  LUNO+2 :    4 Ag 0.0008479
  LUNO+3 :    2B3g 0.0006717



Properties will be evaluated at   0.000000,   0.000000,   0.000000 Bohr

Properties computed using the SCF density matrix

  Nuclear Dipole Moment: (a.u.)
     X:     0.0000      Y:     0.0000      Z:     0.0000

  Electronic Dipole Moment: (a.u.)
     X:     0.0000      Y:     0.0000      Z:     0.0000

  Dipole Moment: (a.u.)
     X:     0.0000      Y:     0.0000      Z:     0.0000     Total:     0.0000

  Dipole Moment: (Debye)
     X:     0.0000      Y:     0.0000      Z:     0.0000     Total:     0.0000


*** tstop() called on n412-050.vsc4.prov at Sat Oct 31 03:33:41 2020
Module time:
	user time   =    1011.67 seconds =      16.86 minutes
	system time =      50.05 seconds =       0.83 minutes
	total time  =        969 seconds =      16.15 minutes
Total time:
	user time   =    1011.67 seconds =      16.86 minutes
	system time =      50.05 seconds =       0.83 minutes
	total time  =        969 seconds =      16.15 minutes

*** tstart() called on n412-050.vsc4.prov
*** at Sat Oct 31 03:33:41 2020


	Wfn Parameters:
	--------------------
	Wavefunction         = CCSD
	Number of irreps     = 8
	Number of MOs        = 378
	Number of active MOs = 376
	AO-Basis             = NONE
	Semicanonical        = false
	Reference            = UHF
	Print Level          = 1

	IRREP	# MOs	# FZDC	# DOCC	# SOCC	# VIRT	# FZVR
	-----	-----	------	------	------	------	------
	 Ag	   66	    1	    2	    0	    63	    0
	 B1g	   31	    0	    0	    0	    31	    0
	 B2g	   46	    0	    0	    1	    45	    0
	 B3g	   46	    0	    1	    0	    45	    0
	 Au	   31	    0	    0	    0	    31	    0
	 B1u	   66	    1	    1	    0	    64	    0
	 B2u	   46	    0	    1	    0	    45	    0
	 B3u	   46	    0	    1	    0	    45	    0
	Transforming integrals...
	IWL integrals will be deleted.
	(OO|OO)...
	Presorting SO-basis two-electron integrals.
	Sorting File: SO Ints (nn|nn) nbuckets = 1
	Transforming the one-electron integrals and constructing Fock matrices
	Starting AA/AB first half-transformation.
	Sorting AA/AB half-transformed integrals.
	Starting BB first half-transformation.
	Sorting BB half-transformed integrals.
	First half integral transformation complete.
	Starting AA second half-transformation.
	Starting AB second half-transformation.
	Starting BB second half-transformation.
	Two-electron integral transformation complete.
	(OO|OV)...
	Starting AA second half-transformation.
	Starting AB second half-transformation.
	Starting BB second half-transformation.
	Two-electron integral transformation complete.
	(OO|VV)...
	Starting AA second half-transformation.
	Starting AB second half-transformation.
	Starting BB second half-transformation.
	Two-electron integral transformation complete.
	(OV|OO)...
	Starting AA/AB first half-transformation.
	Sorting AA/AB half-transformed integrals.
	Starting BB first half-transformation.
	Sorting BB half-transformed integrals.
	First half integral transformation complete.
	Starting AA second half-transformation.
	Starting AB second half-transformation.
	Starting BB second half-transformation.
	Two-electron integral transformation complete.
	(OV|OV)...
	Starting AA second half-transformation.
	Starting AB second half-transformation.
	Starting BB second half-transformation.
	Two-electron integral transformation complete.
	(OV|VV)...
	Starting AA second half-transformation.
	Starting AB second half-transformation.
	Starting BB second half-transformation.
	Two-electron integral transformation complete.
	(VV|OO)...
	Starting AA/AB first half-transformation.
	Sorting AA/AB half-transformed integrals.
	Starting BB first half-transformation.
	Sorting BB half-transformed integrals.
	First half integral transformation complete.
	Starting AA second half-transformation.
	Starting AB second half-transformation.
	Starting BB second half-transformation.
	Two-electron integral transformation complete.
	(VV|OV)...
	Starting AA second half-transformation.
	Starting AB second half-transformation.
	Starting BB second half-transformation.
	Two-electron integral transformation complete.
	(VV|VV)...
	Starting AA second half-transformation.
	Starting AB second half-transformation.
	Starting BB second half-transformation.
	Two-electron integral transformation complete.
	Frozen core energy     =   -128.89187808077759

	Size of irrep 0 of <AB|CD> integrals:     78.482 (MW) /    627.855 (MB)
	Size of irrep 1 of <AB|CD> integrals:     63.792 (MW) /    510.337 (MB)
	Size of irrep 2 of <AB|CD> integrals:     72.335 (MW) /    578.680 (MB)
	Size of irrep 3 of <AB|CD> integrals:     72.335 (MW) /    578.680 (MB)
	Size of irrep 4 of <AB|CD> integrals:     63.792 (MW) /    510.337 (MB)
	Size of irrep 5 of <AB|CD> integrals:     81.776 (MW) /    654.207 (MB)
	Size of irrep 6 of <AB|CD> integrals:     72.335 (MW) /    578.680 (MB)
	Size of irrep 7 of <AB|CD> integrals:     72.335 (MW) /    578.680 (MB)
	Total:                                   577.182 (MW) /   4617.457 (MB)

	Size of irrep 0 of <ab|cd> integrals:     79.281 (MW) /    634.250 (MB)
	Size of irrep 1 of <ab|cd> integrals:     64.513 (MW) /    516.104 (MB)
	Size of irrep 2 of <ab|cd> integrals:     73.411 (MW) /    587.285 (MB)
	Size of irrep 3 of <ab|cd> integrals:     72.863 (MW) /    582.906 (MB)
	Size of irrep 4 of <ab|cd> integrals:     64.513 (MW) /    516.104 (MB)
	Size of irrep 5 of <ab|cd> integrals:     82.592 (MW) /    660.734 (MB)
	Size of irrep 6 of <ab|cd> integrals:     72.863 (MW) /    582.906 (MB)
	Size of irrep 7 of <ab|cd> integrals:     73.428 (MW) /    587.422 (MB)
	Total:                                   583.464 (MW) /   4667.712 (MB)

	Size of irrep 0 of <Ab|Cd> integrals:    328.769 (MW) /   2630.155 (MB)
	Size of irrep 1 of <Ab|Cd> integrals:    256.608 (MW) /   2052.867 (MB)
	Size of irrep 2 of <Ab|Cd> integrals:    291.487 (MW) /   2331.899 (MB)
	Size of irrep 3 of <Ab|Cd> integrals:    290.396 (MW) /   2323.165 (MB)
	Size of irrep 4 of <Ab|Cd> integrals:    256.608 (MW) /   2052.867 (MB)
	Size of irrep 5 of <Ab|Cd> integrals:    328.733 (MW) /   2629.865 (MB)
	Size of irrep 6 of <Ab|Cd> integrals:    290.396 (MW) /   2323.165 (MB)
	Size of irrep 7 of <Ab|Cd> integrals:    291.521 (MW) /   2332.172 (MB)
	Total:                                  2334.519 (MW) /  18676.156 (MB)

	Size of irrep 0 of <IA|BC> integrals:      6.692 (MW) /     53.538 (MB)
	Size of irrep 1 of <IA|BC> integrals:      4.361 (MW) /     34.887 (MB)
	Size of irrep 2 of <IA|BC> integrals:      5.511 (MW) /     44.090 (MB)
	Size of irrep 3 of <IA|BC> integrals:      5.511 (MW) /     44.090 (MB)
	Size of irrep 4 of <IA|BC> integrals:      4.361 (MW) /     34.887 (MB)
	Size of irrep 5 of <IA|BC> integrals:      6.710 (MW) /     53.679 (MB)
	Size of irrep 6 of <IA|BC> integrals:      5.511 (MW) /     44.090 (MB)
	Size of irrep 7 of <IA|BC> integrals:      5.511 (MW) /     44.090 (MB)
	Total:                                    44.169 (MW) /    353.351 (MB)

	Size of irrep 0 of <ia|bc> integrals:      5.908 (MW) /     47.263 (MB)
	Size of irrep 1 of <ia|bc> integrals:      3.679 (MW) /     29.429 (MB)
	Size of irrep 2 of <ia|bc> integrals:      4.507 (MW) /     36.054 (MB)
	Size of irrep 3 of <ia|bc> integrals:      5.002 (MW) /     40.017 (MB)
	Size of irrep 4 of <ia|bc> integrals:      3.679 (MW) /     29.429 (MB)
	Size of irrep 5 of <ia|bc> integrals:      5.944 (MW) /     47.548 (MB)
	Size of irrep 6 of <ia|bc> integrals:      5.002 (MW) /     40.017 (MB)
	Size of irrep 7 of <ia|bc> integrals:      4.473 (MW) /     35.784 (MB)
	Total:                                    38.193 (MW) /    305.542 (MB)

	Size of irrep 0 of <Ia|Bc> integrals:      6.727 (MW) /     53.816 (MB)
	Size of irrep 1 of <Ia|Bc> integrals:      4.389 (MW) /     35.114 (MB)
	Size of irrep 2 of <Ia|Bc> integrals:      5.566 (MW) /     44.526 (MB)
	Size of irrep 3 of <Ia|Bc> integrals:      5.521 (MW) /     44.170 (MB)
	Size of irrep 4 of <Ia|Bc> integrals:      4.389 (MW) /     35.114 (MB)
	Size of irrep 5 of <Ia|Bc> integrals:      6.745 (MW) /     53.958 (MB)
	Size of irrep 6 of <Ia|Bc> integrals:      5.521 (MW) /     44.170 (MB)
	Size of irrep 7 of <Ia|Bc> integrals:      5.549 (MW) /     44.392 (MB)
	Total:                                    44.408 (MW) /    355.260 (MB)

	Size of irrep 0 of <iA|bC> integrals:      5.893 (MW) /     47.143 (MB)
	Size of irrep 1 of <iA|bC> integrals:      3.652 (MW) /     29.219 (MB)
	Size of irrep 2 of <iA|bC> integrals:      4.456 (MW) /     35.648 (MB)
	Size of irrep 3 of <iA|bC> integrals:      4.993 (MW) /     39.944 (MB)
	Size of irrep 4 of <iA|bC> integrals:      3.652 (MW) /     29.219 (MB)
	Size of irrep 5 of <iA|bC> integrals:      5.911 (MW) /     47.286 (MB)
	Size of irrep 6 of <iA|bC> integrals:      4.993 (MW) /     39.944 (MB)
	Size of irrep 7 of <iA|bC> integrals:      4.439 (MW) /     35.514 (MB)
	Total:                                    37.990 (MW) /    303.917 (MB)

	Size of irrep 0 of tIjAb amplitudes:       0.145 (MW) /      1.160 (MB)
	Size of irrep 1 of tIjAb amplitudes:       0.048 (MW) /      0.384 (MB)
	Size of irrep 2 of tIjAb amplitudes:       0.068 (MW) /      0.546 (MB)
	Size of irrep 3 of tIjAb amplitudes:       0.102 (MW) /      0.818 (MB)
	Size of irrep 4 of tIjAb amplitudes:       0.048 (MW) /      0.384 (MB)
	Size of irrep 5 of tIjAb amplitudes:       0.127 (MW) /      1.015 (MB)
	Size of irrep 6 of tIjAb amplitudes:       0.102 (MW) /      0.818 (MB)
	Size of irrep 7 of tIjAb amplitudes:       0.085 (MW) /      0.683 (MB)
	Total:                                     0.726 (MW) /      5.810 (MB)

	Nuclear Rep. energy          =     24.40432007449714
	SCF energy                   =   -149.65220027830617
	One-electron energy          =    -84.35881422601072
	Two-electron (AA) energy     =      9.84157082021905
	Two-electron (BB) energy     =      6.71524475473834
	Two-electron (AB) energy     =     22.63735637902750
	Two-electron energy          =     39.19417195398489
	Reference energy             =   -149.65220027830628

*** tstop() called on n412-050.vsc4.prov at Sat Oct 31 03:47:20 2020
Module time:
	user time   =    4394.54 seconds =      73.24 minutes
	system time =     203.46 seconds =       3.39 minutes
	total time  =        819 seconds =      13.65 minutes
Total time:
	user time   =    5406.22 seconds =      90.10 minutes
	system time =     253.51 seconds =       4.23 minutes
	total time  =       1788 seconds =      29.80 minutes

*** tstart() called on n412-050.vsc4.prov
*** at Sat Oct 31 03:47:20 2020

            **************************
            *                        *
            *        CCENERGY        *
            *                        *
            **************************

    Nuclear Rep. energy (wfn)     =   24.404320074497139
    SCF energy          (wfn)     = -149.652200278306168
    Reference energy    (file100) = -149.652200278306282

    Input parameters:
    -----------------
    Wave function   =     CCSD
    Reference wfn   =     UHF
    Brueckner       =     No
    Memory (Mbytes) =     250000.0
    Maxiter         =     50
    R_Convergence   =     1.0e-07
    E_Convergence   =     1.0e-06
    Restart         =     Yes
    DIIS            =     Yes
    AO Basis        =     NONE
    ABCD            =     NEW
    Cache Level     =     2
    Cache Type      =     LRU
    Print Level     =     1
    Num. of threads =     48
    # Amps to Print =     10
    Print MP2 Amps? =     No
    Analyze T2 Amps =     No
    Print Pair Ener =     No
    Local CC        =     No
    SCS-MP2         =     False
    SCSN-MP2        =     False
    SCS-CCSD        =     False

MP2 correlation energy -0.5415340062185479
                Solving CC Amplitude Equations
                ------------------------------
  Iter             Energy              RMS        T1Diag      D1Diag    New D1Diag    D2Diag
  ----     ---------------------    ---------   ----------  ----------  ----------   --------
     0        -0.541534006218549    0.000e+00    0.000000    0.000000    0.000000    0.000000
     1        -0.507993956191835    1.135e-01    0.025027    0.000000    0.000000    0.000000
     2        -0.527564481717568    3.742e-02    0.025979    0.000000    0.000000    0.000000
     3        -0.531303615744814    2.204e-02    0.033143    0.000000    0.000000    0.000000
     4        -0.531035352298507    7.247e-03    0.035577    0.000000    0.000000    0.000000
     5        -0.530789358183313    4.348e-03    0.036526    0.000000    0.000000    0.000000
     6        -0.530837251268115    1.721e-03    0.036897    0.000000    0.000000    0.000000
     7        -0.530859666561977    8.695e-04    0.036964    0.000000    0.000000    0.000000
     8        -0.530861759933778    3.819e-04    0.036997    0.000000    0.000000    0.000000
     9        -0.530867103302956    1.345e-04    0.037017    0.000000    0.000000    0.000000
    10        -0.530866473948175    5.866e-05    0.037020    0.000000    0.000000    0.000000
    11        -0.530864914785924    2.632e-05    0.037020    0.000000    0.000000    0.000000
    12        -0.530864508269236    1.161e-05    0.037021    0.000000    0.000000    0.000000
    13        -0.530863981651047    5.390e-06    0.037020    0.000000    0.000000    0.000000
    14        -0.530863982253539    1.829e-06    0.037020    0.000000    0.000000    0.000000
    15        -0.530863983136350    8.375e-07    0.037020    0.000000    0.000000    0.000000
    16        -0.530863984350956    4.091e-07    0.037020    0.000000    0.000000    0.000000
    17        -0.530863987150363    1.875e-07    0.037020    0.000000    0.000000    0.000000
    18        -0.530863986463708    1.077e-07    0.037020    0.000000    0.000000    0.000000
    19        -0.530863985479511    4.726e-08    0.037020    0.000000    0.000000    0.000000
    19        -0.530863985479511    4.726e-08    0.037020    0.000000    0.000000    0.000000

    Iterations converged.


    CCSD corr. energy   =   -0.530863985479511
    PPL corr. energy    =    0.124943993588928
    OS PPL corr. energy =    0.102003530579672
    SS PPL corr. energy =    0.022940463009255
    Largest TIA Amplitudes:
              3 139        -0.0338107001
              2  94        -0.0310557453
              2  95        -0.0277985619
              6 325        -0.0274139601
              6 324        -0.0246693979
              3 140        -0.0239659153
              5 280        -0.0223411131
              5 279        -0.0223371636
              6 326        -0.0179350965
              5 281        -0.0147076826

    Largest Tia Amplitudes:
              5 325         0.0454004264
              5 326         0.0453026988
              5 327         0.0348690392
              2 140        -0.0326577102
              5 331         0.0321606457
              5 330         0.0215824253
              4 280        -0.0183998999
              2 141        -0.0160302627
              3 221        -0.0156221093
              4 281        -0.0149297180

    Largest TIJAB Amplitudes:
      3   1 285 220        -0.0166459281
      2   1 330 220        -0.0154556419
      3   1 285 217         0.0127167942
      2   1 330 217         0.0117856575
      5   1 220 140         0.0103147874
      3   1 281 220        -0.0101757905
      3   2 140  95        -0.0100635690
      3   1 289 220        -0.0098316481
      2   1 334 220        -0.0096503249
      3   1 280 220        -0.0093988641

    Largest Tijab Amplitudes:
      5   1 221  95         0.0684520721
      5   1 218  95        -0.0444453810
      5   1 221  97         0.0322148530
      5   1 219  95        -0.0267889529
      5   2 286  95         0.0228842371
      5   2 282  95         0.0213785749
      2   1 286 221        -0.0185483830
      5   1 218  97        -0.0185085580
      5   2 281  95         0.0183765748
      5   4 141  95         0.0175760392

    Largest TIjAb Amplitudes:
      1   5 220  95        -0.0807927883
      1   1 220 221        -0.0789338233
      1   5 217  95         0.0656421619
      1   1 217 221         0.0570788122
      1   1 220 218         0.0423690395
      1   5 220  97        -0.0397946016
      2   5 325  95        -0.0387712531
      1   1 217 218        -0.0362710315
      1   5 218  95        -0.0360897254
      2   5 330  95        -0.0307614561

    SCF energy       (wfn)                    = -149.652200278306168
    Reference energy (file100)                = -149.652200278306282

    Opposite-spin MP2 correlation energy      =   -0.404183198802338
    Same-spin MP2 correlation energy          =   -0.137350807416166
    MP2 correlation energy                    =   -0.541534006218548
      * MP2 total energy                      = -150.193734284524822

    Opposite-spin CCSD correlation energy     =   -0.412599738662377
    Same-spin CCSD correlation energy         =   -0.118264248170899
    CCSD correlation energy                   =   -0.530863985479511
      * CCSD total energy                     = -150.183064263785781


*** tstop() called on n412-050.vsc4.prov at Sat Oct 31 04:05:37 2020
Module time:
	user time   =   11684.78 seconds =     194.75 minutes
	system time =     499.69 seconds =       8.33 minutes
	total time  =       1097 seconds =      18.28 minutes
Total time:
	user time   =   17091.00 seconds =     284.85 minutes
	system time =     753.20 seconds =      12.55 minutes
	total time  =       2885 seconds =      48.08 minutes

*** Psi4 exiting successfully. Buy a developer a beer!
