
    -----------------------------------------------------------------------
          Psi4: An Open-Source Ab Initio Electronic Structure Package
                               Psi4 1.2a1.dev938 

                         Git: Rev {HEAD} fc51d9a dirty


    R. M. Parrish, L. A. Burns, D. G. A. Smith, A. C. Simmonett,
    A. E. DePrince III, E. G. Hohenstein, U. Bozkaya, A. Yu. Sokolov,
    R. Di Remigio, R. M. Richard, J. F. Gonthier, A. M. James,
    H. R. McAlexander, A. Kumar, M. Saitow, X. Wang, B. P. Pritchard,
    P. Verma, H. F. Schaefer III, K. Patkowski, R. A. King, E. F. Valeev,
    F. A. Evangelista, J. M. Turney, T. D. Crawford, and C. D. Sherrill,
    J. Chem. Theory Comput. 13(7) pp 3185--3197 (2017).
    (doi: 10.1021/acs.jctc.7b00174)

    -----------------------------------------------------------------------


    Psi4 started on: Thursday, 20 August 2020 08:03PM

    Process ID: 423569
    PSIDATADIR: /home/irmler/Programs/psi4/beforeGrueneis3/stage/usr/local/psi4/share/psi4
    Memory:     500.0 MiB
    Threads:    4
    
  ==> Input File <==

--------------------------------------------------------------------------
# Any line starting with the # character is a comment line
memory 250000 mb
molecule molecule{
-1 2
O          0.0000000000        0.0000000000        0.6938800435
O          0.0000000000        0.0000000000       -0.6938800435
}

set {
  reference uhf
  basis aug-cc-pv(t+d)z
  scf_type OUT_OF_CORE
  freeze_core true
}

energy('ccsd')
--------------------------------------------------------------------------

  Memory set to 232.831 GiB by Python driver.

*** tstart() called on cqc05
*** at Thu Aug 20 20:03:43 2020

   => Loading Basis Set <=

    Name: AUG-CC-PV(T+D)Z
    Role: ORBITAL
    Keyword: BASIS
    atoms 1-2 entry O          line   347 file /home/irmler/Programs/psi4/beforeGrueneis3/stage/usr/local/psi4/share/psi4/basis/aug-cc-pv_tpd_z.gbs 


         ---------------------------------------------------------
                                   SCF
            by Justin Turney, Rob Parrish, Andy Simmonett
                             and Daniel Smith
                              UHF Reference
                        4 Threads, 238418 MiB Core
         ---------------------------------------------------------

  ==> Geometry <==

    Molecular point group: d2h
    Full point group: D_inf_h

    Geometry (in Angstrom), charge = -1, multiplicity = 2:

       Center              X                  Y                   Z               Mass       
    ------------   -----------------  -----------------  -----------------  -----------------
           O          0.000000000000     0.000000000000     0.693880043500    15.994914619560
           O          0.000000000000     0.000000000000    -0.693880043500    15.994914619560

  Running in d2h symmetry.

  Rotational constants: A = ************  B =      1.09450  C =      1.09450 [cm^-1]
  Rotational constants: A = ************  B =  32812.28538  C =  32812.28538 [MHz]
  Nuclear repulsion =   24.404320074497139

  Charge       = -1
  Multiplicity = 2
  Electrons    = 17
  Nalpha       = 9
  Nbeta        = 8

  ==> Algorithm <==

  SCF Algorithm Type is OUT_OF_CORE.
  DIIS enabled.
  MOM disabled.
  Fractional occupation disabled.
  Guess Type is GWH.
  Energy threshold   = 1.00e-08
  Density threshold  = 1.00e-08
  Integral threshold = 0.00e+00

  ==> Primary Basis <==

  Basis Set: AUG-CC-PV(T+D)Z
    Blend: AUG-CC-PV(T+D)Z
    Number of shells: 28
    Number of basis function: 92
    Number of Cartesian functions: 110
    Spherical Harmonics?: true
    Max angular momentum: 3

  ==> Pre-Iterations <==

   -------------------------------------------------------
    Irrep   Nso     Nmo     Nalpha   Nbeta   Ndocc  Nsocc
   -------------------------------------------------------
     Ag        19      19       0       0       0       0
     B1g        5       5       0       0       0       0
     B2g       11      11       0       0       0       0
     B3g       11      11       0       0       0       0
     Au         5       5       0       0       0       0
     B1u       19      19       0       0       0       0
     B2u       11      11       0       0       0       0
     B3u       11      11       0       0       0       0
   -------------------------------------------------------
    Total      92      92       9       8       8       1
   -------------------------------------------------------

  ==> Integral Setup <==

  ==> DiskJK: Disk-Based J/K Matrices <==

    J tasked:                  Yes
    K tasked:                  Yes
    wK tasked:                  No
    Memory (MB):            178813
    Schwarz Cutoff:          1E-12

  Minimum eigenvalue in the overlap matrix is 4.1320675589E-04.
  Using Symmetric Orthogonalization.

  SCF Guess: Generalized Wolfsberg-Helmholtz.

  ==> Iterations <==

                        Total Energy        Delta E     RMS |[F,P]|

   @UHF iter   1:  -143.91874784210125   -1.43919e+02   2.20484e-01 
    Occupation by irrep:
             Ag   B1g   B2g   B3g    Au   B1u   B2u   B3u 
    DOCC [     3,    0,    1,    0,    0,    2,    1,    1 ]
    SOCC [     0,    0,    0,    1,    0,    0,    0,    0 ]

   @UHF iter   2:  -148.71869893895175   -4.79995e+00   3.52877e-02 DIIS
   @UHF iter   3:  -149.28352354419667   -5.64825e-01   3.81824e-02 DIIS
   @UHF iter   4:  -149.58252494686855   -2.99001e-01   1.31281e-02 DIIS
   @UHF iter   5:  -149.63623301484250   -5.37081e-02   2.87542e-03 DIIS
   @UHF iter   6:  -149.64040963982393   -4.17662e-03   4.76152e-04 DIIS
   @UHF iter   7:  -149.64061110446630   -2.01465e-04   1.13477e-04 DIIS
   @UHF iter   8:  -149.64062262369765   -1.15192e-05   2.34485e-05 DIIS
   @UHF iter   9:  -149.64062317114337   -5.47446e-07   7.14837e-06 DIIS
   @UHF iter  10:  -149.64062321559760   -4.44542e-08   1.68960e-06 DIIS
   @UHF iter  11:  -149.64062321917723   -3.57963e-09   4.56323e-07 DIIS
   @UHF iter  12:  -149.64062321943661   -2.59377e-10   1.44872e-07 DIIS
   @UHF iter  13:  -149.64062321945545   -1.88436e-11   4.42113e-08 DIIS
   @UHF iter  14:  -149.64062321945764   -2.18847e-12   9.94328e-09 DIIS

  ==> Post-Iterations <==

   @Spin Contamination Metric:   4.910109265E-02
   @S^2 Expected:                7.500000000E-01
   @S^2 Observed:                7.991010927E-01
   @S   Expected:                5.000000000E-01
   @S   Observed:                5.000000000E-01

    Orbital Energies (a.u.)
    -----------------------

    Alpha Occupied:                                                       

       1Ag   -20.333134     1B1u  -20.332807     2Ag    -1.165721  
       2B1u   -0.830977     1B2u   -0.387383     1B3u   -0.331874  
       3Ag    -0.304716     1B3g   -0.199869     1B2g   -0.137669  

    Alpha Virtual:                                                        

       3B1u    0.261652     4Ag     0.342401     2B2u    0.356374  
       2B3u    0.361677     2B3g    0.381388     2B2g    0.385960  
       5Ag     0.429552     4B1u    0.517897     5B1u    0.670653  
       6Ag     0.860868     1B1g    0.860967     7Ag     0.971245  
       3B2u    1.012950     3B3u    1.023672     6B1u    1.054134  
       1Au     1.054927     3B3g    1.068544     3B2g    1.083484  
       7B1u    1.085033     4B2u    1.184304     4B3u    1.211381  
       8B1u    1.280983     8Ag     1.338524     4B3g    1.440400  
       4B2g    1.458595     9Ag     1.812927     5B2u    2.212143  
      10Ag     2.212201     2B1g    2.212251     5B3u    2.220976  
       6B2u    2.221373     6B3u    2.238357    11Ag     2.439261  
       3B1g    2.484416    12Ag     2.488864     9B1u    2.509189  
       2Au     2.510188     5B3g    2.532830     5B2g    2.532888  
       6B3g    2.566531     6B2g    2.587729    10B1u    2.651461  
       7B2u    2.905567    11B1u    2.919335     7B3u    2.923796  
       3Au     3.019770    12B1u    3.020860    13B1u    3.294370  
       7B3g    3.492609     7B2g    3.524213    13Ag     3.559196  
       8B2u    4.455804     8B3u    4.500477    14Ag     4.551177  
       8B3g    4.855782     8B2g    4.897629    14B1u    6.207257  
      15Ag     6.439869     9B2u    6.459492     9B3u    6.488743  
       4B1g    6.682718    16Ag     6.684261    10B2u    6.730356  
      10B3u    6.730405     9B3g    6.839233     9B2g    6.839239  
      15B1u    7.060277     4Au     7.060283    17Ag     7.244827  
       5B1g    7.244947    16B1u    7.375269     5Au     7.376938  
      11B2u    7.377244    11B3u    7.416876    17B1u    7.521041  
      10B3g    7.553497    10B2g    7.587060    11B3g    7.836999  
      11B2g    7.874999    18Ag     7.955917    18B1u    8.562763  
      19Ag    11.523579    19B1u   12.735256  

    Beta Occupied:                                                        

       1Ag   -20.305230     1B1u  -20.304759     2Ag    -1.084366  
       2B1u   -0.718312     1B3u   -0.303306     3Ag    -0.279152  
       1B2u   -0.130023     1B2g   -0.101137  

    Beta Virtual:                                                         

       3B1u    0.262197     1B3g    0.335614     4Ag     0.343753  
       2B3u    0.362280     2B2u    0.372163     2B2g    0.387453  
       5Ag     0.424177     2B3g    0.465136     4B1u    0.527572  
       5B1u    0.697753     6Ag     0.857145     1B1g    0.857268  
       7Ag     0.969907     3B3u    1.019829     3B2u    1.021443  
       1Au     1.061039     6B1u    1.061062     3B2g    1.087030  
       7B1u    1.092421     3B3g    1.112763     4B3u    1.221131  
       4B2u    1.268346     8B1u    1.290769     8Ag     1.353246  
       4B2g    1.463216     4B3g    1.485415     9Ag     1.815807  
       2B1g    2.222348    10Ag     2.222573     5B3u    2.224170  
       5B2u    2.224198     6B3u    2.241440     6B2u    2.252932  
      11Ag     2.460420     3B1g    2.514690    12Ag     2.515303  
       5B2g    2.541155     5B3g    2.541161     2Au     2.554197  
       9B1u    2.554410     6B2g    2.588665     6B3g    2.594809  
      10B1u    2.667034     7B2u    2.919594     7B3u    2.923510  
      11B1u    2.928856     3Au     3.030488    12B1u    3.030924  
      13B1u    3.312701     7B2g    3.532169     7B3g    3.539829  
      13Ag     3.587754     8B3u    4.517878     8B2u    4.553101  
      14Ag     4.564132     8B2g    4.913125     8B3g    4.941116  
      14B1u    6.229291    15Ag     6.455065     9B2u    6.484312  
       9B3u    6.494150     4B1g    6.703851    16Ag     6.703993  
      10B2u    6.763758    10B3u    6.763758     9B2g    6.873167  
       9B3g    6.873167    15B1u    7.083685     4Au     7.083696  
       5B1g    7.309250    17Ag     7.309336    11B3u    7.429587  
      11B2u    7.436510    16B1u    7.439568     5Au     7.439570  
      17B1u    7.542291    10B3g    7.586191    10B2g    7.594663  
      11B2g    7.885017    11B3g    7.887130    18Ag     7.974724  
      18B1u    8.572038    19Ag    11.550425    19B1u   12.759839  

    Final Occupation by Irrep:
             Ag   B1g   B2g   B3g    Au   B1u   B2u   B3u 
    DOCC [     3,    0,    1,    0,    0,    2,    1,    1 ]
    SOCC [     0,    0,    0,    1,    0,    0,    0,    0 ]

  Energy converged.

  @UHF Final Energy:  -149.64062321945764

   => Energetics <=

    Nuclear Repulsion Energy =             24.4043200744971394
    One-Electron Energy =                -260.8394501939336010
    Two-Electron Energy =                  86.7945068999788134
    PCM Polarization Energy =               0.0000000000000000
    Total Energy =                       -149.6406232194576376

    Alert: EFP and PCM quantities not currently incorporated into SCF psivars.
  UHF NO Occupations:
  HONO-2 :    2B1u 1.9985965
  HONO-1 :    1B2u 1.9785968
  HONO-0 :    1B3g 1.0000000
  LUNO+0 :    2B2u 0.0214032
  LUNO+1 :    3B1u 0.0014035
  LUNO+2 :    4 Ag 0.0008307
  LUNO+3 :    2B2g 0.0006474



Properties will be evaluated at   0.000000,   0.000000,   0.000000 Bohr

Properties computed using the SCF density matrix

  Nuclear Dipole Moment: (a.u.)
     X:     0.0000      Y:     0.0000      Z:     0.0000

  Electronic Dipole Moment: (a.u.)
     X:     0.0000      Y:     0.0000      Z:     0.0000

  Dipole Moment: (a.u.)
     X:     0.0000      Y:     0.0000      Z:     0.0000     Total:     0.0000

  Dipole Moment: (Debye)
     X:     0.0000      Y:     0.0000      Z:     0.0000     Total:     0.0000


*** tstop() called on cqc05 at Thu Aug 20 20:03:44 2020
Module time:
	user time   =       1.52 seconds =       0.03 minutes
	system time =       0.04 seconds =       0.00 minutes
	total time  =          1 seconds =       0.02 minutes
Total time:
	user time   =       1.52 seconds =       0.03 minutes
	system time =       0.04 seconds =       0.00 minutes
	total time  =          1 seconds =       0.02 minutes

*** tstart() called on cqc05
*** at Thu Aug 20 20:03:44 2020


	Wfn Parameters:
	--------------------
	Wavefunction         = CCSD
	Number of irreps     = 8
	Number of MOs        = 92
	Number of active MOs = 90
	AO-Basis             = NONE
	Semicanonical        = false
	Reference            = UHF
	Print Level          = 1

	IRREP	# MOs	# FZDC	# DOCC	# SOCC	# VIRT	# FZVR
	-----	-----	------	------	------	------	------
	 Ag	   19	    1	    2	    0	    16	    0
	 B1g	   5	    0	    0	    0	    5	    0
	 B2g	   11	    0	    1	    0	    10	    0
	 B3g	   11	    0	    0	    1	    10	    0
	 Au	   5	    0	    0	    0	    5	    0
	 B1u	   19	    1	    1	    0	    17	    0
	 B2u	   11	    0	    1	    0	    10	    0
	 B3u	   11	    0	    1	    0	    10	    0
	Transforming integrals...
	IWL integrals will be deleted.
	(OO|OO)...
	Presorting SO-basis two-electron integrals.
	Sorting File: SO Ints (nn|nn) nbuckets = 1
	Transforming the one-electron integrals and constructing Fock matrices
	Starting AA/AB first half-transformation.
	Sorting AA/AB half-transformed integrals.
	Starting BB first half-transformation.
	Sorting BB half-transformed integrals.
	First half integral transformation complete.
	Starting AA second half-transformation.
	Starting AB second half-transformation.
	Starting BB second half-transformation.
	Two-electron integral transformation complete.
	(OO|OV)...
	Starting AA second half-transformation.
	Starting AB second half-transformation.
	Starting BB second half-transformation.
	Two-electron integral transformation complete.
	(OO|VV)...
	Starting AA second half-transformation.
	Starting AB second half-transformation.
	Starting BB second half-transformation.
	Two-electron integral transformation complete.
	(OV|OO)...
	Starting AA/AB first half-transformation.
	Sorting AA/AB half-transformed integrals.
	Starting BB first half-transformation.
	Sorting BB half-transformed integrals.
	First half integral transformation complete.
	Starting AA second half-transformation.
	Starting AB second half-transformation.
	Starting BB second half-transformation.
	Two-electron integral transformation complete.
	(OV|OV)...
	Starting AA second half-transformation.
	Starting AB second half-transformation.
	Starting BB second half-transformation.
	Two-electron integral transformation complete.
	(OV|VV)...
	Starting AA second half-transformation.
	Starting AB second half-transformation.
	Starting BB second half-transformation.
	Two-electron integral transformation complete.
	(VV|OO)...
	Starting AA/AB first half-transformation.
	Sorting AA/AB half-transformed integrals.
	Starting BB first half-transformation.
	Sorting BB half-transformed integrals.
	First half integral transformation complete.
	Starting AA second half-transformation.
	Starting AB second half-transformation.
	Starting BB second half-transformation.
	Two-electron integral transformation complete.
	(VV|OV)...
	Starting AA second half-transformation.
	Starting AB second half-transformation.
	Starting BB second half-transformation.
	Two-electron integral transformation complete.
	(VV|VV)...
	Starting AA second half-transformation.
	Starting AB second half-transformation.
	Starting BB second half-transformation.
	Two-electron integral transformation complete.
	Frozen core energy     =   -128.88900347737109

	Size of irrep 0 of <AB|CD> integrals:      0.208 (MW) /      1.663 (MB)
	Size of irrep 1 of <AB|CD> integrals:      0.133 (MW) /      1.066 (MB)
	Size of irrep 2 of <AB|CD> integrals:      0.185 (MW) /      1.479 (MB)
	Size of irrep 3 of <AB|CD> integrals:      0.185 (MW) /      1.479 (MB)
	Size of irrep 4 of <AB|CD> integrals:      0.133 (MW) /      1.066 (MB)
	Size of irrep 5 of <AB|CD> integrals:      0.247 (MW) /      1.976 (MB)
	Size of irrep 6 of <AB|CD> integrals:      0.185 (MW) /      1.479 (MB)
	Size of irrep 7 of <AB|CD> integrals:      0.185 (MW) /      1.479 (MB)
	Total:                                     1.461 (MW) /     11.688 (MB)

	Size of irrep 0 of <ab|cd> integrals:      0.217 (MW) /      1.737 (MB)
	Size of irrep 1 of <ab|cd> integrals:      0.141 (MW) /      1.125 (MB)
	Size of irrep 2 of <ab|cd> integrals:      0.189 (MW) /      1.514 (MB)
	Size of irrep 3 of <ab|cd> integrals:      0.199 (MW) /      1.591 (MB)
	Size of irrep 4 of <ab|cd> integrals:      0.141 (MW) /      1.125 (MB)
	Size of irrep 5 of <ab|cd> integrals:      0.257 (MW) /      2.056 (MB)
	Size of irrep 6 of <ab|cd> integrals:      0.200 (MW) /      1.598 (MB)
	Size of irrep 7 of <ab|cd> integrals:      0.189 (MW) /      1.514 (MB)
	Total:                                     1.533 (MW) /     12.261 (MB)

	Size of irrep 0 of <Ab|Cd> integrals:      1.010 (MW) /      8.080 (MB)
	Size of irrep 1 of <Ab|Cd> integrals:      0.548 (MW) /      4.381 (MB)
	Size of irrep 2 of <Ab|Cd> integrals:      0.748 (MW) /      5.986 (MB)
	Size of irrep 3 of <Ab|Cd> integrals:      0.767 (MW) /      6.139 (MB)
	Size of irrep 4 of <Ab|Cd> integrals:      0.548 (MW) /      4.381 (MB)
	Size of irrep 5 of <Ab|Cd> integrals:      1.008 (MW) /      8.064 (MB)
	Size of irrep 6 of <Ab|Cd> integrals:      0.769 (MW) /      6.153 (MB)
	Size of irrep 7 of <Ab|Cd> integrals:      0.748 (MW) /      5.986 (MB)
	Total:                                     6.146 (MW) /     49.170 (MB)

	Size of irrep 0 of <IA|BC> integrals:      0.089 (MW) /      0.708 (MB)
	Size of irrep 1 of <IA|BC> integrals:      0.040 (MW) /      0.321 (MB)
	Size of irrep 2 of <IA|BC> integrals:      0.063 (MW) /      0.502 (MB)
	Size of irrep 3 of <IA|BC> integrals:      0.063 (MW) /      0.502 (MB)
	Size of irrep 4 of <IA|BC> integrals:      0.040 (MW) /      0.321 (MB)
	Size of irrep 5 of <IA|BC> integrals:      0.089 (MW) /      0.716 (MB)
	Size of irrep 6 of <IA|BC> integrals:      0.063 (MW) /      0.502 (MB)
	Size of irrep 7 of <IA|BC> integrals:      0.063 (MW) /      0.502 (MB)
	Total:                                     0.509 (MW) /      4.075 (MB)

	Size of irrep 0 of <ia|bc> integrals:      0.080 (MW) /      0.642 (MB)
	Size of irrep 1 of <ia|bc> integrals:      0.035 (MW) /      0.276 (MB)
	Size of irrep 2 of <ia|bc> integrals:      0.059 (MW) /      0.473 (MB)
	Size of irrep 3 of <ia|bc> integrals:      0.053 (MW) /      0.421 (MB)
	Size of irrep 4 of <ia|bc> integrals:      0.035 (MW) /      0.276 (MB)
	Size of irrep 5 of <ia|bc> integrals:      0.082 (MW) /      0.657 (MB)
	Size of irrep 6 of <ia|bc> integrals:      0.051 (MW) /      0.408 (MB)
	Size of irrep 7 of <ia|bc> integrals:      0.059 (MW) /      0.473 (MB)
	Total:                                     0.453 (MW) /      3.626 (MB)

	Size of irrep 0 of <Ia|Bc> integrals:      0.090 (MW) /      0.724 (MB)
	Size of irrep 1 of <Ia|Bc> integrals:      0.041 (MW) /      0.332 (MB)
	Size of irrep 2 of <Ia|Bc> integrals:      0.063 (MW) /      0.505 (MB)
	Size of irrep 3 of <Ia|Bc> integrals:      0.066 (MW) /      0.526 (MB)
	Size of irrep 4 of <Ia|Bc> integrals:      0.041 (MW) /      0.332 (MB)
	Size of irrep 5 of <Ia|Bc> integrals:      0.091 (MW) /      0.731 (MB)
	Size of irrep 6 of <Ia|Bc> integrals:      0.065 (MW) /      0.519 (MB)
	Size of irrep 7 of <Ia|Bc> integrals:      0.063 (MW) /      0.505 (MB)
	Total:                                     0.522 (MW) /      4.173 (MB)

	Size of irrep 0 of <iA|bC> integrals:      0.079 (MW) /      0.635 (MB)
	Size of irrep 1 of <iA|bC> integrals:      0.033 (MW) /      0.266 (MB)
	Size of irrep 2 of <iA|bC> integrals:      0.059 (MW) /      0.471 (MB)
	Size of irrep 3 of <iA|bC> integrals:      0.050 (MW) /      0.399 (MB)
	Size of irrep 4 of <iA|bC> integrals:      0.033 (MW) /      0.266 (MB)
	Size of irrep 5 of <iA|bC> integrals:      0.080 (MW) /      0.643 (MB)
	Size of irrep 6 of <iA|bC> integrals:      0.049 (MW) /      0.393 (MB)
	Size of irrep 7 of <iA|bC> integrals:      0.059 (MW) /      0.471 (MB)
	Total:                                     0.443 (MW) /      3.544 (MB)

	Size of irrep 0 of tIjAb amplitudes:       0.008 (MW) /      0.064 (MB)
	Size of irrep 1 of tIjAb amplitudes:       0.002 (MW) /      0.018 (MB)
	Size of irrep 2 of tIjAb amplitudes:       0.005 (MW) /      0.042 (MB)
	Size of irrep 3 of tIjAb amplitudes:       0.004 (MW) /      0.028 (MB)
	Size of irrep 4 of tIjAb amplitudes:       0.002 (MW) /      0.018 (MB)
	Size of irrep 5 of tIjAb amplitudes:       0.007 (MW) /      0.056 (MB)
	Size of irrep 6 of tIjAb amplitudes:       0.004 (MW) /      0.035 (MB)
	Size of irrep 7 of tIjAb amplitudes:       0.005 (MW) /      0.042 (MB)
	Total:                                     0.038 (MW) /      0.302 (MB)

	Nuclear Rep. energy          =     24.40432007449714
	SCF energy                   =   -149.64062321945764
	One-electron energy          =    -84.33737446929426
	Two-electron (AA) energy     =      9.83638919621581
	Two-electron (BB) energy     =      6.71458227965286
	Two-electron (AB) energy     =     22.63046317684145
	Two-electron energy          =     39.18143465271012
	Reference energy             =   -149.64062321945809

*** tstop() called on cqc05 at Thu Aug 20 20:03:45 2020
Module time:
	user time   =       0.80 seconds =       0.01 minutes
	system time =       0.45 seconds =       0.01 minutes
	total time  =          1 seconds =       0.02 minutes
Total time:
	user time   =       2.32 seconds =       0.04 minutes
	system time =       0.49 seconds =       0.01 minutes
	total time  =          2 seconds =       0.03 minutes

*** tstart() called on cqc05
*** at Thu Aug 20 20:03:45 2020

            **************************
            *                        *
            *        CCENERGY        *
            *                        *
            **************************

    Nuclear Rep. energy (wfn)     =   24.404320074497139
    SCF energy          (wfn)     = -149.640623219457638
    Reference energy    (file100) = -149.640623219458092

    Input parameters:
    -----------------
    Wave function   =     CCSD
    Reference wfn   =     UHF
    Brueckner       =     No
    Memory (Mbytes) =     250000.0
    Maxiter         =     50
    R_Convergence   =     1.0e-07
    E_Convergence   =     1.0e-06
    Restart         =     Yes
    DIIS            =     Yes
    AO Basis        =     NONE
    ABCD            =     NEW
    Cache Level     =     2
    Cache Type      =     LRU
    Print Level     =     1
    Num. of threads =     4
    # Amps to Print =     10
    Print MP2 Amps? =     No
    Analyze T2 Amps =     No
    Print Pair Ener =     No
    Local CC        =     No
    SCS-MP2         =     False
    SCSN-MP2        =     False
    SCS-CCSD        =     False

MP2 correlation energy -0.4905855304117378
                Solving CC Amplitude Equations
                ------------------------------
  Iter             Energy              RMS        T1Diag      D1Diag    New D1Diag    D2Diag
  ----     ---------------------    ---------   ----------  ----------  ----------   --------
     0        -0.490585530411740    0.000e+00    0.000000    0.000000    0.000000    0.000000
     1        -0.467538600353121    1.122e-01    0.024977    0.000000    0.000000    0.000000
     2        -0.486156107563094    3.616e-02    0.026461    0.000000    0.000000    0.000000
     3        -0.490167170127500    2.123e-02    0.034331    0.000000    0.000000    0.000000
     4        -0.489596642179380    5.620e-03    0.036170    0.000000    0.000000    0.000000
     5        -0.489532602473753    2.759e-03    0.036940    0.000000    0.000000    0.000000
     6        -0.489548267171604    7.729e-04    0.037066    0.000000    0.000000    0.000000
     7        -0.489550078622775    3.620e-04    0.037064    0.000000    0.000000    0.000000
     8        -0.489556573257921    1.223e-04    0.037073    0.000000    0.000000    0.000000
     9        -0.489559293140133    5.226e-05    0.037074    0.000000    0.000000    0.000000
    10        -0.489556887784274    2.315e-05    0.037074    0.000000    0.000000    0.000000
    11        -0.489557572953949    9.194e-06    0.037073    0.000000    0.000000    0.000000
    12        -0.489557049468801    3.207e-06    0.037073    0.000000    0.000000    0.000000
    13        -0.489557122983083    1.232e-06    0.037073    0.000000    0.000000    0.000000
    14        -0.489557165867025    4.282e-07    0.037073    0.000000    0.000000    0.000000
    15        -0.489557160374886    1.969e-07    0.037073    0.000000    0.000000    0.000000
    16        -0.489557161838577    6.235e-08    0.037073    0.000000    0.000000    0.000000
    16        -0.489557161838577    6.235e-08    0.037073    0.000000    0.000000    0.000000

    Iterations converged.


    CCSD corr. energy   =   -0.489557161838577
    PPL corr. energy    =    0.108453243700955
    OS PPL corr. energy =    0.086872679948368
    SS PPL corr. energy =    0.021580563752586
    Largest TIA Amplitudes:
              3  31        -0.0419859126
              2  21        -0.0413394060
              5  63        -0.0404843746
              6  73        -0.0360009446
              5  65        -0.0202909396
              6  75        -0.0152399912
              3  32        -0.0111965007
              1   5        -0.0103615773
              1  10         0.0094380769
              2  22        -0.0091649144

    Largest Tia Amplitudes:
              4  64         0.0612537057
              4  66         0.0482809803
              2  21        -0.0357754143
              5  74        -0.0291683602
              3  49         0.0182811199
              4  70         0.0114714830
              1   5        -0.0100780903
              4  68         0.0098403917
              1  10         0.0097932948
              5  76        -0.0088574855

    Largest TIJAB Amplitudes:
      2   1  75  48        -0.0205078179
      3   1  65  48        -0.0193165569
      2   1  77  48        -0.0151007696
      3   1  66  48        -0.0144788538
      2   1  74  48         0.0125333419
      3   2  75  65         0.0120344386
      6   5  75  65        -0.0116607059
      3   1  64  48         0.0115849094
      2   1  75  51         0.0113386540
      3   1  65  51         0.0110606661

    Largest Tijab Amplitudes:
      4   1  49  32         0.0694198964
      4   1  49  31         0.0518156300
      4   1  48  32        -0.0264505131
      4   2  76  32         0.0264208402
      4   2  74  32         0.0231756940
      4   1  52  32        -0.0221429222
      4   1  48  31        -0.0211614545
      2   1  76  49        -0.0209330508
      5   4  32  21         0.0186714490
      4   2  76  31         0.0172638500

    Largest TIjAb Amplitudes:
      1   1  48  49        -0.1007073459
      1   4  48  32        -0.0865209278
      1   4  48  31        -0.0628818106
      3   4  65  32        -0.0468761860
      1   1  47  49         0.0444521488
      3   4  63  32        -0.0438363739
      1   4  47  32         0.0404130473
      1   1  48  52         0.0377915959
      1   1  51  49         0.0355955572
      2   4  75  32        -0.0329338363

    SCF energy       (wfn)                    = -149.640623219457638
    Reference energy (file100)                = -149.640623219458092

    Opposite-spin MP2 correlation energy      =   -0.359193656163131
    Same-spin MP2 correlation energy          =   -0.131391874248561
    MP2 correlation energy                    =   -0.490585530411738
      * MP2 total energy                      = -150.131208749869842

    Opposite-spin CCSD correlation energy     =   -0.376416211578932
    Same-spin CCSD correlation energy         =   -0.113140951855964
    CCSD correlation energy                   =   -0.489557161838577
      * CCSD total energy                     = -150.130180381296668


*** tstop() called on cqc05 at Thu Aug 20 20:03:49 2020
Module time:
	user time   =       1.28 seconds =       0.02 minutes
	system time =       0.73 seconds =       0.01 minutes
	total time  =          4 seconds =       0.07 minutes
Total time:
	user time   =       3.60 seconds =       0.06 minutes
	system time =       1.22 seconds =       0.02 minutes
	total time  =          6 seconds =       0.10 minutes

*** Psi4 exiting successfully. Buy a developer a beer!
