
    -----------------------------------------------------------------------
          Psi4: An Open-Source Ab Initio Electronic Structure Package
                               Psi4 1.2a1.dev938 

                         Git: Rev {HEAD} fc51d9a dirty


    R. M. Parrish, L. A. Burns, D. G. A. Smith, A. C. Simmonett,
    A. E. DePrince III, E. G. Hohenstein, U. Bozkaya, A. Yu. Sokolov,
    R. Di Remigio, R. M. Richard, J. F. Gonthier, A. M. James,
    H. R. McAlexander, A. Kumar, M. Saitow, X. Wang, B. P. Pritchard,
    P. Verma, H. F. Schaefer III, K. Patkowski, R. A. King, E. F. Valeev,
    F. A. Evangelista, J. M. Turney, T. D. Crawford, and C. D. Sherrill,
    J. Chem. Theory Comput. 13(7) pp 3185--3197 (2017).
    (doi: 10.1021/acs.jctc.7b00174)

    -----------------------------------------------------------------------


    Psi4 started on: Friday, 21 August 2020 04:17AM

    Process ID: 427149
    PSIDATADIR: /home/irmler/Programs/psi4/beforeGrueneis3/stage/usr/local/psi4/share/psi4
    Memory:     500.0 MiB
    Threads:    4
    
  ==> Input File <==

--------------------------------------------------------------------------
# Any line starting with the # character is a comment line
memory 250000 mb
molecule molecule{
-1 2
O          0.0000000000        0.0000000000        0.6938800435
O          0.0000000000        0.0000000000       -0.6938800435
}

set {
  reference uhf
  basis aug-cc-pv(5+d)z
  scf_type OUT_OF_CORE
  freeze_core true
}

energy('ccsd')
--------------------------------------------------------------------------

  Memory set to 232.831 GiB by Python driver.

*** tstart() called on cqc05
*** at Fri Aug 21 04:17:32 2020

   => Loading Basis Set <=

    Name: AUG-CC-PV(5+D)Z
    Role: ORBITAL
    Keyword: BASIS
    atoms 1-2 entry O          line   377 file /home/irmler/Programs/psi4/beforeGrueneis3/stage/usr/local/psi4/share/psi4/basis/aug-cc-pv_5pd_z.gbs 


         ---------------------------------------------------------
                                   SCF
            by Justin Turney, Rob Parrish, Andy Simmonett
                             and Daniel Smith
                              UHF Reference
                        4 Threads, 238418 MiB Core
         ---------------------------------------------------------

  ==> Geometry <==

    Molecular point group: d2h
    Full point group: D_inf_h

    Geometry (in Angstrom), charge = -1, multiplicity = 2:

       Center              X                  Y                   Z               Mass       
    ------------   -----------------  -----------------  -----------------  -----------------
           O          0.000000000000     0.000000000000     0.693880043500    15.994914619560
           O          0.000000000000     0.000000000000    -0.693880043500    15.994914619560

  Running in d2h symmetry.

  Rotational constants: A = ************  B =      1.09450  C =      1.09450 [cm^-1]
  Rotational constants: A = ************  B =  32812.28538  C =  32812.28538 [MHz]
  Nuclear repulsion =   24.404320074497139

  Charge       = -1
  Multiplicity = 2
  Electrons    = 17
  Nalpha       = 9
  Nbeta        = 8

  ==> Algorithm <==

  SCF Algorithm Type is OUT_OF_CORE.
  DIIS enabled.
  MOM disabled.
  Fractional occupation disabled.
  Guess Type is GWH.
  Energy threshold   = 1.00e-08
  Density threshold  = 1.00e-08
  Integral threshold = 0.00e+00

  ==> Primary Basis <==

  Basis Set: AUG-CC-PV(5+D)Z
    Blend: AUG-CC-PV(5+D)Z
    Number of shells: 54
    Number of basis function: 254
    Number of Cartesian functions: 364
    Spherical Harmonics?: true
    Max angular momentum: 5

  ==> Pre-Iterations <==

   -------------------------------------------------------
    Irrep   Nso     Nmo     Nalpha   Nbeta   Ndocc  Nsocc
   -------------------------------------------------------
     Ag        46      46       0       0       0       0
     B1g       19      19       0       0       0       0
     B2g       31      31       0       0       0       0
     B3g       31      31       0       0       0       0
     Au        19      19       0       0       0       0
     B1u       46      46       0       0       0       0
     B2u       31      31       0       0       0       0
     B3u       31      31       0       0       0       0
   -------------------------------------------------------
    Total     254     254       9       8       8       1
   -------------------------------------------------------

  ==> Integral Setup <==

  ==> DiskJK: Disk-Based J/K Matrices <==

    J tasked:                  Yes
    K tasked:                  Yes
    wK tasked:                  No
    Memory (MB):            178813
    Schwarz Cutoff:          1E-12

  Minimum eigenvalue in the overlap matrix is 3.0367672719E-05.
  Using Symmetric Orthogonalization.

  SCF Guess: Generalized Wolfsberg-Helmholtz.

  ==> Iterations <==

                        Total Energy        Delta E     RMS |[F,P]|

    Occupation by irrep:
             Ag   B1g   B2g   B3g    Au   B1u   B2u   B3u 
    DOCC [     3,    0,    1,    0,    0,    2,    1,    1 ]
    SOCC [     0,    0,    0,    1,    0,    0,    0,    0 ]

   @UHF iter   1:  -133.20768949534460   -1.33208e+02   1.80965e-01 
    Occupation by irrep:
             Ag   B1g   B2g   B3g    Au   B1u   B2u   B3u 
    DOCC [     3,    0,    0,    0,    0,    3,    1,    1 ]
    SOCC [     0,    0,    0,    1,    0,    0,    0,    0 ]

   @UHF iter   2:  -147.93111304570004   -1.47234e+01   4.20857e-02 DIIS
    Occupation by irrep:
             Ag   B1g   B2g   B3g    Au   B1u   B2u   B3u 
    DOCC [     3,    0,    1,    0,    0,    2,    1,    1 ]
    SOCC [     0,    0,    0,    1,    0,    0,    0,    0 ]

   @UHF iter   3:  -146.28269021020188    1.64842e+00   4.17876e-02 DIIS
   @UHF iter   4:  -149.49777817318483   -3.21509e+00   1.09330e-02 DIIS
   @UHF iter   5:  -149.64736774415684   -1.49590e-01   1.40015e-03 DIIS
   @UHF iter   6:  -149.65182259677454   -4.45485e-03   2.19299e-04 DIIS
   @UHF iter   7:  -149.65194292538951   -1.20329e-04   7.67543e-05 DIIS
   @UHF iter   8:  -149.65196192688177   -1.90015e-05   2.75196e-05 DIIS
   @UHF iter   9:  -149.65196658305427   -4.65617e-06   9.28433e-06 DIIS
   @UHF iter  10:  -149.65196716497411   -5.81920e-07   1.95520e-06 DIIS
   @UHF iter  11:  -149.65196718618824   -2.12141e-08   5.41374e-07 DIIS
   @UHF iter  12:  -149.65196718727469   -1.08645e-09   7.37514e-08 DIIS
   @UHF iter  13:  -149.65196718730263   -2.79385e-11   1.97830e-08 DIIS
   @UHF iter  14:  -149.65196718730414   -1.50635e-12   4.65582e-09 DIIS

  ==> Post-Iterations <==

   @Spin Contamination Metric:   4.987196411E-02
   @S^2 Expected:                7.500000000E-01
   @S^2 Observed:                7.998719641E-01
   @S   Expected:                5.000000000E-01
   @S   Observed:                5.000000000E-01

    Orbital Energies (a.u.)
    -----------------------

    Alpha Occupied:                                                       

       1Ag   -20.329729     1B1u  -20.329392     2Ag    -1.164568  
       2B1u   -0.830068     1B2u   -0.387632     1B3u   -0.332000  
       3Ag    -0.304617     1B3g   -0.200282     1B2g   -0.137881  

    Alpha Virtual:                                                        

       3B1u    0.206161     4Ag     0.269875     2B2u    0.273826  
       2B3u    0.276422     2B3g    0.293486     2B2g    0.295662  
       5Ag     0.343266     4B1u    0.398137     5B1u    0.597969  
       6Ag     0.608326     1B1g    0.608428     7Ag     0.639517  
       3B2u    0.685055     3B3g    0.692176     3B3u    0.692716  
       3B2g    0.698060     6B1u    0.709254     1Au     0.709381  
       7B1u    0.745452     4B2u    0.757507     4B3u    0.767621  
       8Ag     0.777966     4B3g    0.814921     4B2g    0.823555  
       8B1u    0.840604     9Ag     1.089329     5B2u    1.178089  
       5B3u    1.178090     2B1g    1.323840    10Ag     1.323958  
       5B3g    1.375790     5B2g    1.375792     9B1u    1.413440  
       2Au     1.418894    10B1u    1.423521     6B2u    1.432790  
       6B3u    1.444480    11Ag     1.473287     6B3g    1.480805  
       6B2g    1.488351     3B1g    1.494079    12Ag     1.496445  
      11B1u    1.561173     7B2u    1.643612     7B3u    1.658124  
      13Ag     1.727136     7B3g    1.806458     7B2g    1.830296  
      12B1u    1.843046     3Au     1.851530    13B1u    1.858835  
       8B2u    1.904843     8B3u    1.933565    14Ag     2.534051  
       8B3g    2.592007     8B2g    2.614639    14B1u    2.749504  
       4B1g    2.783034    15Ag     2.783034     9B2u    2.853345  
       9B3u    2.853347    16Ag     3.015139     5B1g    3.015176  
       4Au     3.092233    15B1u    3.092233    10B2u    3.124945  
      17Ag     3.126907    10B3u    3.141729    11B2u    3.141790  
      11B3u    3.148116    16B1u    3.197483     5Au     3.198623  
      12B2u    3.215313    12B3u    3.230818    17B1u    3.243380  
       9B3g    3.243808     9B2g    3.243881    10B3g    3.291146  
      10B2g    3.306139    18Ag     3.321749    19Ag     3.370023  
       6B1g    3.370124    20Ag     3.533699    11B3g    3.616946  
      11B2g    3.616960     7B1g    3.657733    21Ag     3.658536  
      12B3g    3.684352    18B1u    3.687951     6Au     3.688877  
      12B2g    3.709413    19B1u    3.898605    20B1u    4.272520  
      22Ag     4.418187    13B2u    4.420028    13B3u    4.447460  
       7Au     4.531931    21B1u    4.532659    13B3g    5.342503  
      13B2g    5.369676    14B2u    5.415717    22B1u    5.420290  
      14B3g    5.431674    14B3u    5.456161    14B2g    5.472428  
       8B1g    6.178739    23Ag     6.178739    15B2u    6.389859  
      15B3u    6.389861    16B2u    6.401483    16B3u    6.401483  
      24Ag     6.495930    15B3g    6.621686    15B2g    6.621686  
      25Ag     6.711084     9B1g    6.711330    23B1u    6.793939  
      17B2u    6.866712    17B3u    6.889314    26Ag     6.993705  
      24B1u    7.120365     8Au     7.120365    10B1g    7.330229  
      27Ag     7.330229    25B1u    7.378170     9Au     7.380120  
      18B2u    7.381171    18B3u    7.394913    19B2u    7.404168  
      19B3u    7.413047    26B1u    7.458535    10Au     7.483662  
      27B1u    7.483670    16B3g    7.521125    16B2g    7.545388  
      17B3g    7.578769    17B2g    7.578939    28Ag     7.607800  
      11B1g    7.608030    20B2u    7.691865    20B3u    7.691873  
      29Ag     7.744567    18B3g    7.817562    18B2g    7.817572  
      19B3g    7.882512    19B2g    7.910674    30Ag     8.072982  
      20B3g    8.274410    20B2g    8.274419    12B1g    8.274564  
      31Ag     8.275036    28B1u    8.387129    11Au     8.387435  
      29B1u    8.459234    12Au     8.459476    13B1g    8.735120  
      32Ag     8.735621    21B2u    8.849500    30B1u    8.861166  
      21B3u    8.886546    31B1u    8.970727    21B3g    9.185581  
      21B2g    9.217150    33Ag     9.439009    13Au    10.122323  
      32B1u   10.122595    22B2u   10.151412    22B3u   10.179318  
      22B3g   11.555355    22B2g   11.587900    33B1u   11.722765  
      34B1u   12.627900    34Ag    13.179478    23B2u   16.017691  
      23B3u   16.055817    35Ag    16.422592    14B1g   16.459888  
      36Ag    16.459898    23B3g   16.465205    23B2g   16.506649  
      24B2u   16.514578    24B3u   16.514588    25B2u   16.529247  
      25B3u   16.561277    24B3g   16.603873    24B2g   16.603873  
      26B2u   16.647377    26B3u   16.647638    15B1g   16.757952  
      37Ag    16.759084    35B1u   16.769396    14Au    16.769396  
      25B3g   17.079024    25B2g   17.079030    38Ag    17.171062  
      36B1u   17.381494    15Au    17.382831    37B1u   17.621013  
      26B3g   17.794905    26B2g   17.824517    38B1u   18.305602  
      27B2u   19.311075    27B3u   19.311124    39Ag    19.352819  
      16B1g   19.353297    40Ag    19.369271    17B1g   19.369546  
      39B1u   19.451225    16Au    19.451225    28B2u   19.481001  
      28B3u   19.481021    27B3g   19.561176    27B2g   19.561377  
      29B2u   19.607289    28B3g   19.611254    28B2g   19.628152  
      29B3g   19.641157    29B3u   19.642119    29B2g   19.660396  
      41Ag    19.663979    18B1g   19.665810    40B1u   19.783495  
      42Ag    19.806828    17Au    19.910126    41B1u   19.911821  
      43Ag    20.069239    18Au    20.167709    42B1u   20.168713  
      30B2u   20.611281    30B3u   20.647402    30B3g   21.232629  
      30B2g   21.267291    43B1u   22.172441    19B1g   22.342191  
      44Ag    22.342239    31B2u   22.583955    31B3u   22.618502  
      19Au    22.631937    44B1u   22.632389    45Ag    24.092537  
      31B3g   24.419820    31B2g   24.453092    45B1u   25.615851  
      46Ag    63.421107    46B1u   63.607839  

    Beta Occupied:                                                        

       1Ag   -20.301832     1B1u  -20.301351     2Ag    -1.082931  
       2B1u   -0.717150     1B3u   -0.303336     3Ag    -0.279069  
       1B2u   -0.129560     1B2g   -0.101264  

    Beta Virtual:                                                         

       3B1u    0.206238     4Ag     0.270316     2B3u    0.276541  
       2B2u    0.280590     1B3g    0.282958     2B2g    0.296296  
       5Ag     0.340025     4B1u    0.401037     2B3g    0.410862  
       6Ag     0.603141     1B1g    0.603717     5B1u    0.617691  
       7Ag     0.636813     3B3u    0.692690     3B2u    0.696506  
       3B2g    0.699227     6B1u    0.709518     1Au     0.709568  
       3B3g    0.713160     7B1u    0.752585     4B3u    0.768739  
       8Ag     0.782785     4B2u    0.787744     4B2g    0.825966  
       4B3g    0.851510     8B1u    0.855793     9Ag     1.088357  
       5B2u    1.175115     5B3u    1.175115     2B1g    1.321137  
      10Ag     1.321377     5B3g    1.375811     5B2g    1.375812  
       9B1u    1.422433     2Au     1.425348    10B1u    1.426481  
       6B3u    1.442607     6B2u    1.446269    11Ag     1.478107  
       6B3g    1.484924     6B2g    1.487128     3B1g    1.506947  
      12Ag     1.507031    11B1u    1.564493     7B3u    1.657963  
       7B2u    1.662775    13Ag     1.734966     7B2g    1.836925  
      12B1u    1.858179     7B3g    1.864297     3Au     1.869347  
      13B1u    1.869709     8B3u    1.943613     8B2u    1.976874  
      14Ag     2.546561     8B2g    2.618818     8B3g    2.626725  
      14B1u    2.759467     4B1g    2.782887    15Ag     2.782887  
       9B3u    2.851939     9B2u    2.851941     5B1g    3.019247  
      16Ag     3.019398     4Au     3.094174    15B1u    3.094174  
      17Ag     3.140235    10B3u    3.150207    10B2u    3.150350  
      11B3u    3.153363    11B2u    3.153441    16B1u    3.203591  
       5Au     3.203797    12B2u    3.223641    12B3u    3.230127  
      17B1u    3.246477     9B3g    3.254163     9B2g    3.254171  
      10B3g    3.300228    10B2g    3.306539    18Ag     3.332023  
       6B1g    3.383196    19Ag     3.383792    20Ag     3.548044  
      11B2g    3.620788    11B3g    3.620795     7B1g    3.692191  
      21Ag     3.692843    12B2g    3.713910    12B3g    3.720491  
       6Au     3.736306    18B1u    3.736474    19B1u    3.915189  
      20B1u    4.280044    22Ag     4.429681    13B3u    4.453135  
      13B2u    4.456867     7Au     4.538866    21B1u    4.539113  
      13B3g    5.370262    13B2g    5.375306    22B1u    5.438172  
      14B3u    5.468125    14B2u    5.475460    14B2g    5.485528  
      14B3g    5.498392    23Ag     6.180883     8B1g    6.180883  
      15B2u    6.392408    15B3u    6.392408    16B2u    6.405046  
      16B3u    6.405046    24Ag     6.510938    15B2g    6.626839  
      15B3g    6.626839    25Ag     6.716737     9B1g    6.716930  
      23B1u    6.814469    17B2u    6.878702    17B3u    6.891746  
      26Ag     6.998211    24B1u    7.124245     8Au     7.124245  
      10B1g    7.344234    27Ag     7.344234    25B1u    7.386483  
       9Au     7.387255    18B2u    7.393222    18B3u    7.403596  
      19B2u    7.411550    19B3u    7.414592    26B1u    7.462224  
      10Au     7.497848    27B1u    7.497848    16B3g    7.535240  
      16B2g    7.548057    17B3g    7.591782    17B2g    7.591813  
      28Ag     7.618868    11B1g    7.619044    20B2u    7.722738  
      20B3u    7.722738    29Ag     7.754039    18B3g    7.840274  
      18B2g    7.840280    19B3g    7.901593    19B2g    7.913384  
      30Ag     8.085443    20B3g    8.283193    20B2g    8.283195  
      12B1g    8.295403    31Ag     8.295563    28B1u    8.406666  
      11Au     8.406767    29B1u    8.497899    12Au     8.497916  
      13B1g    8.777545    32Ag     8.777592    30B1u    8.876627  
      21B2u    8.896485    21B3u    8.897171    31B1u    8.977793  
      21B3g    9.211081    21B2g    9.223538    33Ag     9.454822  
      13Au    10.139485    32B1u   10.139564    22B2u   10.168444  
      22B3u   10.183070    22B3g   11.585683    22B2g   11.595051  
      33B1u   11.731567    34B1u   12.652244    34Ag    13.204192  
      23B2u   16.056663    23B3u   16.065171    35Ag    16.430023  
      14B1g   16.472584    36Ag    16.472586    23B3g   16.514758  
      23B2g   16.518609    24B2u   16.530670    24B3u   16.530671  
      25B2u   16.552834    25B3u   16.567344    24B3g   16.619771  
      24B2g   16.619771    26B2u   16.656713    26B3u   16.656794  
      15B1g   16.765444    37Ag    16.766034    35B1u   16.781885  
      14Au    16.781885    25B3g   17.088971    25B2g   17.088973  
      38Ag    17.182726    36B1u   17.390395    15Au    17.391089  
      37B1u   17.627082    26B3g   17.806647    26B2g   17.827577  
      38B1u   18.321346    27B2u   19.332301    27B3u   19.332310  
      39Ag    19.376405    16B1g   19.376603    40Ag    19.391002  
      17B1g   19.391027    39B1u   19.476929    16Au    19.476929  
      28B2u   19.513542    28B3u   19.513543    27B3g   19.594865  
      27B2g   19.594900    29B2u   19.630500    28B3g   19.636039  
      28B2g   19.648466    29B3u   19.649023    29B3g   19.657172  
      29B2g   19.665137    41Ag    19.685849    18B1g   19.686281  
      40B1u   19.797083    42Ag    19.819388    17Au    19.931250  
      41B1u   19.931822    43Ag    20.081087    18Au    20.185032  
      42B1u   20.185395    30B2u   20.633673    30B3u   20.653383  
      30B3g   21.257118    30B2g   21.274511    43B1u   22.186072  
      19B1g   22.375529    44Ag    22.375550    31B2u   22.615065  
      31B3u   22.626355    19Au    22.664231    44B1u   22.664287  
      45Ag    24.103481    31B3g   24.446496    31B2g   24.459925  
      45B1u   25.624521    46Ag    63.432719    46B1u   63.619171  

    Final Occupation by Irrep:
             Ag   B1g   B2g   B3g    Au   B1u   B2u   B3u 
    DOCC [     3,    0,    1,    0,    0,    2,    1,    1 ]
    SOCC [     0,    0,    0,    1,    0,    0,    0,    0 ]

  Energy converged.

  @UHF Final Energy:  -149.65196718730414

   => Energetics <=

    Nuclear Repulsion Energy =             24.4043200744971394
    One-Electron Energy =                -260.8799139986672913
    Two-Electron Energy =                  86.8236267368660179
    PCM Polarization Energy =               0.0000000000000000
    Total Energy =                       -149.6519671873041375

    Alert: EFP and PCM quantities not currently incorporated into SCF psivars.
  UHF NO Occupations:
  HONO-2 :    2B1u 1.9985754
  HONO-1 :    1B2u 1.9782689
  HONO-0 :    1B3g 1.0000000
  LUNO+0 :    2B2u 0.0217311
  LUNO+1 :    3B1u 0.0014246
  LUNO+2 :    4 Ag 0.0008472
  LUNO+3 :    2B2g 0.0006658



Properties will be evaluated at   0.000000,   0.000000,   0.000000 Bohr

Properties computed using the SCF density matrix

  Nuclear Dipole Moment: (a.u.)
     X:     0.0000      Y:     0.0000      Z:     0.0000

  Electronic Dipole Moment: (a.u.)
     X:     0.0000      Y:     0.0000      Z:     0.0000

  Dipole Moment: (a.u.)
     X:     0.0000      Y:     0.0000      Z:     0.0000     Total:     0.0000

  Dipole Moment: (Debye)
     X:     0.0000      Y:     0.0000      Z:     0.0000     Total:     0.0000


*** tstop() called on cqc05 at Fri Aug 21 04:18:47 2020
Module time:
	user time   =      71.50 seconds =       1.19 minutes
	system time =       2.89 seconds =       0.05 minutes
	total time  =         75 seconds =       1.25 minutes
Total time:
	user time   =      71.50 seconds =       1.19 minutes
	system time =       2.89 seconds =       0.05 minutes
	total time  =         75 seconds =       1.25 minutes

*** tstart() called on cqc05
*** at Fri Aug 21 04:18:47 2020


	Wfn Parameters:
	--------------------
	Wavefunction         = CCSD
	Number of irreps     = 8
	Number of MOs        = 254
	Number of active MOs = 252
	AO-Basis             = NONE
	Semicanonical        = false
	Reference            = UHF
	Print Level          = 1

	IRREP	# MOs	# FZDC	# DOCC	# SOCC	# VIRT	# FZVR
	-----	-----	------	------	------	------	------
	 Ag	   46	    1	    2	    0	    43	    0
	 B1g	   19	    0	    0	    0	    19	    0
	 B2g	   31	    0	    1	    0	    30	    0
	 B3g	   31	    0	    0	    1	    30	    0
	 Au	   19	    0	    0	    0	    19	    0
	 B1u	   46	    1	    1	    0	    44	    0
	 B2u	   31	    0	    1	    0	    30	    0
	 B3u	   31	    0	    1	    0	    30	    0
	Transforming integrals...
	IWL integrals will be deleted.
	(OO|OO)...
	Presorting SO-basis two-electron integrals.
	Sorting File: SO Ints (nn|nn) nbuckets = 1
	Transforming the one-electron integrals and constructing Fock matrices
	Starting AA/AB first half-transformation.
	Sorting AA/AB half-transformed integrals.
	Starting BB first half-transformation.
	Sorting BB half-transformed integrals.
	First half integral transformation complete.
	Starting AA second half-transformation.
	Starting AB second half-transformation.
	Starting BB second half-transformation.
	Two-electron integral transformation complete.
	(OO|OV)...
	Starting AA second half-transformation.
	Starting AB second half-transformation.
	Starting BB second half-transformation.
	Two-electron integral transformation complete.
	(OO|VV)...
	Starting AA second half-transformation.
	Starting AB second half-transformation.
	Starting BB second half-transformation.
	Two-electron integral transformation complete.
	(OV|OO)...
	Starting AA/AB first half-transformation.
	Sorting AA/AB half-transformed integrals.
	Starting BB first half-transformation.
	Sorting BB half-transformed integrals.
	First half integral transformation complete.
	Starting AA second half-transformation.
	Starting AB second half-transformation.
	Starting BB second half-transformation.
	Two-electron integral transformation complete.
	(OV|OV)...
	Starting AA second half-transformation.
	Starting AB second half-transformation.
	Starting BB second half-transformation.
	Two-electron integral transformation complete.
	(OV|VV)...
	Starting AA second half-transformation.
	Starting AB second half-transformation.
	Starting BB second half-transformation.
	Two-electron integral transformation complete.
	(VV|OO)...
	Starting AA/AB first half-transformation.
	Sorting AA/AB half-transformed integrals.
	Starting BB first half-transformation.
	Sorting BB half-transformed integrals.
	First half integral transformation complete.
	Starting AA second half-transformation.
	Starting AB second half-transformation.
	Starting BB second half-transformation.
	Two-electron integral transformation complete.
	(VV|OV)...
	Starting AA second half-transformation.
	Starting AB second half-transformation.
	Starting BB second half-transformation.
	Two-electron integral transformation complete.
	(VV|VV)...
	Starting AA second half-transformation.
	Starting AB second half-transformation.
	Starting BB second half-transformation.
	Two-electron integral transformation complete.
	Frozen core energy     =   -128.89181109130703

	Size of irrep 0 of <AB|CD> integrals:     15.453 (MW) /    123.622 (MB)
	Size of irrep 1 of <AB|CD> integrals:     11.923 (MW) /     95.386 (MB)
	Size of irrep 2 of <AB|CD> integrals:     14.062 (MW) /    112.500 (MB)
	Size of irrep 3 of <AB|CD> integrals:     14.062 (MW) /    112.500 (MB)
	Size of irrep 4 of <AB|CD> integrals:     11.923 (MW) /     95.386 (MB)
	Size of irrep 5 of <AB|CD> integrals:     16.427 (MW) /    131.414 (MB)
	Size of irrep 6 of <AB|CD> integrals:     14.062 (MW) /    112.500 (MB)
	Size of irrep 7 of <AB|CD> integrals:     14.062 (MW) /    112.500 (MB)
	Total:                                   111.976 (MW) /    895.808 (MB)

	Size of irrep 0 of <ab|cd> integrals:     15.690 (MW) /    125.516 (MB)
	Size of irrep 1 of <ab|cd> integrals:     12.131 (MW) /     97.050 (MB)
	Size of irrep 2 of <ab|cd> integrals:     14.205 (MW) /    113.643 (MB)
	Size of irrep 3 of <ab|cd> integrals:     14.387 (MW) /    115.095 (MB)
	Size of irrep 4 of <ab|cd> integrals:     12.131 (MW) /     97.050 (MB)
	Size of irrep 5 of <ab|cd> integrals:     16.671 (MW) /    133.367 (MB)
	Size of irrep 6 of <ab|cd> integrals:     14.394 (MW) /    115.155 (MB)
	Size of irrep 7 of <ab|cd> integrals:     14.205 (MW) /    113.643 (MB)
	Total:                                   113.815 (MW) /    910.520 (MB)

	Size of irrep 0 of <Ab|Cd> integrals:     66.211 (MW) /    529.686 (MB)
	Size of irrep 1 of <Ab|Cd> integrals:     48.108 (MW) /    384.865 (MB)
	Size of irrep 2 of <Ab|Cd> integrals:     56.535 (MW) /    452.283 (MB)
	Size of irrep 3 of <Ab|Cd> integrals:     56.897 (MW) /    455.175 (MB)
	Size of irrep 4 of <Ab|Cd> integrals:     48.108 (MW) /    384.865 (MB)
	Size of irrep 5 of <Ab|Cd> integrals:     66.194 (MW) /    529.556 (MB)
	Size of irrep 6 of <Ab|Cd> integrals:     56.912 (MW) /    455.295 (MB)
	Size of irrep 7 of <Ab|Cd> integrals:     56.535 (MW) /    452.283 (MB)
	Total:                                   455.501 (MW) /   3644.008 (MB)

	Size of irrep 0 of <IA|BC> integrals:      2.027 (MW) /     16.214 (MB)
	Size of irrep 1 of <IA|BC> integrals:      1.222 (MW) /      9.779 (MB)
	Size of irrep 2 of <IA|BC> integrals:      1.613 (MW) /     12.900 (MB)
	Size of irrep 3 of <IA|BC> integrals:      1.613 (MW) /     12.900 (MB)
	Size of irrep 4 of <IA|BC> integrals:      1.222 (MW) /      9.779 (MB)
	Size of irrep 5 of <IA|BC> integrals:      2.035 (MW) /     16.277 (MB)
	Size of irrep 6 of <IA|BC> integrals:      1.613 (MW) /     12.900 (MB)
	Size of irrep 7 of <IA|BC> integrals:      1.613 (MW) /     12.900 (MB)
	Total:                                    12.956 (MW) /    103.649 (MB)

	Size of irrep 0 of <ia|bc> integrals:      1.797 (MW) /     14.376 (MB)
	Size of irrep 1 of <ia|bc> integrals:      1.031 (MW) /      8.248 (MB)
	Size of irrep 2 of <ia|bc> integrals:      1.477 (MW) /     11.820 (MB)
	Size of irrep 3 of <ia|bc> integrals:      1.320 (MW) /     10.560 (MB)
	Size of irrep 4 of <ia|bc> integrals:      1.031 (MW) /      8.248 (MB)
	Size of irrep 5 of <ia|bc> integrals:      1.813 (MW) /     14.503 (MB)
	Size of irrep 6 of <ia|bc> integrals:      1.305 (MW) /     10.441 (MB)
	Size of irrep 7 of <ia|bc> integrals:      1.477 (MW) /     11.820 (MB)
	Total:                                    11.252 (MW) /     90.014 (MB)

	Size of irrep 0 of <Ia|Bc> integrals:      2.042 (MW) /     16.339 (MB)
	Size of irrep 1 of <Ia|Bc> integrals:      1.235 (MW) /      9.877 (MB)
	Size of irrep 2 of <Ia|Bc> integrals:      1.617 (MW) /     12.933 (MB)
	Size of irrep 3 of <Ia|Bc> integrals:      1.637 (MW) /     13.095 (MB)
	Size of irrep 4 of <Ia|Bc> integrals:      1.235 (MW) /      9.877 (MB)
	Size of irrep 5 of <Ia|Bc> integrals:      2.050 (MW) /     16.402 (MB)
	Size of irrep 6 of <Ia|Bc> integrals:      1.630 (MW) /     13.036 (MB)
	Size of irrep 7 of <Ia|Bc> integrals:      1.617 (MW) /     12.933 (MB)
	Total:                                    13.061 (MW) /    104.491 (MB)

	Size of irrep 0 of <iA|bC> integrals:      1.790 (MW) /     14.321 (MB)
	Size of irrep 1 of <iA|bC> integrals:      1.020 (MW) /      8.157 (MB)
	Size of irrep 2 of <iA|bC> integrals:      1.474 (MW) /     11.790 (MB)
	Size of irrep 3 of <iA|bC> integrals:      1.297 (MW) /     10.379 (MB)
	Size of irrep 4 of <iA|bC> integrals:      1.020 (MW) /      8.157 (MB)
	Size of irrep 5 of <iA|bC> integrals:      1.798 (MW) /     14.384 (MB)
	Size of irrep 6 of <iA|bC> integrals:      1.290 (MW) /     10.320 (MB)
	Size of irrep 7 of <iA|bC> integrals:      1.474 (MW) /     11.790 (MB)
	Total:                                    11.162 (MW) /     89.298 (MB)

	Size of irrep 0 of tIjAb amplitudes:       0.065 (MW) /      0.521 (MB)
	Size of irrep 1 of tIjAb amplitudes:       0.021 (MW) /      0.166 (MB)
	Size of irrep 2 of tIjAb amplitudes:       0.045 (MW) /      0.361 (MB)
	Size of irrep 3 of tIjAb amplitudes:       0.030 (MW) /      0.241 (MB)
	Size of irrep 4 of tIjAb amplitudes:       0.021 (MW) /      0.166 (MB)
	Size of irrep 5 of tIjAb amplitudes:       0.057 (MW) /      0.456 (MB)
	Size of irrep 6 of tIjAb amplitudes:       0.038 (MW) /      0.302 (MB)
	Size of irrep 7 of tIjAb amplitudes:       0.045 (MW) /      0.361 (MB)
	Total:                                     0.322 (MW) /      2.574 (MB)

	Nuclear Rep. energy          =     24.40432007449714
	SCF energy                   =   -149.65196718730414
	One-electron energy          =    -84.35859577986204
	Two-electron (AA) energy     =      9.84141213253031
	Two-electron (BB) energy     =      6.71536908773527
	Two-electron (AB) energy     =     22.63733838910172
	Two-electron energy          =     39.19411960936731
	Reference energy             =   -149.65196718730462

*** tstop() called on cqc05 at Fri Aug 21 04:19:58 2020
Module time:
	user time   =      43.90 seconds =       0.73 minutes
	system time =      27.38 seconds =       0.46 minutes
	total time  =         71 seconds =       1.18 minutes
Total time:
	user time   =     115.40 seconds =       1.92 minutes
	system time =      30.28 seconds =       0.50 minutes
	total time  =        146 seconds =       2.43 minutes

*** tstart() called on cqc05
*** at Fri Aug 21 04:19:58 2020

            **************************
            *                        *
            *        CCENERGY        *
            *                        *
            **************************

    Nuclear Rep. energy (wfn)     =   24.404320074497139
    SCF energy          (wfn)     = -149.651967187304137
    Reference energy    (file100) = -149.651967187304621

    Input parameters:
    -----------------
    Wave function   =     CCSD
    Reference wfn   =     UHF
    Brueckner       =     No
    Memory (Mbytes) =     250000.0
    Maxiter         =     50
    R_Convergence   =     1.0e-07
    E_Convergence   =     1.0e-06
    Restart         =     Yes
    DIIS            =     Yes
    AO Basis        =     NONE
    ABCD            =     NEW
    Cache Level     =     2
    Cache Type      =     LRU
    Print Level     =     1
    Num. of threads =     4
    # Amps to Print =     10
    Print MP2 Amps? =     No
    Analyze T2 Amps =     No
    Print Pair Ener =     No
    Local CC        =     No
    SCS-MP2         =     False
    SCSN-MP2        =     False
    SCS-CCSD        =     False

MP2 correlation energy -0.5355531948948309
                Solving CC Amplitude Equations
                ------------------------------
  Iter             Energy              RMS        T1Diag      D1Diag    New D1Diag    D2Diag
  ----     ---------------------    ---------   ----------  ----------  ----------   --------
     0        -0.535553194894833    0.000e+00    0.000000    0.000000    0.000000    0.000000
     1        -0.504226355810742    1.131e-01    0.024966    0.000000    0.000000    0.000000
     2        -0.523585741033212    3.711e-02    0.026003    0.000000    0.000000    0.000000
     3        -0.527358561923010    2.157e-02    0.033376    0.000000    0.000000    0.000000
     4        -0.526982540884296    6.577e-03    0.035571    0.000000    0.000000    0.000000
     5        -0.526804970683133    3.676e-03    0.036469    0.000000    0.000000    0.000000
     6        -0.526840903923151    1.243e-03    0.036733    0.000000    0.000000    0.000000
     7        -0.526852378087380    6.007e-04    0.036760    0.000000    0.000000    0.000000
     8        -0.526855996998503    2.264e-04    0.036778    0.000000    0.000000    0.000000
     9        -0.526860665877312    8.645e-05    0.036787    0.000000    0.000000    0.000000
    10        -0.526858599103737    3.881e-05    0.036788    0.000000    0.000000    0.000000
    11        -0.526858505696868    1.635e-05    0.036787    0.000000    0.000000    0.000000
    12        -0.526857844562830    7.104e-06    0.036787    0.000000    0.000000    0.000000
    13        -0.526857732429802    2.904e-06    0.036787    0.000000    0.000000    0.000000
    14        -0.526857795901019    9.920e-07    0.036787    0.000000    0.000000    0.000000
    15        -0.526857790156574    5.390e-07    0.036787    0.000000    0.000000    0.000000
    16        -0.526857795562945    1.933e-07    0.036787    0.000000    0.000000    0.000000
    17        -0.526857795338363    9.386e-08    0.036787    0.000000    0.000000    0.000000
    17        -0.526857795338363    9.386e-08    0.036787    0.000000    0.000000    0.000000

    Iterations converged.


    CCSD corr. energy   =   -0.526857795338363
    PPL corr. energy    =    0.122758917314117
    OS PPL corr. energy =    0.099929816718261
    SS PPL corr. energy =    0.022829100595856
    Largest TIA Amplitudes:
              2  62        -0.0361642207
              3  92        -0.0351211748
              5 185        -0.0305410249
              6 215        -0.0272360865
              5 187        -0.0262887803
              6 217        -0.0212686522
              3  93        -0.0171853774
              3  94        -0.0151198117
              2  63        -0.0143739933
              5 186        -0.0138777036

    Largest Tia Amplitudes:
              4 186         0.0531535439
              4 188         0.0520875210
              2  62        -0.0328250309
              4 192         0.0285555121
              5 216        -0.0220132468
              4 187         0.0188663092
              5 218        -0.0155924369
              3 144         0.0149297006
              4 191         0.0138348945
              3 147        -0.0120409813

    Largest TIJAB Amplitudes:
      2   1 217 143         0.0148313331
      3   1 187 143         0.0131114343
      2   1 217 146        -0.0128916883
      2   1 220 143         0.0127113998
      3   1 190 143         0.0119159914
      3   1 187 146        -0.0116090353
      2   1 219 143         0.0115553657
      3   1 189 143         0.0113582869
      2   1 220 146        -0.0100117635
      2   1 221 146        -0.0096301064

    Largest Tijab Amplitudes:
      4   1 144  93        -0.0641246895
      4   1 147  93         0.0556800833
      4   2 218  93         0.0300323000
      4   1 146  93        -0.0243392740
      4   1 144  92        -0.0197896201
      4   1 147  95         0.0190485837
      4   1 144  95        -0.0185092008
      4   2 216  93         0.0180608266
      4   1 143  93         0.0166520163
      4   1 147  92         0.0159778717

    Largest TIjAb Amplitudes:
      1   4 143  93         0.0859617714
      1   1 143 144        -0.0677891123
      1   4 146  93        -0.0644654155
      1   1 143 147         0.0618337119
      1   1 146 147        -0.0554413267
      1   1 146 144         0.0496726392
      3   4 187  93        -0.0467725218
      2   4 217  93        -0.0349270480
      3   4 185  93        -0.0331814876
      1   4 145  93         0.0299761761

    SCF energy       (wfn)                    = -149.651967187304137
    Reference energy (file100)                = -149.651967187304621

    Opposite-spin MP2 correlation energy      =   -0.398617299046497
    Same-spin MP2 correlation energy          =   -0.136935895848283
    MP2 correlation energy                    =   -0.535553194894831
      * MP2 total energy                      = -150.187520382199438

    Opposite-spin CCSD correlation energy     =   -0.408923087314029
    Same-spin CCSD correlation energy         =   -0.117934720442361
    CCSD correlation energy                   =   -0.526857795338363
      * CCSD total energy                     = -150.178824982642993


*** tstop() called on cqc05 at Fri Aug 21 04:21:21 2020
Module time:
	user time   =      39.01 seconds =       0.65 minutes
	system time =      39.99 seconds =       0.67 minutes
	total time  =         83 seconds =       1.38 minutes
Total time:
	user time   =     154.41 seconds =       2.57 minutes
	system time =      70.27 seconds =       1.17 minutes
	total time  =        229 seconds =       3.82 minutes

*** Psi4 exiting successfully. Buy a developer a beer!
