
    -----------------------------------------------------------------------
          Psi4: An Open-Source Ab Initio Electronic Structure Package
                               Psi4 1.2a1.dev939 

                         Git: Rev {HEAD} fa1ec19 dirty


    R. M. Parrish, L. A. Burns, D. G. A. Smith, A. C. Simmonett,
    A. E. DePrince III, E. G. Hohenstein, U. Bozkaya, A. Yu. Sokolov,
    R. Di Remigio, R. M. Richard, J. F. Gonthier, A. M. James,
    H. R. McAlexander, A. Kumar, M. Saitow, X. Wang, B. P. Pritchard,
    P. Verma, H. F. Schaefer III, K. Patkowski, R. A. King, E. F. Valeev,
    F. A. Evangelista, J. M. Turney, T. D. Crawford, and C. D. Sherrill,
    J. Chem. Theory Comput. 13(7) pp 3185--3197 (2017).
    (doi: 10.1021/acs.jctc.7b00174)

    -----------------------------------------------------------------------


    Psi4 started on: Saturday, 31 October 2020 06:51AM

    Process ID: 397080
    PSIDATADIR: /home/fs71337/airmler/src/psi4_uhf/build/stage/usr/local/psi4/share/psi4
    Memory:     500.0 MiB
    Threads:    48
    
  ==> Input File <==

--------------------------------------------------------------------------
# Any line starting with the # character is a comment line
memory 250000 mb
molecule molecule{
1 2
P          0.0000000000        0.0000000000        0.0447142727
H          0.0000000000        0.0000000000       -1.3740591214
}

set {
  reference uhf
  basis aug-cc-pv(6+d)z
  scf_type OUT_OF_CORE
  freeze_core true
}

energy('ccsd')
--------------------------------------------------------------------------

  Memory set to 232.831 GiB by Python driver.

*** tstart() called on n412-050.vsc4.prov
*** at Sat Oct 31 06:51:09 2020

   => Loading Basis Set <=

    Name: AUG-CC-PV(6+D)Z
    Role: ORBITAL
    Keyword: BASIS
    atoms 1 entry P          line  1025 file /home/fs71337/airmler/src/psi4_uhf/build/stage/usr/local/psi4/share/psi4/basis/aug-cc-pv_6pd_z.gbs 
    atoms 2 entry H          line    51 file /home/fs71337/airmler/src/psi4_uhf/build/stage/usr/local/psi4/share/psi4/basis/aug-cc-pv_6pd_z.gbs 


         ---------------------------------------------------------
                                   SCF
            by Justin Turney, Rob Parrish, Andy Simmonett
                             and Daniel Smith
                              UHF Reference
                       48 Threads, 238418 MiB Core
         ---------------------------------------------------------

  ==> Geometry <==

    Molecular point group: c2v
    Full point group: C_inf_v

    Geometry (in Angstrom), charge = 1, multiplicity = 2:

       Center              X                  Y                   Z               Mass       
    ------------   -----------------  -----------------  -----------------  -----------------
           P          0.000000000000     0.000000000000     0.044709330921    30.973761629000
           H          0.000000000000     0.000000000000    -1.374064063179     1.007825032070

  Running in c2v symmetry.

  Rotational constants: A = ************  B =      8.58008  C =      8.58008 [cm^-1]
  Rotational constants: A = ************  B = 257224.32602  C = 257224.32602 [MHz]
  Nuclear repulsion =    5.594732859989428

  Charge       = 1
  Multiplicity = 2
  Electrons    = 15
  Nalpha       = 8
  Nbeta        = 7

  ==> Algorithm <==

  SCF Algorithm Type is OUT_OF_CORE.
  DIIS enabled.
  MOM disabled.
  Fractional occupation disabled.
  Guess Type is GWH.
  Energy threshold   = 1.00e-08
  Density threshold  = 1.00e-08
  Integral threshold = 0.00e+00

  ==> Primary Basis <==

  Basis Set: AUG-CC-PV(6+D)Z
    Blend: AUG-CC-PV(6+D)Z
    Number of shells: 65
    Number of basis function: 325
    Number of Cartesian functions: 486
    Spherical Harmonics?: true
    Max angular momentum: 6

  ==> Pre-Iterations <==

   -------------------------------------------------------
    Irrep   Nso     Nmo     Nalpha   Nbeta   Ndocc  Nsocc
   -------------------------------------------------------
     A1       116     116       0       0       0       0
     A2        51      51       0       0       0       0
     B1        79      79       0       0       0       0
     B2        79      79       0       0       0       0
   -------------------------------------------------------
    Total     325     325       8       7       7       1
   -------------------------------------------------------

  ==> Integral Setup <==

  ==> DiskJK: Disk-Based J/K Matrices <==

    J tasked:                  Yes
    K tasked:                  Yes
    wK tasked:                  No
    Memory (MB):            178813
    Schwarz Cutoff:          1E-12

  Minimum eigenvalue in the overlap matrix is 9.0425245331E-06.
  Using Symmetric Orthogonalization.

  SCF Guess: Generalized Wolfsberg-Helmholtz.

  ==> Iterations <==

                        Total Energy        Delta E     RMS |[F,P]|

    Occupation by irrep:
             A1    A2    B1    B2 
    DOCC [     4,    0,    2,    1 ]
    SOCC [     0,    0,    0,    1 ]

   @UHF iter   1:  -213.43481150670223   -2.13435e+02   6.95416e-01 
    Occupation by irrep:
             A1    A2    B1    B2 
    DOCC [     5,    0,    1,    1 ]
    SOCC [     0,    0,    0,    1 ]

   @UHF iter   2:  -339.01640651656930   -1.25582e+02   3.38594e-02 DIIS
   @UHF iter   3:  -340.42154559658388   -1.40514e+00   2.57443e-02 DIIS
   @UHF iter   4:  -340.90720281783183   -4.85657e-01   4.92097e-03 DIIS
   @UHF iter   5:  -340.94550577187135   -3.83030e-02   8.68996e-04 DIIS
   @UHF iter   6:  -340.94752826642741   -2.02249e-03   2.49937e-04 DIIS
   @UHF iter   7:  -340.94772760353112   -1.99337e-04   1.02353e-04 DIIS
   @UHF iter   8:  -340.94777325516122   -4.56516e-05   4.52697e-05 DIIS
   @UHF iter   9:  -340.94778499594167   -1.17408e-05   1.72398e-05 DIIS
   @UHF iter  10:  -340.94778732032682   -2.32439e-06   8.32054e-06 DIIS
   @UHF iter  11:  -340.94778782592914   -5.05602e-07   2.15151e-06 DIIS
   @UHF iter  12:  -340.94778784934852   -2.34194e-08   2.83577e-07 DIIS
   @UHF iter  13:  -340.94778784964416   -2.95643e-10   5.28502e-08 DIIS
   @UHF iter  14:  -340.94778784965297   -8.81073e-12   1.53117e-08 DIIS
   @UHF iter  15:  -340.94778784965428   -1.30740e-12   3.40006e-09 DIIS

  ==> Post-Iterations <==

   @Spin Contamination Metric:   1.791657622E-02
   @S^2 Expected:                7.500000000E-01
   @S^2 Observed:                7.679165762E-01
   @S   Expected:                5.000000000E-01
   @S   Observed:                5.000000000E-01

    Orbital Energies (a.u.)
    -----------------------

    Alpha Occupied:                                                       

       1A1   -80.361901     2A1    -7.897085     1B2    -5.801322  
       1B1    -5.784796     3A1    -5.782933     4A1    -1.141689  
       5A1    -0.785623     2B2    -0.708728  

    Alpha Virtual:                                                        

       2B1    -0.326630     6A1    -0.125336     7A1    -0.096414  
       3B2    -0.078155     8A1    -0.077871     3B1    -0.076226  
       4B2    -0.045392     4B1    -0.042319     9A1    -0.041681  
       1A2    -0.041152    10A1    -0.036886    11A1     0.023220  
      12A1     0.040862     5B2     0.050383     5B1     0.053022  
       6B2     0.063227     6B1     0.065169    13A1     0.081217  
      14A1     0.097328     7B2     0.117736     7B1     0.127948  
       2A2     0.128397    15A1     0.129595     3A2     0.149145  
      16A1     0.149261     8B2     0.150684     8B1     0.150708  
      17A1     0.218546     9B1     0.246945     9B2     0.251420  
      18A1     0.272501    19A1     0.308172     4A2     0.318714  
      20A1     0.319643    10B1     0.324313    10B2     0.326625  
      21A1     0.401408    11B2     0.489261     5A2     0.489658  
      22A1     0.489660    11B1     0.489753    12B2     0.494274  
      12B1     0.500006    23A1     0.501407    13B2     0.561104  
      13B1     0.562438    24A1     0.571706     6A2     0.571824  
      25A1     0.595418    14B1     0.596707    14B2     0.602414  
      26A1     0.622472     7A2     0.642887    27A1     0.644138  
      15B2     0.655540    15B1     0.655557    28A1     0.673952  
       8A2     0.688610    29A1     0.689004    16B1     0.695944  
      16B2     0.701127    17B1     0.895237    17B2     0.900978  
      30A1     0.914044     9A2     0.968013    31A1     0.968137  
      18B1     0.981367    18B2     0.981372    32A1     1.013232  
      19B1     1.122214    19B2     1.128587    33A1     1.144196  
      34A1     1.270527    20B1     1.357550    20B2     1.357550  
      35A1     1.360508    10A2     1.360508    21B1     1.439779  
      21B2     1.452567    36A1     1.459863    11A2     1.459895  
      22B1     1.465707    22B2     1.467309    37A1     1.467918  
      12A2     1.483500    38A1     1.485683    23B1     1.547840  
      39A1     1.552827    13A2     1.556271    23B2     1.558048  
      40A1     1.572178    24B1     1.578741    24B2     1.579695  
      25B1     1.589382    25B2     1.599168    41A1     1.655438  
      14A2     1.657234    42A1     1.701341    26B1     1.706734  
      26B2     1.706742    15A2     1.728915    43A1     1.729121  
      27B1     1.820318    27B2     1.828681    44A1     1.844131  
      28B1     1.928995    28B2     1.938602    45A1     2.106898  
      46A1     2.140750    16A2     2.140750    47A1     2.173050  
      17A2     2.173573    29B1     2.189091    29B2     2.201202  
      48A1     2.232028    18A2     2.373257    49A1     2.373359  
      50A1     2.442918    30B1     2.451692    30B2     2.451717  
      31B1     2.490560    31B2     2.500144    51A1     2.664992  
      32B1     2.878291    32B2     2.895127    33B1     3.014576  
      33B2     3.014580    52A1     3.073850    34B1     3.088878  
      34B2     3.088878    19A2     3.094365    53A1     3.094365  
      20A2     3.195391    54A1     3.196052    55A1     3.274944  
      21A2     3.274945    35B1     3.293417    35B2     3.293674  
      36B1     3.336203    56A1     3.345976    22A2     3.345977  
      36B2     3.352894    37B1     3.384763    37B2     3.384763  
      57A1     3.405165    23A2     3.405175    58A1     3.446069  
      59A1     3.478956    24A2     3.482830    60A1     3.525562  
      38B1     3.535428    38B2     3.547499    39B1     3.556463  
      39B2     3.567745    61A1     3.618318    25A2     3.619227  
      40B1     3.717551    40B2     3.741121    62A1     3.766965  
      63A1     3.900477    26A2     3.917026    41B1     3.917769  
      41B2     3.917779    64A1     3.925463    42B1     4.061575  
      42B2     4.073512    65A1     4.149916    27A2     4.150974  
      43B1     4.210487    43B2     4.229539    44B1     4.254453  
      44B2     4.254453    66A1     4.261662    45B1     4.330753  
      45B2     4.330762    28A2     4.386556    67A1     4.386604  
      68A1     4.452338    69A1     4.723492    29A2     4.899162  
      70A1     4.899162    46B1     4.935248    46B2     4.950218  
      30A2     5.107483    71A1     5.107501    47B1     5.131719  
      47B2     5.140538    72A1     5.149672    48B1     5.228979  
      48B2     5.228983    73A1     5.379176    49B1     5.499882  
      49B2     5.517814    31A2     5.542887    74A1     5.543449  
      50B1     6.198620    50B2     6.213737    75A1     6.306444  
      51B1     6.532966    51B2     6.548815    76A1     6.741634  
      32A2     6.741635    52B1     6.766327    52B2     6.766541  
      53B1     6.825626    53B2     6.845945    77A1     6.891510  
      33A2     6.902395    78A1     6.922684    54B1     6.981135  
      54B2     6.981153    34A2     7.006836    79A1     7.006836  
      80A1     7.026542    35A2     7.143612    81A1     7.143612  
      55B1     7.167367    55B2     7.167367    36A2     7.253827  
      82A1     7.254226    37A2     7.422525    83A1     7.422525  
      56B1     7.517729    56B2     7.517730    84A1     7.572769  
      38A2     7.572774    57B1     7.574885    57B2     7.601562  
      85A1     7.608048    58B1     7.655219    58B2     7.655776  
      86A1     7.771770    39A2     7.776602    87A1     7.830059  
      59B1     8.081238    59B2     8.107302    60B1     8.360550  
      60B2     8.360577    88A1     8.505886    61B1     8.518111  
      61B2     8.539827    40A2     8.566066    89A1     8.566071  
      62B1     8.688720    62B2     8.688759    90A1     8.903717  
      41A2     8.907135    91A1     8.913927    42A2     9.377648  
      92A1     9.377692    93A1     9.568176    63B1     9.695185  
      63B2     9.711046    94A1     9.729580    64B1     9.731292  
      64B2     9.731293    65B1    10.136439    65B2    10.149565  
      43A2    10.162949    95A1    10.163043    96A1    10.504529  
      44A2    10.609976    97A1    10.610061    66B1    10.755558  
      66B2    10.765868    98A1    11.644727    67B1    12.068030  
      67B2    12.082891    99A1    13.149246    68B1    13.315848  
      68B2    13.320632   100A1    15.250874    69B2    17.226482  
      69B1    17.226482    45A2    17.351497   101A1    17.351497  
      70B1    17.473033    70B2    17.473033   102A1    17.732303  
      46A2    17.732314   103A1    18.196072    71B1    18.266828  
      71B2    18.273156    47A2    20.022940   104A1    20.022940  
      72B1    20.344796    72B2    20.344796   105A1    20.904283  
      48A2    20.904288    73B1    21.189527    73B2    21.193411  
     106A1    21.283594   107A1    22.099282    49A2    22.769318  
     108A1    22.769323    74B2    23.760639    74B1    23.760639  
     109A1    24.018385    75B1    24.141708    75B2    24.145611  
     110A1    24.349703    50A2    24.349704    76B1    24.511830  
      76B2    24.515300   111A1    24.662127    51A2    25.586100  
     112A1    25.586138    77B1    25.889428    77B2    25.894997  
      78B1    26.649241    78B2    26.653337   113A1    26.669851  
     114A1    30.703245    79B1    34.535833    79B2    34.537654  
     115A1    36.159620   116A1   213.974063  

    Beta Occupied:                                                        

       1A1   -80.352996     2A1    -7.887686     1B1    -5.780508  
       3A1    -5.778681     1B2    -5.760479     4A1    -1.059720  
       5A1    -0.765005  

    Beta Virtual:                                                         

       2B1    -0.310211     2B2    -0.252820     6A1    -0.119659  
       7A1    -0.086500     8A1    -0.077080     3B1    -0.075312  
       3B2    -0.068047     4B1    -0.041886     9A1    -0.036442  
       4B2    -0.030827     1A2    -0.028224    10A1    -0.026311  
      11A1     0.026670    12A1     0.042229     5B1     0.053622  
       5B2     0.058543     6B1     0.067190     6B2     0.081992  
      13A1     0.083488    14A1     0.101315     7B1     0.128788  
       7B2     0.149895    15A1     0.150477     2A2     0.150486  
       8B1     0.153556     8B2     0.153641     3A2     0.166059  
      16A1     0.167670    17A1     0.220337     9B1     0.247398  
       9B2     0.255809    18A1     0.277963    19A1     0.312411  
       4A2     0.321790    20A1     0.322929    10B1     0.324629  
      10B2     0.331644    21A1     0.406688    11B1     0.491990  
      11B2     0.492213    22A1     0.492628     5A2     0.492628  
      23A1     0.503645    12B1     0.504533    12B2     0.532434  
      13B1     0.563456    24A1     0.584537     6A2     0.586725  
      13B2     0.588473    14B1     0.597120    25A1     0.597225  
      14B2     0.609166    26A1     0.626027    27A1     0.661103  
       7A2     0.662046    15B1     0.672176    15B2     0.672729  
      28A1     0.683551    16B1     0.697642     8A2     0.702072  
      29A1     0.706688    16B2     0.716406    17B1     0.895813  
      17B2     0.905872    30A1     0.918213     9A2     0.969686  
      31A1     0.970143    18B1     0.982768    18B2     0.982792  
      32A1     1.020029    19B1     1.123376    19B2     1.138487  
      33A1     1.146077    34A1     1.277223    20B1     1.362951  
      20B2     1.362951    35A1     1.364778    10A2     1.364778  
      21B1     1.440875    21B2     1.463118    36A1     1.470219  
      11A2     1.472436    37A1     1.473667    22B1     1.474939  
      22B2     1.480151    12A2     1.488806    38A1     1.493124  
      23B1     1.548742    39A1     1.554952    13A2     1.561158  
      23B2     1.567274    40A1     1.576895    24B1     1.581683  
      24B2     1.585246    25B1     1.591127    25B2     1.610253  
      41A1     1.663805    14A2     1.671756    42A1     1.715876  
      26B1     1.735138    26B2     1.735475    15A2     1.748179  
      43A1     1.749504    27B1     1.824146    44A1     1.846200  
      27B2     1.863666    28B1     1.931115    28B2     1.953586  
      45A1     2.112295    46A1     2.142396    16A2     2.142396  
      47A1     2.176997    17A2     2.178081    29B1     2.189768  
      29B2     2.210686    48A1     2.236798    18A2     2.375199  
      49A1     2.375490    50A1     2.444882    30B1     2.452258  
      30B2     2.452296    31B1     2.491106    31B2     2.503553  
      51A1     2.667918    32B1     2.880644    32B2     2.911693  
      33B1     3.019583    33B2     3.019600    52A1     3.080052  
      34B1     3.095724    34B2     3.095724    19A2     3.102676  
      53A1     3.102676    20A2     3.203702    54A1     3.205335  
      55A1     3.294471    21A2     3.294474    35B1     3.305938  
      35B2     3.307584    36B1     3.339709    56A1     3.353885  
      22A2     3.353890    36B2     3.365985    37B1     3.399292  
      37B2     3.399292    57A1     3.414613    23A2     3.414662  
      58A1     3.452227    59A1     3.483224    24A2     3.490063  
      60A1     3.533426    38B1     3.535309    38B2     3.552938  
      39B1     3.564584    39B2     3.579485    61A1     3.625569  
      25A2     3.627089    40B1     3.718689    40B2     3.748758  
      62A1     3.772940    63A1     3.901607    26A2     3.929748  
      41B1     3.937991    41B2     3.938037    64A1     3.943035  
      42B1     4.061812    42B2     4.078473    65A1     4.156982  
      27A2     4.159106    43B1     4.211864    43B2     4.243164  
      44B1     4.255991    44B2     4.255991    66A1     4.269716  
      45B1     4.335654    45B2     4.335693    28A2     4.390337  
      67A1     4.390556    68A1     4.453138    69A1     4.726617  
      29A2     4.901413    70A1     4.901413    46B1     4.936486  
      46B2     4.964068    30A2     5.108963    71A1     5.109019  
      47B1     5.131777    47B2     5.144075    72A1     5.153094  
      48B1     5.230122    48B2     5.230128    73A1     5.380506  
      49B1     5.500876    49B2     5.523781    31A2     5.548813  
      74A1     5.549844    50B1     6.201200    50B2     6.231420  
      75A1     6.308324    51B1     6.533534    51B2     6.559738  
      76A1     6.757083    32A2     6.757089    52B1     6.776717  
      52B2     6.777445    53B1     6.828086    53B2     6.855504  
      77A1     6.892412    33A2     6.908540    78A1     6.933713  
      54B1     6.986078    54B2     6.986112    34A2     7.010646  
      79A1     7.010647    80A1     7.028343    35A2     7.157628  
      81A1     7.157628    55B1     7.178961    55B2     7.178961  
      36A2     7.259818    82A1     7.260590    37A2     7.430778  
      83A1     7.430779    56B1     7.533370    56B2     7.533377  
      57B1     7.574265    84A1     7.583161    38A2     7.583181  
      57B2     7.608721    85A1     7.611959    58B1     7.665097  
      58B2     7.666212    86A1     7.775071    39A2     7.783197  
      87A1     7.837766    59B1     8.083089    59B2     8.118227  
      60B1     8.365477    60B2     8.365542    88A1     8.508829  
      61B1     8.518961    61B2     8.546877    89A1     8.571480  
      40A2     8.571543    62B1     8.696657    62B2     8.696736  
      90A1     8.908306    41A2     8.917366    91A1     8.922821  
      42A2     9.378562    92A1     9.378628    93A1     9.572786  
      63B1     9.696012    63B2     9.718896    94A1     9.730481  
      64B1     9.731537    64B2     9.731538    65B1    10.136252  
      65B2    10.152445    43A2    10.166148    95A1    10.166289  
      96A1    10.507250    44A2    10.610608    97A1    10.610730  
      66B1    10.755573    66B2    10.768159    98A1    11.645263  
      67B1    12.068401    67B2    12.086777    99A1    13.153722  
      68B1    13.314953    68B2    13.320367   100A1    15.251039  
      69B1    17.226492    69B2    17.226492    45A2    17.351622  
     101A1    17.351622    70B1    17.473220    70B2    17.473220  
     102A1    17.732585    46A2    17.732599   103A1    18.196343  
      71B1    18.266561    71B2    18.273809    47A2    20.022725  
     104A1    20.022725    72B1    20.344696    72B2    20.344696  
     105A1    20.904189    48A2    20.904195    73B1    21.189162  
      73B2    21.193844   106A1    21.283434   107A1    22.098523  
      49A2    22.768814   108A1    22.768820    74B1    23.760238  
      74B2    23.760238   109A1    24.017974    75B1    24.141194  
      75B2    24.146176   110A1    24.349316    50A2    24.349317  
      76B1    24.511336    76B2    24.515252   111A1    24.662383  
      51A2    25.598728   112A1    25.598742    77B1    25.891676  
      77B2    25.909358    78B1    26.651841    78B2    26.672711  
     113A1    26.674198   114A1    30.705502    79B1    34.535059  
      79B2    34.537032   115A1    36.159015   116A1   213.977558  

    Final Occupation by Irrep:
             A1    A2    B1    B2 
    DOCC [     5,    0,    1,    1 ]
    SOCC [     0,    0,    0,    1 ]

  Energy converged.

  @UHF Final Energy:  -340.94778784965428

   => Energetics <=

    Nuclear Repulsion Energy =              5.5947328599894277
    One-Electron Energy =                -477.4358857942760892
    Two-Electron Energy =                 130.8933650846323644
    PCM Polarization Energy =               0.0000000000000000
    Total Energy =                       -340.9477878496542758

    Alert: EFP and PCM quantities not currently incorporated into SCF psivars.
  UHF NO Occupations:
  HONO-2 :    4 A1 1.9996608
  HONO-1 :    5 A1 1.9913506
  HONO-0 :    2 B2 1.0000000
  LUNO+0 :    6 A1 0.0086494
  LUNO+1 :    7 A1 0.0003392
  LUNO+2 :    3 B2 0.0000063
  LUNO+3 :    2 B1 0.0000004



Properties will be evaluated at   0.000000,   0.000000,   0.000000 Bohr

Properties computed using the SCF density matrix

  Nuclear Dipole Moment: (a.u.)
     X:     0.0000      Y:     0.0000      Z:    -1.3293

  Electronic Dipole Moment: (a.u.)
     X:     0.0000      Y:     0.0000      Z:     0.9644

  Dipole Moment: (a.u.)
     X:     0.0000      Y:     0.0000      Z:    -0.3648     Total:     0.3648

  Dipole Moment: (Debye)
     X:     0.0000      Y:     0.0000      Z:    -0.9273     Total:     0.9273


*** tstop() called on n412-050.vsc4.prov at Sat Oct 31 07:01:36 2020
Module time:
	user time   =     674.24 seconds =      11.24 minutes
	system time =      51.24 seconds =       0.85 minutes
	total time  =        627 seconds =      10.45 minutes
Total time:
	user time   =     674.24 seconds =      11.24 minutes
	system time =      51.24 seconds =       0.85 minutes
	total time  =        627 seconds =      10.45 minutes

*** tstart() called on n412-050.vsc4.prov
*** at Sat Oct 31 07:01:36 2020


	Wfn Parameters:
	--------------------
	Wavefunction         = CCSD
	Number of irreps     = 4
	Number of MOs        = 325
	Number of active MOs = 320
	AO-Basis             = NONE
	Semicanonical        = false
	Reference            = UHF
	Print Level          = 1

	IRREP	# MOs	# FZDC	# DOCC	# SOCC	# VIRT	# FZVR
	-----	-----	------	------	------	------	------
	 A1	   116	    3	    2	    0	    111	    0
	 A2	   51	    0	    0	    0	    51	    0
	 B1	   79	    1	    0	    0	    78	    0
	 B2	   79	    1	    0	    1	    77	    0
	Transforming integrals...
	IWL integrals will be deleted.
	(OO|OO)...
	Presorting SO-basis two-electron integrals.
	Sorting File: SO Ints (nn|nn) nbuckets = 1
	Transforming the one-electron integrals and constructing Fock matrices
	Starting AA/AB first half-transformation.
	Sorting AA/AB half-transformed integrals.
	Starting BB first half-transformation.
	Sorting BB half-transformed integrals.
	First half integral transformation complete.
	Starting AA second half-transformation.
	Starting AB second half-transformation.
	Starting BB second half-transformation.
	Two-electron integral transformation complete.
	(OO|OV)...
	Starting AA second half-transformation.
	Starting AB second half-transformation.
	Starting BB second half-transformation.
	Two-electron integral transformation complete.
	(OO|VV)...
	Starting AA second half-transformation.
	Starting AB second half-transformation.
	Starting BB second half-transformation.
	Two-electron integral transformation complete.
	(OV|OO)...
	Starting AA/AB first half-transformation.
	Sorting AA/AB half-transformed integrals.
	Starting BB first half-transformation.
	Sorting BB half-transformed integrals.
	First half integral transformation complete.
	Starting AA second half-transformation.
	Starting AB second half-transformation.
	Starting BB second half-transformation.
	Two-electron integral transformation complete.
	(OV|OV)...
	Starting AA second half-transformation.
	Starting AB second half-transformation.
	Starting BB second half-transformation.
	Two-electron integral transformation complete.
	(OV|VV)...
	Starting AA second half-transformation.
	Starting AB second half-transformation.
	Starting BB second half-transformation.
	Two-electron integral transformation complete.
	(VV|OO)...
	Starting AA/AB first half-transformation.
	Sorting AA/AB half-transformed integrals.
	Starting BB first half-transformation.
	Sorting BB half-transformed integrals.
	First half integral transformation complete.
	Starting AA second half-transformation.
	Starting AB second half-transformation.
	Starting BB second half-transformation.
	Two-electron integral transformation complete.
	(VV|OV)...
	Starting AA second half-transformation.
	Starting AB second half-transformation.
	Starting BB second half-transformation.
	Two-electron integral transformation complete.
	(VV|VV)...
	Starting AA second half-transformation.
	Starting AB second half-transformation.
	Starting BB second half-transformation.
	Two-electron integral transformation complete.
	Frozen core energy     =   -338.09297826290748

	Size of irrep 0 of <AB|CD> integrals:    177.129 (MW) /   1417.036 (MB)
	Size of irrep 1 of <AB|CD> integrals:    136.119 (MW) /   1088.951 (MB)
	Size of irrep 2 of <AB|CD> integrals:    158.382 (MW) /   1267.058 (MB)
	Size of irrep 3 of <AB|CD> integrals:    156.876 (MW) /   1255.005 (MB)
	Total:                                   628.506 (MW) /   5028.050 (MB)

	Size of irrep 0 of <ab|cd> integrals:    179.185 (MW) /   1433.480 (MB)
	Size of irrep 1 of <ab|cd> integrals:    137.945 (MW) /   1103.560 (MB)
	Size of irrep 2 of <ab|cd> integrals:    159.668 (MW) /   1277.348 (MB)
	Size of irrep 3 of <ab|cd> integrals:    159.668 (MW) /   1277.348 (MB)
	Total:                                   636.467 (MW) /   5091.736 (MB)

	Size of irrep 0 of <Ab|Cd> integrals:    729.648 (MW) /   5837.185 (MB)
	Size of irrep 1 of <Ab|Cd> integrals:    548.122 (MW) /   4384.974 (MB)
	Size of irrep 2 of <Ab|Cd> integrals:    636.099 (MW) /   5088.791 (MB)
	Size of irrep 3 of <Ab|Cd> integrals:    633.076 (MW) /   5064.607 (MB)
	Total:                                  2546.945 (MW) /  20375.557 (MB)

	Size of irrep 0 of <IA|BC> integrals:      8.054 (MW) /     64.429 (MB)
	Size of irrep 1 of <IA|BC> integrals:      4.200 (MW) /     33.601 (MB)
	Size of irrep 2 of <IA|BC> integrals:      5.210 (MW) /     41.682 (MB)
	Size of irrep 3 of <IA|BC> integrals:      6.638 (MW) /     53.106 (MB)
	Total:                                    24.102 (MW) /    192.817 (MB)

	Size of irrep 0 of <ia|bc> integrals:      6.014 (MW) /     48.112 (MB)
	Size of irrep 1 of <ia|bc> integrals:      2.396 (MW) /     19.168 (MB)
	Size of irrep 2 of <ia|bc> integrals:      3.942 (MW) /     31.539 (MB)
	Size of irrep 3 of <ia|bc> integrals:      3.942 (MW) /     31.539 (MB)
	Total:                                    16.295 (MW) /    130.359 (MB)

	Size of irrep 0 of <Ia|Bc> integrals:      8.104 (MW) /     64.829 (MB)
	Size of irrep 1 of <Ia|Bc> integrals:      4.214 (MW) /     33.713 (MB)
	Size of irrep 2 of <Ia|Bc> integrals:      5.221 (MW) /     41.766 (MB)
	Size of irrep 3 of <Ia|Bc> integrals:      6.718 (MW) /     53.744 (MB)
	Total:                                    24.256 (MW) /    194.052 (MB)

	Size of irrep 0 of <iA|bC> integrals:      5.997 (MW) /     47.973 (MB)
	Size of irrep 1 of <iA|bC> integrals:      2.388 (MW) /     19.104 (MB)
	Size of irrep 2 of <iA|bC> integrals:      3.934 (MW) /     31.476 (MB)
	Size of irrep 3 of <iA|bC> integrals:      3.875 (MW) /     30.998 (MB)
	Total:                                    16.194 (MW) /    129.552 (MB)

	Size of irrep 0 of tIjAb amplitudes:       0.108 (MW) /      0.864 (MB)
	Size of irrep 1 of tIjAb amplitudes:       0.000 (MW) /      0.000 (MB)
	Size of irrep 2 of tIjAb amplitudes:       0.000 (MW) /      0.000 (MB)
	Size of irrep 3 of tIjAb amplitudes:       0.050 (MW) /      0.403 (MB)
	Total:                                     0.158 (MW) /      1.267 (MB)

	Nuclear Rep. energy          =      5.59473285998943
	SCF energy                   =   -340.94778784965428
	One-electron energy          =    -12.43831850159472
	Two-electron (AA) energy     =      1.03257680524156
	Two-electron (BB) energy     =      0.31923700167496
	Two-electron (AB) energy     =      2.63696224794278
	Two-electron energy          =      3.98877605485929
	Reference energy             =   -340.94778784965348

*** tstop() called on n412-050.vsc4.prov at Sat Oct 31 07:14:03 2020
Module time:
	user time   =    3140.45 seconds =      52.34 minutes
	system time =     205.06 seconds =       3.42 minutes
	total time  =        747 seconds =      12.45 minutes
Total time:
	user time   =    3814.71 seconds =      63.58 minutes
	system time =     256.30 seconds =       4.27 minutes
	total time  =       1374 seconds =      22.90 minutes

*** tstart() called on n412-050.vsc4.prov
*** at Sat Oct 31 07:14:03 2020

            **************************
            *                        *
            *        CCENERGY        *
            *                        *
            **************************

    Nuclear Rep. energy (wfn)     =    5.594732859989428
    SCF energy          (wfn)     = -340.947787849654276
    Reference energy    (file100) = -340.947787849653480

    Input parameters:
    -----------------
    Wave function   =     CCSD
    Reference wfn   =     UHF
    Brueckner       =     No
    Memory (Mbytes) =     250000.0
    Maxiter         =     50
    R_Convergence   =     1.0e-07
    E_Convergence   =     1.0e-06
    Restart         =     Yes
    DIIS            =     Yes
    AO Basis        =     NONE
    ABCD            =     NEW
    Cache Level     =     2
    Cache Type      =     LRU
    Print Level     =     1
    Num. of threads =     48
    # Amps to Print =     10
    Print MP2 Amps? =     No
    Analyze T2 Amps =     No
    Print Pair Ener =     No
    Local CC        =     No
    SCS-MP2         =     False
    SCSN-MP2        =     False
    SCS-CCSD        =     False

MP2 correlation energy -0.1001653965006291
                Solving CC Amplitude Equations
                ------------------------------
  Iter             Energy              RMS        T1Diag      D1Diag    New D1Diag    D2Diag
  ----     ---------------------    ---------   ----------  ----------  ----------   --------
     0        -0.100165396500630    0.000e+00    0.000000    0.000000    0.000000    0.000000
     1        -0.113597968593595    5.586e-02    0.011506    0.000000    0.000000    0.000000
     2        -0.122120076044572    2.561e-02    0.020215    0.000000    0.000000    0.000000
     3        -0.122276267633110    6.780e-03    0.022709    0.000000    0.000000    0.000000
     4        -0.122427836916445    2.307e-03    0.023230    0.000000    0.000000    0.000000
     5        -0.122451921300871    8.609e-04    0.023267    0.000000    0.000000    0.000000
     6        -0.122437278728581    2.791e-04    0.023238    0.000000    0.000000    0.000000
     7        -0.122441008570275    9.926e-05    0.023225    0.000000    0.000000    0.000000
     8        -0.122442494822980    2.777e-05    0.023225    0.000000    0.000000    0.000000
     9        -0.122441669747517    9.454e-06    0.023224    0.000000    0.000000    0.000000
    10        -0.122441720172752    3.181e-06    0.023223    0.000000    0.000000    0.000000
    11        -0.122441742632651    1.216e-06    0.023223    0.000000    0.000000    0.000000
    12        -0.122441790622261    4.054e-07    0.023223    0.000000    0.000000    0.000000
    13        -0.122441792434158    1.457e-07    0.023223    0.000000    0.000000    0.000000
    14        -0.122441790163866    5.817e-08    0.023223    0.000000    0.000000    0.000000
    14        -0.122441790163866    5.817e-08    0.023223    0.000000    0.000000    0.000000

    Iterations converged.


    CCSD corr. energy   =   -0.122441790163866
    PPL corr. energy    =    0.043898762570226
    OS PPL corr. energy =    0.040876977841446
    SS PPL corr. energy =    0.003021784728778
    Largest TIA Amplitudes:
              0   9         0.0145655245
              1   9         0.0140449245
              1   1         0.0125837969
              1   3        -0.0102262708
              1   7        -0.0089807029
              0   3        -0.0087461841
              0   4        -0.0076180695
              1   2         0.0070804615
              2 241        -0.0070040616
              1  18         0.0061119016

    Largest Tia Amplitudes:
              0   1        -0.0196320248
              1   1        -0.0130697880
              0   0         0.0114990089
              1   5         0.0089018895
              0   5         0.0081587857
              0   7         0.0077639999
              0   2        -0.0073321981
              1   0         0.0064884274
              1  12        -0.0061560446
              0  12        -0.0059579320

    Largest TIJAB Amplitudes:
      2   1 244   1         0.0279806339
      2   1 241   1        -0.0253508013
      2   0 162 112         0.0181267537
      2   1 250   1        -0.0150598289
      1   0 167 162         0.0141657425
      2   0 162 111         0.0137989372
      2   1 244   7        -0.0132659656
      2   1 244   0        -0.0128274236
      2   1 241   0         0.0117711732
      2   1 167 112        -0.0112983347

    Largest Tijab Amplitudes:
      1   0 245 240         0.0146164045
      1   0 167 162         0.0129899617
      1   0 164 162        -0.0102738033
      1   0 242 240        -0.0102524537
      1   0 173 162        -0.0068322224
      1   0 251 240        -0.0064459175
      1   0 250 240         0.0055214172
      1   0 252 240        -0.0049562778
      1   0  12   1        -0.0048296302
      1   0 247 240         0.0045120903

    Largest TIjAb Amplitudes:
      1   1 162 162        -0.1153187215
      0   0 162 162        -0.0881179929
      0   1 162 162        -0.0641003735
      1   1   1   1        -0.0561358465
      1   0 162 162        -0.0478996497
      2   0 112 162        -0.0467157500
      2   0   9 240         0.0411236252
      2   1 112 162        -0.0366321836
      0   1 162 167         0.0366050005
      1   0 167 162         0.0361043147

    SCF energy       (wfn)                    = -340.947787849654276
    Reference energy (file100)                = -340.947787849653480

    Opposite-spin MP2 correlation energy      =   -0.088255344296179
    Same-spin MP2 correlation energy          =   -0.011910052204439
    MP2 correlation energy                    =   -0.100165396500629
      * MP2 total energy                      = -341.047953246154123

    Opposite-spin CCSD correlation energy     =   -0.109461738809680
    Same-spin CCSD correlation energy         =   -0.012980052819459
    CCSD correlation energy                   =   -0.122441790163866
      * CCSD total energy                     = -341.070229639817342


*** tstop() called on n412-050.vsc4.prov at Sat Oct 31 07:27:44 2020
Module time:
	user time   =    3473.33 seconds =      57.89 minutes
	system time =     366.06 seconds =       6.10 minutes
	total time  =        821 seconds =      13.68 minutes
Total time:
	user time   =    7288.09 seconds =     121.47 minutes
	system time =     622.36 seconds =      10.37 minutes
	total time  =       2195 seconds =      36.58 minutes

*** Psi4 exiting successfully. Buy a developer a beer!
