
    -----------------------------------------------------------------------
          Psi4: An Open-Source Ab Initio Electronic Structure Package
                               Psi4 1.2a1.dev938 

                         Git: Rev {HEAD} fc51d9a dirty


    R. M. Parrish, L. A. Burns, D. G. A. Smith, A. C. Simmonett,
    A. E. DePrince III, E. G. Hohenstein, U. Bozkaya, A. Yu. Sokolov,
    R. Di Remigio, R. M. Richard, J. F. Gonthier, A. M. James,
    H. R. McAlexander, A. Kumar, M. Saitow, X. Wang, B. P. Pritchard,
    P. Verma, H. F. Schaefer III, K. Patkowski, R. A. King, E. F. Valeev,
    F. A. Evangelista, J. M. Turney, T. D. Crawford, and C. D. Sherrill,
    J. Chem. Theory Comput. 13(7) pp 3185--3197 (2017).
    (doi: 10.1021/acs.jctc.7b00174)

    -----------------------------------------------------------------------


    Psi4 started on: Thursday, 20 August 2020 08:04PM

    Process ID: 423651
    PSIDATADIR: /home/irmler/Programs/psi4/beforeGrueneis3/stage/usr/local/psi4/share/psi4
    Memory:     500.0 MiB
    Threads:    4
    
  ==> Input File <==

--------------------------------------------------------------------------
# Any line starting with the # character is a comment line
memory 250000 mb
molecule molecule{
1 2
P          0.0000000000        0.0000000000        0.0447142727
H          0.0000000000        0.0000000000       -1.3740591214
}

set {
  reference uhf
  basis aug-cc-pv(t+d)z
  scf_type OUT_OF_CORE
  freeze_core true
}

energy('ccsd')
--------------------------------------------------------------------------

  Memory set to 232.831 GiB by Python driver.

*** tstart() called on cqc05
*** at Thu Aug 20 20:04:24 2020

   => Loading Basis Set <=

    Name: AUG-CC-PV(T+D)Z
    Role: ORBITAL
    Keyword: BASIS
    atoms 1 entry P          line   844 file /home/irmler/Programs/psi4/beforeGrueneis3/stage/usr/local/psi4/share/psi4/basis/aug-cc-pv_tpd_z.gbs 
    atoms 2 entry H          line    56 file /home/irmler/Programs/psi4/beforeGrueneis3/stage/usr/local/psi4/share/psi4/basis/aug-cc-pv_tpd_z.gbs 


         ---------------------------------------------------------
                                   SCF
            by Justin Turney, Rob Parrish, Andy Simmonett
                             and Daniel Smith
                              UHF Reference
                        4 Threads, 238418 MiB Core
         ---------------------------------------------------------

  ==> Geometry <==

    Molecular point group: c2v
    Full point group: C_inf_v

    Geometry (in Angstrom), charge = 1, multiplicity = 2:

       Center              X                  Y                   Z               Mass       
    ------------   -----------------  -----------------  -----------------  -----------------
           P          0.000000000000     0.000000000000     0.044709330921    30.973761629000
           H          0.000000000000     0.000000000000    -1.374064063179     1.007825032070

  Running in c2v symmetry.

  Rotational constants: A = ************  B =      8.58008  C =      8.58008 [cm^-1]
  Rotational constants: A = ************  B = 257224.32602  C = 257224.32602 [MHz]
  Nuclear repulsion =    5.594732859989428

  Charge       = 1
  Multiplicity = 2
  Electrons    = 15
  Nalpha       = 8
  Nbeta        = 7

  ==> Algorithm <==

  SCF Algorithm Type is OUT_OF_CORE.
  DIIS enabled.
  MOM disabled.
  Fractional occupation disabled.
  Guess Type is GWH.
  Energy threshold   = 1.00e-08
  Density threshold  = 1.00e-08
  Integral threshold = 0.00e+00

  ==> Primary Basis <==

  Basis Set: AUG-CC-PV(T+D)Z
    Blend: AUG-CC-PV(T+D)Z
    Number of shells: 26
    Number of basis function: 78
    Number of Cartesian functions: 90
    Spherical Harmonics?: true
    Max angular momentum: 3

  ==> Pre-Iterations <==

   -------------------------------------------------------
    Irrep   Nso     Nmo     Nalpha   Nbeta   Ndocc  Nsocc
   -------------------------------------------------------
     A1        34      34       0       0       0       0
     A2         8       8       0       0       0       0
     B1        18      18       0       0       0       0
     B2        18      18       0       0       0       0
   -------------------------------------------------------
    Total      78      78       8       7       7       1
   -------------------------------------------------------

  ==> Integral Setup <==

  ==> DiskJK: Disk-Based J/K Matrices <==

    J tasked:                  Yes
    K tasked:                  Yes
    wK tasked:                  No
    Memory (MB):            178813
    Schwarz Cutoff:          1E-12

  Minimum eigenvalue in the overlap matrix is 2.6024421135E-04.
  Using Symmetric Orthogonalization.

  SCF Guess: Generalized Wolfsberg-Helmholtz.

  ==> Iterations <==

                        Total Energy        Delta E     RMS |[F,P]|

   @UHF iter   1:  -339.40256576033983   -3.39403e+02   9.18405e-02 
   @UHF iter   2:  -340.92642419804127   -1.52386e+00   7.29813e-03 DIIS
   @UHF iter   3:  -340.94299680162737   -1.65726e-02   1.40004e-03 DIIS
   @UHF iter   4:  -340.94406890709041   -1.07211e-03   4.52449e-04 DIIS
   @UHF iter   5:  -340.94428107293231   -2.12166e-04   1.53565e-04 DIIS
   @UHF iter   6:  -340.94431823280644   -3.71599e-05   4.83620e-05 DIIS
   @UHF iter   7:  -340.94432361333293   -5.38053e-06   2.11276e-05 DIIS
   @UHF iter   8:  -340.94432464790600   -1.03457e-06   1.10207e-05 DIIS
   @UHF iter   9:  -340.94432500287905   -3.54973e-07   2.79041e-06 DIIS
   @UHF iter  10:  -340.94432502143007   -1.85510e-08   6.73400e-07 DIIS
   @UHF iter  11:  -340.94432502213550   -7.05427e-10   1.36748e-07 DIIS
   @UHF iter  12:  -340.94432502215659   -2.10889e-11   2.73449e-08 DIIS
   @UHF iter  13:  -340.94432502215761   -1.02318e-12   7.80859e-09 DIIS

  ==> Post-Iterations <==

   @Spin Contamination Metric:   1.770103926E-02
   @S^2 Expected:                7.500000000E-01
   @S^2 Observed:                7.677010393E-01
   @S   Expected:                5.000000000E-01
   @S   Observed:                5.000000000E-01

    Orbital Energies (a.u.)
    -----------------------

    Alpha Occupied:                                                       

       1A1   -80.363517     2A1    -7.897822     1B1    -5.800916  
       1B2    -5.785690     3A1    -5.783102     4A1    -1.141958  
       5A1    -0.785509     2B1    -0.708400  

    Alpha Virtual:                                                        

       2B2    -0.326920     6A1    -0.124823     7A1    -0.091757  
       3B1    -0.069589     8A1    -0.067847     3B2    -0.066316  
       4B1    -0.024691     9A1    -0.018312     1A2    -0.017607  
       4B2    -0.017478    10A1    -0.012440    11A1     0.111461  
      12A1     0.129065     5B2     0.145123     5B1     0.147207  
       6B1     0.250341     6B2     0.263723    13A1     0.270943  
       7B1     0.278386     2A2     0.282036    14A1     0.283103  
       7B2     0.291806    15A1     0.311736     8B1     0.388763  
       8B2     0.388816     3A2     0.392997    16A1     0.393120  
      17A1     0.465105     9B2     0.519324     9B1     0.525424  
      18A1     0.618384    19A1     0.699174     4A2     0.792406  
      20A1     0.792647    10B2     0.806819    10B1     0.811432  
      21A1     1.020273    11B2     1.222837    11B1     1.229934  
      22A1     1.250565     5A2     1.250781    12B2     1.270763  
      12B1     1.278827    23A1     1.294000    13B2     1.529921  
      13B1     1.529925    24A1     1.541915     6A2     1.543915  
      25A1     1.562035    14B2     1.727572    14B1     1.734034  
      26A1     1.889720    15B1     2.114171    15B2     2.116107  
      27A1     2.409381    28A1     2.918980     7A2     3.666260  
      29A1     3.666274    16B2     3.887070    16B1     3.893610  
      30A1     3.988130    17B2     4.126613    17B1     4.132118  
      31A1     4.210714    32A1     4.981614     8A2     5.821128  
      33A1     5.821242    18B2     5.909729    18B1     5.925246  
      34A1     7.047030  

    Beta Occupied:                                                        

       1A1   -80.355311     2A1    -7.888411     1B2    -5.781557  
       3A1    -5.779000     1B1    -5.761473     4A1    -1.059972  
       5A1    -0.764819  

    Beta Virtual:                                                         

       2B2    -0.310489     2B1    -0.253099     6A1    -0.118837  
       7A1    -0.081144     8A1    -0.066180     3B2    -0.064931  
       3B1    -0.054332     4B2    -0.016614     9A1    -0.011140  
       4B1     0.000763     1A2     0.005921    10A1     0.008571  
      11A1     0.116103    12A1     0.133823     5B2     0.145716  
       5B1     0.153466     6B2     0.269346    13A1     0.274170  
       7B2     0.293766     6B1     0.301643    14A1     0.314462  
       7B1     0.325942     2A2     0.332850    15A1     0.339459  
      16A1     0.401609     3A2     0.401978     8B2     0.402402  
       8B1     0.402500    17A1     0.473515     9B2     0.519828  
       9B1     0.537257    18A1     0.629074    19A1     0.705104  
       4A2     0.796188    20A1     0.797170    10B2     0.806872  
      10B1     0.815884    21A1     1.029147    11B2     1.224485  
      11B1     1.246984    12B2     1.272862    22A1     1.276437  
       5A2     1.279032    23A1     1.302795    12B1     1.305903  
      24A1     1.548282    13B2     1.567268    13B1     1.567439  
       6A2     1.568629    25A1     1.588463    14B2     1.731537  
      14B1     1.771219    26A1     1.895792    15B2     2.120882  
      15B1     2.160559    27A1     2.413231    28A1     2.920715  
       7A2     3.667214    29A1     3.667268    16B2     3.886531  
      16B1     3.897692    30A1     3.998654    17B2     4.124877  
      17B1     4.132512    31A1     4.211343    32A1     4.984924  
       8A2     5.830652    33A1     5.830993    18B2     5.911095  
      18B1     5.935333    34A1     7.052011  

    Final Occupation by Irrep:
             A1    A2    B1    B2 
    DOCC [     5,    0,    1,    1 ]
    SOCC [     0,    0,    1,    0 ]

  Energy converged.

  @UHF Final Energy:  -340.94432502215761

   => Energetics <=

    Nuclear Repulsion Energy =              5.5947328599894277
    One-Electron Energy =                -477.4206593278381661
    Two-Electron Energy =                 130.8816014456911319
    Total Energy =                       -340.9443250221576136


  UHF NO Occupations:
  HONO-2 :    4 A1 1.9996665
  HONO-1 :    5 A1 1.9914514
  HONO-0 :    2 B1 1.0000000
  LUNO+0 :    6 A1 0.0085486
  LUNO+1 :    7 A1 0.0003335
  LUNO+2 :    3 B1 0.0000043
  LUNO+3 :    2 B2 0.0000003



Properties will be evaluated at   0.000000,   0.000000,   0.000000 Bohr

Properties computed using the SCF density matrix

  Nuclear Dipole Moment: (a.u.)
     X:     0.0000      Y:     0.0000      Z:    -1.3293

  Electronic Dipole Moment: (a.u.)
     X:     0.0000      Y:     0.0000      Z:     0.9627

  Dipole Moment: (a.u.)
     X:     0.0000      Y:     0.0000      Z:    -0.3665     Total:     0.3665

  Dipole Moment: (Debye)
     X:     0.0000      Y:     0.0000      Z:    -0.9316     Total:     0.9316


*** tstop() called on cqc05 at Thu Aug 20 20:04:25 2020
Module time:
	user time   =       1.42 seconds =       0.02 minutes
	system time =       0.10 seconds =       0.00 minutes
	total time  =          1 seconds =       0.02 minutes
Total time:
	user time   =       1.42 seconds =       0.02 minutes
	system time =       0.10 seconds =       0.00 minutes
	total time  =          1 seconds =       0.02 minutes

*** tstart() called on cqc05
*** at Thu Aug 20 20:04:25 2020


	Wfn Parameters:
	--------------------
	Wavefunction         = CCSD
	Number of irreps     = 4
	Number of MOs        = 78
	Number of active MOs = 73
	AO-Basis             = NONE
	Semicanonical        = false
	Reference            = UHF
	Print Level          = 1

	IRREP	# MOs	# FZDC	# DOCC	# SOCC	# VIRT	# FZVR
	-----	-----	------	------	------	------	------
	 A1	   34	    3	    2	    0	    29	    0
	 A2	   8	    0	    0	    0	    8	    0
	 B1	   18	    1	    0	    1	    16	    0
	 B2	   18	    1	    0	    0	    17	    0
	Transforming integrals...
	IWL integrals will be deleted.
	(OO|OO)...
	Presorting SO-basis two-electron integrals.
	Sorting File: SO Ints (nn|nn) nbuckets = 1
	Transforming the one-electron integrals and constructing Fock matrices
	Starting AA/AB first half-transformation.
	Sorting AA/AB half-transformed integrals.
	Starting BB first half-transformation.
	Sorting BB half-transformed integrals.
	First half integral transformation complete.
	Starting AA second half-transformation.
	Starting AB second half-transformation.
	Starting BB second half-transformation.
	Two-electron integral transformation complete.
	(OO|OV)...
	Starting AA second half-transformation.
	Starting AB second half-transformation.
	Starting BB second half-transformation.
	Two-electron integral transformation complete.
	(OO|VV)...
	Starting AA second half-transformation.
	Starting AB second half-transformation.
	Starting BB second half-transformation.
	Two-electron integral transformation complete.
	(OV|OO)...
	Starting AA/AB first half-transformation.
	Sorting AA/AB half-transformed integrals.
	Starting BB first half-transformation.
	Sorting BB half-transformed integrals.
	First half integral transformation complete.
	Starting AA second half-transformation.
	Starting AB second half-transformation.
	Starting BB second half-transformation.
	Two-electron integral transformation complete.
	(OV|OV)...
	Starting AA second half-transformation.
	Starting AB second half-transformation.
	Starting BB second half-transformation.
	Two-electron integral transformation complete.
	(OV|VV)...
	Starting AA second half-transformation.
	Starting AB second half-transformation.
	Starting BB second half-transformation.
	Two-electron integral transformation complete.
	(VV|OO)...
	Starting AA/AB first half-transformation.
	Sorting AA/AB half-transformed integrals.
	Starting BB first half-transformation.
	Sorting BB half-transformed integrals.
	First half integral transformation complete.
	Starting AA second half-transformation.
	Starting AB second half-transformation.
	Starting BB second half-transformation.
	Two-electron integral transformation complete.
	(VV|OV)...
	Starting AA second half-transformation.
	Starting AB second half-transformation.
	Starting BB second half-transformation.
	Two-electron integral transformation complete.
	(VV|VV)...
	Starting AA second half-transformation.
	Starting AB second half-transformation.
	Starting BB second half-transformation.
	Two-electron integral transformation complete.
	Frozen core energy     =   -338.09086152876910

	Size of irrep 0 of <AB|CD> integrals:      0.476 (MW) /      3.809 (MB)
	Size of irrep 1 of <AB|CD> integrals:      0.254 (MW) /      2.032 (MB)
	Size of irrep 2 of <AB|CD> integrals:      0.360 (MW) /      2.880 (MB)
	Size of irrep 3 of <AB|CD> integrals:      0.386 (MW) /      3.085 (MB)
	Total:                                     1.476 (MW) /     11.806 (MB)

	Size of irrep 0 of <ab|cd> integrals:      0.498 (MW) /      3.987 (MB)
	Size of irrep 1 of <ab|cd> integrals:      0.271 (MW) /      2.172 (MB)
	Size of irrep 2 of <ab|cd> integrals:      0.396 (MW) /      3.165 (MB)
	Size of irrep 3 of <ab|cd> integrals:      0.396 (MW) /      3.165 (MB)
	Total:                                     1.561 (MW) /     12.489 (MB)

	Size of irrep 0 of <Ab|Cd> integrals:      2.149 (MW) /     17.193 (MB)
	Size of irrep 1 of <Ab|Cd> integrals:      1.051 (MW) /      8.405 (MB)
	Size of irrep 2 of <Ab|Cd> integrals:      1.510 (MW) /     12.084 (MB)
	Size of irrep 3 of <Ab|Cd> integrals:      1.562 (MW) /     12.500 (MB)
	Total:                                     6.273 (MW) /     50.182 (MB)

	Size of irrep 0 of <IA|BC> integrals:      0.107 (MW) /      0.858 (MB)
	Size of irrep 1 of <IA|BC> integrals:      0.033 (MW) /      0.266 (MB)
	Size of irrep 2 of <IA|BC> integrals:      0.073 (MW) /      0.586 (MB)
	Size of irrep 3 of <IA|BC> integrals:      0.052 (MW) /      0.417 (MB)
	Total:                                     0.266 (MW) /      2.127 (MB)

	Size of irrep 0 of <ia|bc> integrals:      0.086 (MW) /      0.688 (MB)
	Size of irrep 1 of <ia|bc> integrals:      0.017 (MW) /      0.133 (MB)
	Size of irrep 2 of <ia|bc> integrals:      0.043 (MW) /      0.342 (MB)
	Size of irrep 3 of <ia|bc> integrals:      0.043 (MW) /      0.342 (MB)
	Total:                                     0.188 (MW) /      1.506 (MB)

	Size of irrep 0 of <Ia|Bc> integrals:      0.110 (MW) /      0.880 (MB)
	Size of irrep 1 of <Ia|Bc> integrals:      0.034 (MW) /      0.271 (MB)
	Size of irrep 2 of <Ia|Bc> integrals:      0.077 (MW) /      0.619 (MB)
	Size of irrep 3 of <Ia|Bc> integrals:      0.052 (MW) /      0.420 (MB)
	Total:                                     0.274 (MW) /      2.190 (MB)

	Size of irrep 0 of <iA|bC> integrals:      0.085 (MW) /      0.680 (MB)
	Size of irrep 1 of <iA|bC> integrals:      0.016 (MW) /      0.131 (MB)
	Size of irrep 2 of <iA|bC> integrals:      0.039 (MW) /      0.315 (MB)
	Size of irrep 3 of <iA|bC> integrals:      0.043 (MW) /      0.340 (MB)
	Total:                                     0.183 (MW) /      1.466 (MB)

	Size of irrep 0 of tIjAb amplitudes:       0.006 (MW) /      0.047 (MB)
	Size of irrep 1 of tIjAb amplitudes:       0.000 (MW) /      0.000 (MB)
	Size of irrep 2 of tIjAb amplitudes:       0.002 (MW) /      0.020 (MB)
	Size of irrep 3 of tIjAb amplitudes:       0.000 (MW) /      0.000 (MB)
	Total:                                     0.008 (MW) /      0.067 (MB)

	Nuclear Rep. energy          =      5.59473285998943
	SCF energy                   =   -340.94432502215761
	One-electron energy          =    -12.43573551255867
	Two-electron (AA) energy     =      1.03230958880735
	Two-electron (BB) energy     =      0.31922792850500
	Two-electron (AB) energy     =      2.63600164186866
	Two-electron energy          =      3.98753915918101
	Reference energy             =   -340.94432502215733

*** tstop() called on cqc05 at Thu Aug 20 20:04:26 2020
Module time:
	user time   =       0.67 seconds =       0.01 minutes
	system time =       0.33 seconds =       0.01 minutes
	total time  =          1 seconds =       0.02 minutes
Total time:
	user time   =       2.09 seconds =       0.03 minutes
	system time =       0.43 seconds =       0.01 minutes
	total time  =          2 seconds =       0.03 minutes

*** tstart() called on cqc05
*** at Thu Aug 20 20:04:26 2020

            **************************
            *                        *
            *        CCENERGY        *
            *                        *
            **************************

    Nuclear Rep. energy (wfn)     =    5.594732859989428
    SCF energy          (wfn)     = -340.944325022157614
    Reference energy    (file100) = -340.944325022157329

    Input parameters:
    -----------------
    Wave function   =     CCSD
    Reference wfn   =     UHF
    Brueckner       =     No
    Memory (Mbytes) =     250000.0
    Maxiter         =     50
    R_Convergence   =     1.0e-07
    E_Convergence   =     1.0e-06
    Restart         =     Yes
    DIIS            =     Yes
    AO Basis        =     NONE
    ABCD            =     NEW
    Cache Level     =     2
    Cache Type      =     LRU
    Print Level     =     1
    Num. of threads =     4
    # Amps to Print =     10
    Print MP2 Amps? =     No
    Analyze T2 Amps =     No
    Print Pair Ener =     No
    Local CC        =     No
    SCS-MP2         =     False
    SCSN-MP2        =     False
    SCS-CCSD        =     False

MP2 correlation energy -0.0902723563942894
                Solving CC Amplitude Equations
                ------------------------------
  Iter             Energy              RMS        T1Diag      D1Diag    New D1Diag    D2Diag
  ----     ---------------------    ---------   ----------  ----------  ----------   --------
     0        -0.090272356394291    0.000e+00    0.000000    0.000000    0.000000    0.000000
     1        -0.107364619096340    5.796e-02    0.010639    0.000000    0.000000    0.000000
     2        -0.115744637632446    2.596e-02    0.019632    0.000000    0.000000    0.000000
     3        -0.116237760866599    7.020e-03    0.022395    0.000000    0.000000    0.000000
     4        -0.116318990967113    1.950e-03    0.022773    0.000000    0.000000    0.000000
     5        -0.116315064748609    7.956e-04    0.022799    0.000000    0.000000    0.000000
     6        -0.116309858160626    2.562e-04    0.022760    0.000000    0.000000    0.000000
     7        -0.116314765068734    7.125e-05    0.022757    0.000000    0.000000    0.000000
     8        -0.116314140205699    2.300e-05    0.022755    0.000000    0.000000    0.000000
     9        -0.116313776019002    7.442e-06    0.022754    0.000000    0.000000    0.000000
    10        -0.116313748554444    2.607e-06    0.022754    0.000000    0.000000    0.000000
    11        -0.116313795820948    7.918e-07    0.022754    0.000000    0.000000    0.000000
    12        -0.116313797601323    3.093e-07    0.022754    0.000000    0.000000    0.000000
    13        -0.116313787123822    1.168e-07    0.022754    0.000000    0.000000    0.000000
    14        -0.116313787832635    3.238e-08    0.022754    0.000000    0.000000    0.000000
    14        -0.116313787832635    3.238e-08    0.022754    0.000000    0.000000    0.000000

    Iterations converged.


    CCSD corr. energy   =   -0.116313787832635
    PPL corr. energy    =    0.038730354691003
    OS PPL corr. energy =    0.035923393782510
    SS PPL corr. energy =    0.002806960908494
    Largest TIA Amplitudes:
              0   8         0.0142424342
              1   8         0.0136925273
              1   3        -0.0121387311
              1   1        -0.0120263464
              0   3        -0.0105702663
              0   4         0.0098834790
              1   2        -0.0085327534
              1   4         0.0082940309
              2  38        -0.0079315870
              1   7        -0.0059151197

    Largest Tia Amplitudes:
              0   1         0.0193670799
              1   1         0.0140518443
              0   0         0.0113647651
              0   2         0.0096818391
              0   6        -0.0088550159
              0   5        -0.0080599901
              1   5        -0.0078541825
              1   0         0.0075236195
              0   3         0.0053552029
              0  11        -0.0047782734

    Largest TIJAB Amplitudes:
      2   1  38   1         0.0319662664
      2   1  41   1         0.0281693602
      2   0  53  30        -0.0178662851
      2   0  53  29        -0.0174919331
      2   1  38   0         0.0151694802
      1   0  58  53         0.0145365648
      1   0  55  53         0.0144643417
      2   1  41   0         0.0131698219
      2   1  41   9        -0.0130024721
      2   1  38   5        -0.0124078930

    Largest Tijab Amplitudes:
      1   0  42  37         0.0153219747
      1   0  39  37         0.0140550845
      1   0  56  54         0.0133331989
      1   0  59  54         0.0132742964
      1   0  42  41        -0.0058203293
      1   0  11   1         0.0050217542
      1   0  42  38         0.0049608997
      1   0   5   0         0.0047328580
      1   0  12   7        -0.0046319952
      1   0   6   5         0.0045979825

    Largest TIjAb Amplitudes:
      1   1  53  54        -0.1168610240
      0   0  53  54        -0.0889977156
      0   1  53  54        -0.0647089710
      1   1   1   1        -0.0564858008
      2   0  30  54         0.0489375614
      1   0  53  54        -0.0484491521
      2   0   8  37        -0.0444627115
      2   0  29  54         0.0433060564
      0   1  53  59         0.0405205799
      1   0  58  54         0.0398612865

    SCF energy       (wfn)                    = -340.944325022157614
    Reference energy (file100)                = -340.944325022157329

    Opposite-spin MP2 correlation energy      =   -0.078926434136531
    Same-spin MP2 correlation energy          =   -0.011345922257729
    MP2 correlation energy                    =   -0.090272356394289
      * MP2 total energy                      = -341.034597378551609

    Opposite-spin CCSD correlation energy     =   -0.103793761581365
    Same-spin CCSD correlation energy         =   -0.012520022448571
    CCSD correlation energy                   =   -0.116313787832635
      * CCSD total energy                     = -341.060638809989939


*** tstop() called on cqc05 at Thu Aug 20 20:04:28 2020
Module time:
	user time   =       0.56 seconds =       0.01 minutes
	system time =       0.43 seconds =       0.01 minutes
	total time  =          2 seconds =       0.03 minutes
Total time:
	user time   =       2.65 seconds =       0.04 minutes
	system time =       0.86 seconds =       0.01 minutes
	total time  =          4 seconds =       0.07 minutes

*** Psi4 exiting successfully. Buy a developer a beer!
