
    -----------------------------------------------------------------------
          Psi4: An Open-Source Ab Initio Electronic Structure Package
                               Psi4 1.2a1.dev938 

                         Git: Rev {HEAD} fc51d9a dirty


    R. M. Parrish, L. A. Burns, D. G. A. Smith, A. C. Simmonett,
    A. E. DePrince III, E. G. Hohenstein, U. Bozkaya, A. Yu. Sokolov,
    R. Di Remigio, R. M. Richard, J. F. Gonthier, A. M. James,
    H. R. McAlexander, A. Kumar, M. Saitow, X. Wang, B. P. Pritchard,
    P. Verma, H. F. Schaefer III, K. Patkowski, R. A. King, E. F. Valeev,
    F. A. Evangelista, J. M. Turney, T. D. Crawford, and C. D. Sherrill,
    J. Chem. Theory Comput. 13(7) pp 3185--3197 (2017).
    (doi: 10.1021/acs.jctc.7b00174)

    -----------------------------------------------------------------------


    Psi4 started on: Friday, 21 August 2020 06:48AM

    Process ID: 428055
    PSIDATADIR: /home/irmler/Programs/psi4/beforeGrueneis3/stage/usr/local/psi4/share/psi4
    Memory:     500.0 MiB
    Threads:    4
    
  ==> Input File <==

--------------------------------------------------------------------------
# Any line starting with the # character is a comment line
memory 250000 mb
molecule molecule{
0 4
P          0.0000000000        0.0000000000        0.0000000000
}

set {
  reference uhf
  basis aug-cc-pv(5+d)z
  scf_type OUT_OF_CORE
  freeze_core true
}

energy('ccsd')
--------------------------------------------------------------------------

  Memory set to 232.831 GiB by Python driver.

*** tstart() called on cqc05
*** at Fri Aug 21 06:48:13 2020

   => Loading Basis Set <=

    Name: AUG-CC-PV(5+D)Z
    Role: ORBITAL
    Keyword: BASIS
    atoms 1 entry P          line   850 file /home/irmler/Programs/psi4/beforeGrueneis3/stage/usr/local/psi4/share/psi4/basis/aug-cc-pv_5pd_z.gbs 


         ---------------------------------------------------------
                                   SCF
            by Justin Turney, Rob Parrish, Andy Simmonett
                             and Daniel Smith
                              UHF Reference
                        4 Threads, 238418 MiB Core
         ---------------------------------------------------------

  ==> Geometry <==

    Molecular point group: d2h
    Geometry (in Angstrom), charge = 0, multiplicity = 4:

       Center              X                  Y                   Z               Mass       
    ------------   -----------------  -----------------  -----------------  -----------------
           P          0.000000000000     0.000000000000     0.000000000000    30.973761629000

  Running in d2h symmetry.

  Rotational constants: A = ************  B = ************  C = ************ [cm^-1]
  Rotational constants: A = ************  B = ************  C = ************ [MHz]
  Nuclear repulsion =    0.000000000000000

  Charge       = 0
  Multiplicity = 4
  Electrons    = 15
  Nalpha       = 9
  Nbeta        = 6

  ==> Algorithm <==

  SCF Algorithm Type is OUT_OF_CORE.
  DIIS enabled.
  MOM disabled.
  Fractional occupation disabled.
  Guess Type is GWH.
  Energy threshold   = 1.00e-08
  Density threshold  = 1.00e-08
  Integral threshold = 0.00e+00

  ==> Primary Basis <==

  Basis Set: AUG-CC-PV(5+D)Z
    Blend: AUG-CC-PV(5+D)Z
    Number of shells: 30
    Number of basis function: 136
    Number of Cartesian functions: 192
    Spherical Harmonics?: true
    Max angular momentum: 5

  ==> Pre-Iterations <==

   -------------------------------------------------------
    Irrep   Nso     Nmo     Nalpha   Nbeta   Ndocc  Nsocc
   -------------------------------------------------------
     Ag        29      29       0       0       0       0
     B1g       12      12       0       0       0       0
     B2g       12      12       0       0       0       0
     B3g       12      12       0       0       0       0
     Au         8       8       0       0       0       0
     B1u       21      21       0       0       0       0
     B2u       21      21       0       0       0       0
     B3u       21      21       0       0       0       0
   -------------------------------------------------------
    Total     136     136       9       6       6       3
   -------------------------------------------------------

  ==> Integral Setup <==

  ==> DiskJK: Disk-Based J/K Matrices <==

    J tasked:                  Yes
    K tasked:                  Yes
    wK tasked:                  No
    Memory (MB):            178813
    Schwarz Cutoff:          1E-12

  Minimum eigenvalue in the overlap matrix is 1.5018042402E-04.
  Using Symmetric Orthogonalization.

  SCF Guess: Generalized Wolfsberg-Helmholtz.

  ==> Iterations <==

                        Total Energy        Delta E     RMS |[F,P]|

    Occupation by irrep:
             Ag   B1g   B2g   B3g    Au   B1u   B2u   B3u 
    DOCC [     3,    0,    0,    0,    0,    1,    1,    1 ]
    SOCC [     0,    0,    0,    0,    0,    1,    1,    1 ]

   @UHF iter   1:  -323.19365020772034   -3.23194e+02   2.44844e-01 
   @UHF iter   2:  -336.34153592211237   -1.31479e+01   8.12042e-02 DIIS
   @UHF iter   3:  -340.48976703427661   -4.14823e+00   2.28941e-02 DIIS
   @UHF iter   4:  -340.70551798353182   -2.15751e-01   2.92734e-03 DIIS
   @UHF iter   5:  -340.71852645903994   -1.30085e-02   9.16605e-04 DIIS
   @UHF iter   6:  -340.71906636547550   -5.39906e-04   1.92710e-04 DIIS
   @UHF iter   7:  -340.71915387368006   -8.75082e-05   5.41192e-05 DIIS
   @UHF iter   8:  -340.71916002760810   -6.15393e-06   2.87362e-06 DIIS
   @UHF iter   9:  -340.71916003923332   -1.16252e-08   2.25915e-07 DIIS
   @UHF iter  10:  -340.71916003940783   -1.74509e-10   2.54815e-08 DIIS
   @UHF iter  11:  -340.71916003941061   -2.78533e-12   2.84129e-09 DIIS

  ==> Post-Iterations <==

   @Spin Contamination Metric:   6.850039786E-04
   @S^2 Expected:                3.750000000E+00
   @S^2 Observed:                3.750685004E+00
   @S   Expected:                1.500000000E+00
   @S   Observed:                1.500000000E+00

    Orbital Energies (a.u.)
    -----------------------

    Alpha Occupied:                                                       

       1Ag   -79.980301     2Ag    -7.521687     1B3u   -5.421394  
       1B2u   -5.421394     1B1u   -5.421394     3Ag    -0.836226  
       2B3u   -0.392107     2B2u   -0.392107     2B1u   -0.392107  

    Alpha Virtual:                                                        

       4Ag     0.059048     3B3u    0.064043     3B2u    0.064043  
       3B1u    0.064043     5Ag     0.146905     1B3g    0.146905  
       1B2g    0.146905     6Ag     0.146905     1B1g    0.146905  
       4B3u    0.308017     4B2u    0.308017     4B1u    0.308017  
       7Ag     0.345980     5B1u    0.368535     5B2u    0.368535  
       5B3u    0.368535     6B1u    0.368535     1Au     0.368535  
       6B3u    0.368535     6B2u    0.368535     8Ag     0.381890  
       2B3g    0.381890     2B2g    0.381890     9Ag     0.381890  
       2B1g    0.381890    10Ag     0.900507     3B3g    0.900507  
       3B2g    0.900507     3B1g    0.900507    11Ag     0.900507  
       4B2g    0.900507     4B3g    0.900507    12Ag     0.900507  
       4B1g    0.900507    13Ag     0.964228     5B1g    0.964228  
       5B2g    0.964228     5B3g    0.964228    14Ag     0.964228  
       7B1u    0.976432     7B2u    0.976432     7B3u    0.976432  
       2Au     0.976432     8B1u    0.976432     8B2u    0.976432  
       8B3u    0.976432     9B3u    1.104292     9B2u    1.104292  
       9B1u    1.104292    15Ag     1.320804    10B1u    2.158145  
      10B2u    2.158145    10B3u    2.158145     3Au     2.158145  
      11B1u    2.158145    11B2u    2.158145    11B3u    2.158145  
       4Au     2.158145    12B1u    2.158145    12B2u    2.158145  
      12B3u    2.158145    13B1u    2.177509    13B2u    2.177509  
      13B3u    2.177509    14B1u    2.177509     5Au     2.177509  
      14B3u    2.177509    14B2u    2.177509    16Ag     2.312979  
       6B3g    2.312979     6B2g    2.312979     6B1g    2.312979  
      17Ag     2.312979    18Ag     2.317724     7B3g    2.317724  
       7B2g    2.317724     7B1g    2.317724    19Ag     2.317724  
       8B3g    2.317724     8B2g    2.317724     8B1g    2.317724  
      20Ag     2.317724    15B3u    3.624610    15B2u    3.624610  
      15B1u    3.624610    16B1u    4.590717    16B2u    4.590717  
      16B3u    4.590717     6Au     4.590717    17B1u    4.590717  
      17B2u    4.590717    17B3u    4.590717    21Ag     4.754208  
      22Ag     4.899217     9B3g    4.899217     9B2g    4.899217  
       9B1g    4.899217    23Ag     4.899217    18B1u    5.205443  
      18B2u    5.205443    18B3u    5.205443     7Au     5.205443  
      19B1u    5.205443    19B2u    5.205443    19B3u    5.205443  
       8Au     5.205443    20B1u    5.205443    20B2u    5.205443  
      20B3u    5.205443    24Ag     5.289623    10B3g    5.289623  
      10B2g    5.289623    10B1g    5.289623    25Ag     5.289623  
      11B3g    5.289623    11B2g    5.289623    11B1g    5.289623  
      26Ag     5.289623    27Ag    13.119893    12B3g   13.119893  
      12B2g   13.119893    12B1g   13.119893    28Ag    13.119893  
      21B3u   16.620174    21B1u   16.620174    21B2u   16.620174  
      29Ag    44.766748  

    Beta Occupied:                                                        

       1Ag   -79.958565     2Ag    -7.499924     1B1u   -5.380004  
       1B2u   -5.380004     1B3u   -5.380004     3Ag    -0.556218  

    Beta Virtual:                                                         

       2B3u    0.027714     2B2u    0.027714     2B1u    0.027714  
       4Ag     0.069218     3B3u    0.095578     3B1u    0.095578  
       3B2u    0.095578     5Ag     0.163700     1B1g    0.163700  
       1B2g    0.163700     1B3g    0.163700     6Ag     0.163700  
       4B1u    0.364364     4B3u    0.364364     4B2u    0.364364  
       5B3u    0.376627     5B2u    0.376627     5B1u    0.376627  
       1Au     0.376627     6B3u    0.376627     6B2u    0.376627  
       6B1u    0.376627     7Ag     0.381276     8Ag     0.470555  
       2B2g    0.470555     2B1g    0.470555     2B3g    0.470555  
       9Ag     0.470555    10Ag     0.913105     3B1g    0.913105  
       3B2g    0.913105     3B3g    0.913105    11Ag     0.913105  
       4B1g    0.913105     4B2g    0.913105     4B3g    0.913105  
      12Ag     0.913105     7B3u    1.016985     7B2u    1.016985  
       7B1u    1.016985     2Au     1.016985     8B3u    1.016985  
       8B2u    1.016985     8B1u    1.016985    13Ag     1.037467  
       5B3g    1.037467     5B2g    1.037467     5B1g    1.037467  
      14Ag     1.037467     9B1u    1.171087     9B2u    1.171087  
       9B3u    1.171087    15Ag     1.371342    10B1u    2.178168  
      10B3u    2.178168    10B2u    2.178168     3Au     2.178168  
      11B3u    2.178168    11B1u    2.178168    11B2u    2.178168  
       4Au     2.178168    12B3u    2.178168    12B1u    2.178168  
      12B2u    2.178168    13B1u    2.233383    13B2u    2.233383  
      13B3u    2.233383     5Au     2.233383    14B1u    2.233383  
      14B2u    2.233383    14B3u    2.233383    16Ag     2.348662  
       6B3g    2.348662     6B2g    2.348662     6B1g    2.348662  
      17Ag     2.348662    18Ag     2.355493     7B3g    2.355493  
       7B2g    2.355493     7B1g    2.355493    19Ag     2.355493  
       8B3g    2.355493     8B2g    2.355493     8B1g    2.355493  
      20Ag     2.355493    15B1u    3.672319    15B2u    3.672319  
      15B3u    3.672319    16B1u    4.624561    16B2u    4.624561  
      16B3u    4.624561     6Au     4.624561    17B1u    4.624561  
      17B2u    4.624561    17B3u    4.624561    21Ag     4.789115  
      22Ag     4.922149     9B3g    4.922149     9B2g    4.922149  
       9B1g    4.922149    23Ag     4.922149    18B1u    5.237495  
      18B2u    5.237495    18B3u    5.237495     7Au     5.237495  
      19B1u    5.237495    19B2u    5.237495    19B3u    5.237495  
       8Au     5.237495    20B1u    5.237495    20B2u    5.237495  
      20B3u    5.237495    24Ag     5.326214    10B3g    5.326214  
      10B2g    5.326214    10B1g    5.326214    25Ag     5.326214  
      11B3g    5.326214    11B2g    5.326214    11B1g    5.326214  
      26Ag     5.326214    27Ag    13.140498    12B3g   13.140498  
      12B2g   13.140498    12B1g   13.140498    28Ag    13.140498  
      21B1u   16.650481    21B3u   16.650481    21B2u   16.650481  
      29Ag    44.783543  

    Final Occupation by Irrep:
             Ag   B1g   B2g   B3g    Au   B1u   B2u   B3u 
    DOCC [     3,    0,    0,    0,    0,    1,    1,    1 ]
    SOCC [     0,    0,    0,    0,    0,    1,    1,    1 ]

  Energy converged.

  @UHF Final Energy:  -340.71916003941061

   => Energetics <=

    Nuclear Repulsion Energy =              0.0000000000000000
    One-Electron Energy =                -471.5048869123085069
    Two-Electron Energy =                 130.7857268728978681
    PCM Polarization Energy =               0.0000000000000000
    Total Energy =                       -340.7191600394106672

    Alert: EFP and PCM quantities not currently incorporated into SCF psivars.
  UHF NO Occupations:
  HONO-2 :    2B1u 1.0000000
  HONO-1 :    2B3u 1.0000000
  HONO-0 :    2B2u 1.0000000
  LUNO+0 :    4 Ag 0.0003252
  LUNO+1 :    3B3u 0.0000056
  LUNO+2 :    3B2u 0.0000056
  LUNO+3 :    3B1u 0.0000056



Properties will be evaluated at   0.000000,   0.000000,   0.000000 Bohr

Properties computed using the SCF density matrix

  Nuclear Dipole Moment: (a.u.)
     X:     0.0000      Y:     0.0000      Z:     0.0000

  Electronic Dipole Moment: (a.u.)
     X:     0.0000      Y:     0.0000      Z:     0.0000

  Dipole Moment: (a.u.)
     X:     0.0000      Y:     0.0000      Z:     0.0000     Total:     0.0000

  Dipole Moment: (Debye)
     X:     0.0000      Y:     0.0000      Z:     0.0000     Total:     0.0000


*** tstop() called on cqc05 at Fri Aug 21 06:48:21 2020
Module time:
	user time   =       8.45 seconds =       0.14 minutes
	system time =       0.20 seconds =       0.00 minutes
	total time  =          8 seconds =       0.13 minutes
Total time:
	user time   =       8.45 seconds =       0.14 minutes
	system time =       0.20 seconds =       0.00 minutes
	total time  =          8 seconds =       0.13 minutes

*** tstart() called on cqc05
*** at Fri Aug 21 06:48:21 2020


	Wfn Parameters:
	--------------------
	Wavefunction         = CCSD
	Number of irreps     = 8
	Number of MOs        = 136
	Number of active MOs = 131
	AO-Basis             = NONE
	Semicanonical        = false
	Reference            = UHF
	Print Level          = 1

	IRREP	# MOs	# FZDC	# DOCC	# SOCC	# VIRT	# FZVR
	-----	-----	------	------	------	------	------
	 Ag	   29	    2	    1	    0	    26	    0
	 B1g	   12	    0	    0	    0	    12	    0
	 B2g	   12	    0	    0	    0	    12	    0
	 B3g	   12	    0	    0	    0	    12	    0
	 Au	   8	    0	    0	    0	    8	    0
	 B1u	   21	    1	    0	    1	    19	    0
	 B2u	   21	    1	    0	    1	    19	    0
	 B3u	   21	    1	    0	    1	    19	    0
	Transforming integrals...
	IWL integrals will be deleted.
	(OO|OO)...
	Presorting SO-basis two-electron integrals.
	Sorting File: SO Ints (nn|nn) nbuckets = 1
	Transforming the one-electron integrals and constructing Fock matrices
	Starting AA/AB first half-transformation.
	Sorting AA/AB half-transformed integrals.
	Starting BB first half-transformation.
	Sorting BB half-transformed integrals.
	First half integral transformation complete.
	Starting AA second half-transformation.
	Starting AB second half-transformation.
	Starting BB second half-transformation.
	Two-electron integral transformation complete.
	(OO|OV)...
	Starting AA second half-transformation.
	Starting AB second half-transformation.
	Starting BB second half-transformation.
	Two-electron integral transformation complete.
	(OO|VV)...
	Starting AA second half-transformation.
	Starting AB second half-transformation.
	Starting BB second half-transformation.
	Two-electron integral transformation complete.
	(OV|OO)...
	Starting AA/AB first half-transformation.
	Sorting AA/AB half-transformed integrals.
	Starting BB first half-transformation.
	Sorting BB half-transformed integrals.
	First half integral transformation complete.
	Starting AA second half-transformation.
	Starting AB second half-transformation.
	Starting BB second half-transformation.
	Two-electron integral transformation complete.
	(OV|OV)...
	Starting AA second half-transformation.
	Starting AB second half-transformation.
	Starting BB second half-transformation.
	Two-electron integral transformation complete.
	(OV|VV)...
	Starting AA second half-transformation.
	Starting AB second half-transformation.
	Starting BB second half-transformation.
	Two-electron integral transformation complete.
	(VV|OO)...
	Starting AA/AB first half-transformation.
	Sorting AA/AB half-transformed integrals.
	Starting BB first half-transformation.
	Sorting BB half-transformed integrals.
	First half integral transformation complete.
	Starting AA second half-transformation.
	Starting AB second half-transformation.
	Starting BB second half-transformation.
	Two-electron integral transformation complete.
	(VV|OV)...
	Starting AA second half-transformation.
	Starting AB second half-transformation.
	Starting BB second half-transformation.
	Two-electron integral transformation complete.
	(VV|VV)...
	Starting AA second half-transformation.
	Starting AB second half-transformation.
	Starting BB second half-transformation.
	Two-electron integral transformation complete.
	Frozen core energy     =   -334.36246693280526

	Size of irrep 0 of <AB|CD> integrals:      1.132 (MW) /      9.057 (MB)
	Size of irrep 1 of <AB|CD> integrals:      0.939 (MW) /      7.512 (MB)
	Size of irrep 2 of <AB|CD> integrals:      0.939 (MW) /      7.512 (MB)
	Size of irrep 3 of <AB|CD> integrals:      0.939 (MW) /      7.512 (MB)
	Size of irrep 4 of <AB|CD> integrals:      0.796 (MW) /      6.365 (MB)
	Size of irrep 5 of <AB|CD> integrals:      1.094 (MW) /      8.753 (MB)
	Size of irrep 6 of <AB|CD> integrals:      1.094 (MW) /      8.753 (MB)
	Size of irrep 7 of <AB|CD> integrals:      1.094 (MW) /      8.753 (MB)
	Total:                                     8.027 (MW) /     64.216 (MB)

	Size of irrep 0 of <ab|cd> integrals:      1.257 (MW) /     10.053 (MB)
	Size of irrep 1 of <ab|cd> integrals:      1.032 (MW) /      8.258 (MB)
	Size of irrep 2 of <ab|cd> integrals:      1.032 (MW) /      8.258 (MB)
	Size of irrep 3 of <ab|cd> integrals:      1.032 (MW) /      8.258 (MB)
	Size of irrep 4 of <ab|cd> integrals:      0.861 (MW) /      6.889 (MB)
	Size of irrep 5 of <ab|cd> integrals:      1.201 (MW) /      9.610 (MB)
	Size of irrep 6 of <ab|cd> integrals:      1.201 (MW) /      9.610 (MB)
	Size of irrep 7 of <ab|cd> integrals:      1.201 (MW) /      9.610 (MB)
	Total:                                     8.818 (MW) /     70.546 (MB)

	Size of irrep 0 of <Ab|Cd> integrals:      5.345 (MW) /     42.763 (MB)
	Size of irrep 1 of <Ab|Cd> integrals:      3.936 (MW) /     31.490 (MB)
	Size of irrep 2 of <Ab|Cd> integrals:      3.936 (MW) /     31.490 (MB)
	Size of irrep 3 of <Ab|Cd> integrals:      3.936 (MW) /     31.490 (MB)
	Size of irrep 4 of <Ab|Cd> integrals:      3.312 (MW) /     26.499 (MB)
	Size of irrep 5 of <Ab|Cd> integrals:      4.588 (MW) /     36.705 (MB)
	Size of irrep 6 of <Ab|Cd> integrals:      4.588 (MW) /     36.705 (MB)
	Size of irrep 7 of <Ab|Cd> integrals:      4.588 (MW) /     36.705 (MB)
	Total:                                    34.231 (MW) /    273.848 (MB)

	Size of irrep 0 of <IA|BC> integrals:      0.187 (MW) /      1.497 (MB)
	Size of irrep 1 of <IA|BC> integrals:      0.112 (MW) /      0.899 (MB)
	Size of irrep 2 of <IA|BC> integrals:      0.112 (MW) /      0.899 (MB)
	Size of irrep 3 of <IA|BC> integrals:      0.112 (MW) /      0.899 (MB)
	Size of irrep 4 of <IA|BC> integrals:      0.078 (MW) /      0.628 (MB)
	Size of irrep 5 of <IA|BC> integrals:      0.144 (MW) /      1.155 (MB)
	Size of irrep 6 of <IA|BC> integrals:      0.144 (MW) /      1.155 (MB)
	Size of irrep 7 of <IA|BC> integrals:      0.144 (MW) /      1.155 (MB)
	Total:                                     1.036 (MW) /      8.287 (MB)

	Size of irrep 0 of <ia|bc> integrals:      0.062 (MW) /      0.493 (MB)
	Size of irrep 1 of <ia|bc> integrals:      0.024 (MW) /      0.195 (MB)
	Size of irrep 2 of <ia|bc> integrals:      0.024 (MW) /      0.195 (MB)
	Size of irrep 3 of <ia|bc> integrals:      0.024 (MW) /      0.195 (MB)
	Size of irrep 4 of <ia|bc> integrals:      0.015 (MW) /      0.119 (MB)
	Size of irrep 5 of <ia|bc> integrals:      0.044 (MW) /      0.351 (MB)
	Size of irrep 6 of <ia|bc> integrals:      0.044 (MW) /      0.351 (MB)
	Size of irrep 7 of <ia|bc> integrals:      0.044 (MW) /      0.351 (MB)
	Total:                                     0.281 (MW) /      2.250 (MB)

	Size of irrep 0 of <Ia|Bc> integrals:      0.199 (MW) /      1.591 (MB)
	Size of irrep 1 of <Ia|Bc> integrals:      0.119 (MW) /      0.952 (MB)
	Size of irrep 2 of <Ia|Bc> integrals:      0.119 (MW) /      0.952 (MB)
	Size of irrep 3 of <Ia|Bc> integrals:      0.119 (MW) /      0.952 (MB)
	Size of irrep 4 of <Ia|Bc> integrals:      0.080 (MW) /      0.641 (MB)
	Size of irrep 5 of <Ia|Bc> integrals:      0.150 (MW) /      1.200 (MB)
	Size of irrep 6 of <Ia|Bc> integrals:      0.150 (MW) /      1.200 (MB)
	Size of irrep 7 of <Ia|Bc> integrals:      0.150 (MW) /      1.200 (MB)
	Total:                                     1.086 (MW) /      8.687 (MB)

	Size of irrep 0 of <iA|bC> integrals:      0.060 (MW) /      0.481 (MB)
	Size of irrep 1 of <iA|bC> integrals:      0.024 (MW) /      0.190 (MB)
	Size of irrep 2 of <iA|bC> integrals:      0.024 (MW) /      0.190 (MB)
	Size of irrep 3 of <iA|bC> integrals:      0.024 (MW) /      0.190 (MB)
	Size of irrep 4 of <iA|bC> integrals:      0.015 (MW) /      0.116 (MB)
	Size of irrep 5 of <iA|bC> integrals:      0.041 (MW) /      0.326 (MB)
	Size of irrep 6 of <iA|bC> integrals:      0.041 (MW) /      0.326 (MB)
	Size of irrep 7 of <iA|bC> integrals:      0.041 (MW) /      0.326 (MB)
	Total:                                     0.268 (MW) /      2.146 (MB)

	Size of irrep 0 of tIjAb amplitudes:       0.002 (MW) /      0.018 (MB)
	Size of irrep 1 of tIjAb amplitudes:       0.000 (MW) /      0.000 (MB)
	Size of irrep 2 of tIjAb amplitudes:       0.000 (MW) /      0.000 (MB)
	Size of irrep 3 of tIjAb amplitudes:       0.000 (MW) /      0.000 (MB)
	Size of irrep 4 of tIjAb amplitudes:       0.000 (MW) /      0.000 (MB)
	Size of irrep 5 of tIjAb amplitudes:       0.002 (MW) /      0.017 (MB)
	Size of irrep 6 of tIjAb amplitudes:       0.002 (MW) /      0.017 (MB)
	Size of irrep 7 of tIjAb amplitudes:       0.002 (MW) /      0.017 (MB)
	Total:                                     0.009 (MW) /      0.070 (MB)

	Nuclear Rep. energy          =      0.00000000000000
	SCF energy                   =   -340.71916003941061
	One-electron energy          =    -10.14462120887471
	Two-electron (AA) energy     =      2.05110660752858
	Two-electron (BB) energy     =      0.00000000000000
	Two-electron (AB) energy     =      1.73682149474058
	Two-electron energy          =      3.78792810226916
	Reference energy             =   -340.71916003941084

*** tstop() called on cqc05 at Fri Aug 21 06:48:26 2020
Module time:
	user time   =       2.87 seconds =       0.05 minutes
	system time =       1.55 seconds =       0.03 minutes
	total time  =          5 seconds =       0.08 minutes
Total time:
	user time   =      11.32 seconds =       0.19 minutes
	system time =       1.75 seconds =       0.03 minutes
	total time  =         13 seconds =       0.22 minutes

*** tstart() called on cqc05
*** at Fri Aug 21 06:48:26 2020

            **************************
            *                        *
            *        CCENERGY        *
            *                        *
            **************************

    Nuclear Rep. energy (wfn)     =    0.000000000000000
    SCF energy          (wfn)     = -340.719160039410610
    Reference energy    (file100) = -340.719160039410838

    Input parameters:
    -----------------
    Wave function   =     CCSD
    Reference wfn   =     UHF
    Brueckner       =     No
    Memory (Mbytes) =     250000.0
    Maxiter         =     50
    R_Convergence   =     1.0e-07
    E_Convergence   =     1.0e-06
    Restart         =     Yes
    DIIS            =     Yes
    AO Basis        =     NONE
    ABCD            =     NEW
    Cache Level     =     2
    Cache Type      =     LRU
    Print Level     =     1
    Num. of threads =     4
    # Amps to Print =     10
    Print MP2 Amps? =     No
    Analyze T2 Amps =     No
    Print Pair Ener =     No
    Local CC        =     No
    SCS-MP2         =     False
    SCSN-MP2        =     False
    SCS-CCSD        =     False

MP2 correlation energy -0.0921012969573391
                Solving CC Amplitude Equations
                ------------------------------
  Iter             Energy              RMS        T1Diag      D1Diag    New D1Diag    D2Diag
  ----     ---------------------    ---------   ----------  ----------  ----------   --------
     0        -0.092101296957339    0.000e+00    0.000000    0.000000    0.000000    0.000000
     1        -0.102669368111694    4.087e-02    0.005553    0.000000    0.000000    0.000000
     2        -0.106398529143514    1.266e-02    0.007259    0.000000    0.000000    0.000000
     3        -0.106519189056867    2.372e-03    0.007511    0.000000    0.000000    0.000000
     4        -0.106539853172542    5.345e-04    0.007497    0.000000    0.000000    0.000000
     5        -0.106534038667012    1.197e-04    0.007491    0.000000    0.000000    0.000000
     6        -0.106534056139166    2.704e-05    0.007490    0.000000    0.000000    0.000000
     7        -0.106534226914477    8.225e-06    0.007490    0.000000    0.000000    0.000000
     8        -0.106534192898538    2.153e-06    0.007490    0.000000    0.000000    0.000000
     9        -0.106534179113918    4.691e-07    0.007489    0.000000    0.000000    0.000000
    10        -0.106534180734720    1.230e-07    0.007489    0.000000    0.000000    0.000000
    11        -0.106534180665371    1.736e-08    0.007489    0.000000    0.000000    0.000000
    11        -0.106534180665371    1.736e-08    0.007489    0.000000    0.000000    0.000000

    Iterations converged.


    CCSD corr. energy   =   -0.106534180665371
    PPL corr. energy    =    0.036352349200094
    OS PPL corr. energy =    0.029823084572467
    SS PPL corr. energy =    0.006529264627628
    Largest TIA Amplitudes:
              0   3        -0.0057842910
              3 109         0.0044904566
              2  90         0.0044904541
              1  71         0.0044904469
              0  11         0.0034388585
              0   0         0.0033574819
              3 114        -0.0033253089
              2  95        -0.0033253083
              1  76        -0.0033253064
              3 108        -0.0017327353

    Largest Tia Amplitudes:
              0   0        -0.0077638860
              0   3         0.0076769666
              0  17        -0.0012507106
              0  11        -0.0004196231
              0  25         0.0000254889

    Largest TIJAB Amplitudes:
      3   2  27   5        -0.0400282842
      2   1  51   4        -0.0399930000
      3   1  39   4        -0.0293380221
      3   1  39   5        -0.0292416237
      3   2  27   2         0.0238541789
      3   2  26   5        -0.0232442822
      2   1  50   4        -0.0232237932
      2   1  51   1        -0.0222040927
      3   2  51  39         0.0207110604
      3   1  51  27         0.0207110603

    Largest TIjAb Amplitudes:
      1   0   4  70        -0.0487377612
      3   0   5 110         0.0486947999
      1   0   4  71         0.0457430408
      3   0   5 111        -0.0457027192
      1   0  39 110        -0.0436778811
      2   0  27 110        -0.0436778811
      3   0  39  70        -0.0436778810
      2   0  51  70        -0.0436778810
      3   0  27  90        -0.0436778810
      1   0  51  90        -0.0436778810

    SCF energy       (wfn)                    = -340.719160039410610
    Reference energy (file100)                = -340.719160039410838

    Opposite-spin MP2 correlation energy      =   -0.067835730314932
    Same-spin MP2 correlation energy          =   -0.024265566642405
    MP2 correlation energy                    =   -0.092101296957339
      * MP2 total energy                      = -340.811261336368204

    Opposite-spin CCSD correlation energy     =   -0.080120764803516
    Same-spin CCSD correlation energy         =   -0.026413415885936
    CCSD correlation energy                   =   -0.106534180665371
      * CCSD total energy                     = -340.825694220076230


*** tstop() called on cqc05 at Fri Aug 21 06:48:29 2020
Module time:
	user time   =       1.59 seconds =       0.03 minutes
	system time =       1.11 seconds =       0.02 minutes
	total time  =          3 seconds =       0.05 minutes
Total time:
	user time   =      12.91 seconds =       0.22 minutes
	system time =       2.86 seconds =       0.05 minutes
	total time  =         16 seconds =       0.27 minutes

*** Psi4 exiting successfully. Buy a developer a beer!
