
    -----------------------------------------------------------------------
          Psi4: An Open-Source Ab Initio Electronic Structure Package
                               Psi4 1.4a3.dev88 

                         Git: Rev {master} 262e345 


    D. G. A. Smith, L. A. Burns, A. C. Simmonett, R. M. Parrish,
    M. C. Schieber, R. Galvelis, P. Kraus, H. Kruse, R. Di Remigio,
    A. Alenaizan, A. M. James, S. Lehtola, J. P. Misiewicz, M. Scheurer,
    R. A. Shaw, J. B. Schriber, Y. Xie, Z. L. Glick, D. A. Sirianni,
    J. S. O'Brien, J. M. Waldrop, A. Kumar, E. G. Hohenstein,
    B. P. Pritchard, B. R. Brooks, H. F. Schaefer III, A. Yu. Sokolov,
    K. Patkowski, A. E. DePrince III, U. Bozkaya, R. A. King,
    F. A. Evangelista, J. M. Turney, T. D. Crawford, C. D. Sherrill,
    J. Chem. Phys. 152(18) 184108 (2020). https://doi.org/10.1063/5.0006002

                            Additional Code Authors
    E. T. Seidl, C. L. Janssen, E. F. Valeev, M. L. Leininger,
    J. F. Gonthier, R. M. Richard, H. R. McAlexander, M. Saitow, X. Wang,
    P. Verma, and M. H. Lechner

             Previous Authors, Complete List of Code Contributors,
                       and Citations for Specific Modules
    https://github.com/psi4/psi4/blob/master/codemeta.json
    https://github.com/psi4/psi4/graphs/contributors
    http://psicode.org/psi4manual/master/introduction.html#citing-psifour

    -----------------------------------------------------------------------


    Psi4 started on: Tuesday, 26 January 2021 06:32PM

    Process ID: 407470
    Host:       n412-039.vsc4.prov
    PSIDATADIR: /home/fs71337/gallo4/psi4/eri-6/psi4/build/stage/share/psi4
    Memory:     500.0 MiB
    Threads:    48
    
  ==> Input File <==

--------------------------------------------------------------------------
# Any line starting with the # character is a comment line
memory 250000 mb
molecule molecule{
1 2
O          0.0000000000        0.0000000000        0.5838312771
O          0.0000000000        0.0000000000       -0.5838312771
}

set {
  reference uhf
  basis aug-cc-pV(d+d)Z
  scf_type OUT_OF_CORE
  freeze_core true
}

energy('ccsd(t)')
--------------------------------------------------------------------------

  Memory set to 232.831 GiB by Python driver.

Scratch directory: /binfl/lv71337/airmler/temp/

*** tstart() called on n412-039.vsc4.prov
*** at Tue Jan 26 18:32:36 2021

   => Loading Basis Set <=

    Name: AUG-CC-PV(D+D)Z
    Role: ORBITAL
    Keyword: BASIS
    atoms 1-2 entry O          line   282 file /home/fs71337/gallo4/psi4/eri-6/psi4/build/stage/share/psi4/basis/aug-cc-pv_dpd_z.gbs 


         ---------------------------------------------------------
                                   SCF
               by Justin Turney, Rob Parrish, Andy Simmonett
                          and Daniel G. A. Smith
                              UHF Reference
                       48 Threads, 238418 MiB Core
         ---------------------------------------------------------

  ==> Geometry <==

    Molecular point group: d2h
    Full point group: D_inf_h

    Geometry (in Angstrom), charge = 1, multiplicity = 2:

       Center              X                  Y                   Z               Mass       
    ------------   -----------------  -----------------  -----------------  -----------------
         O            0.000000000000     0.000000000000     0.583831277100    15.994914619570
         O            0.000000000000     0.000000000000    -0.583831277100    15.994914619570

  Running in d2h symmetry.

  Rotational constants: A = ************  B =      1.54600  C =      1.54600 [cm^-1]
  Rotational constants: A = ************  B =  46347.95352  C =  46347.95352 [MHz]
  Nuclear repulsion =   29.004391175397000

  Charge       = 1
  Multiplicity = 2
  Electrons    = 15
  Nalpha       = 8
  Nbeta        = 7

  ==> Algorithm <==

  SCF Algorithm Type is OUT_OF_CORE.
  DIIS enabled.
  MOM disabled.
  Fractional occupation disabled.
  Guess Type is SAD.
  Energy threshold   = 1.00e-08
  Density threshold  = 1.00e-08
  Integral threshold = 1.00e-12

  ==> Primary Basis <==

  Basis Set: AUG-CC-PV(D+D)Z
    Blend: AUG-CC-PV(D+D)Z
    Number of shells: 18
    Number of basis function: 46
    Number of Cartesian functions: 50
    Spherical Harmonics?: true
    Max angular momentum: 2

  ==> Integral Setup <==

  ==> DiskJK: Disk-Based J/K Matrices <==

    J tasked:                  Yes
    K tasked:                  Yes
    wK tasked:                  No
    Memory [MiB]:           178813
    Schwarz Cutoff:          1E-12

  Minimum eigenvalue in the overlap matrix is 1.4409573654E-03.
  Reciprocal condition number of the overlap matrix is 3.7893314127E-04.
    Using symmetric orthogonalization.

  ==> Pre-Iterations <==

  SCF Guess: Superposition of Atomic Densities via on-the-fly atomic UHF (no occupation information).


 WARNING: Atomic UHF is not converging! Try casting from a smaller basis or call Rob at CCMST.
   -------------------------
    Irrep   Nso     Nmo    
   -------------------------
     Ag        11      11 
     B1g        2       2 
     B2g        5       5 
     B3g        5       5 
     Au         2       2 
     B1u       11      11 
     B2u        5       5 
     B3u        5       5 
   -------------------------
    Total      46      46
   -------------------------

  ==> Iterations <==

                        Total Energy        Delta E     RMS |[F,P]|

   @UHF iter SAD:  -148.73261897104362   -1.48733e+02   0.00000e+00 
   @UHF iter   1:  -149.11029898203057   -3.77680e-01   1.88085e-02 DIIS
   @UHF iter   2:  -149.16521360523498   -5.49146e-02   4.99342e-03 DIIS
   @UHF iter   3:  -149.16846867136869   -3.25507e-03   1.22394e-03 DIIS
   @UHF iter   4:  -149.16886949338937   -4.00822e-04   2.57908e-04 DIIS
   @UHF iter   5:  -149.16888915967922   -1.96663e-05   5.16439e-05 DIIS
   @UHF iter   6:  -149.16888993403040   -7.74351e-07   7.67876e-06 DIIS
   @UHF iter   7:  -149.16888994929428   -1.52639e-08   1.04522e-06 DIIS
   @UHF iter   8:  -149.16888994960328   -3.09001e-10   2.21334e-07 DIIS
   @UHF iter   9:  -149.16888994961860   -1.53193e-11   4.02832e-08 DIIS
   @UHF iter  10:  -149.16888994961911   -5.11591e-13   5.04328e-09 DIIS
  Energy and wave function converged.


  ==> Post-Iterations <==

   @Spin Contamination Metric:   1.440898350E-02
   @S^2 Expected:                7.500000000E-01
   @S^2 Observed:                7.644089835E-01
   @S   Expected:                5.000000000E-01
   @S   Observed:                5.000000000E-01

    Orbital Energies [Eh]
    ---------------------

    Alpha Occupied:                                                       

       1Ag   -21.302458     1B1u  -21.301268     2Ag    -2.216506  
       2B1u   -1.600732     1B3u   -1.329061     3Ag    -1.237867  
       1B2u   -1.145750     1B2g   -1.012600  

    Alpha Virtual:                                                        

       1B3g   -0.420172     3B1u   -0.079892     4Ag    -0.079552  
       2B3u   -0.049761     2B2u   -0.048143     5Ag     0.013136  
       2B2g    0.029161     2B3g    0.035388     4B1u    0.097622  
       5B1u    0.192511     6Ag     0.458364     1B1g    0.458419  
       7Ag     0.639193     3B3u    0.687321     3B2u    0.691074  
       1Au     0.813568     6B1u    0.813720     4B3u    0.856450  
       7B1u    0.876323     3B2g    0.879913     4B2u    0.909683  
       3B3g    0.923794     8B1u    1.012518     8Ag     1.142271  
       4B2g    1.321906     4B3g    1.325547     9Ag     2.026694  
       5B3u    2.627479     5B2u    2.636602    10Ag     2.875446  
       2B1g    2.878560    11Ag     2.914970     9B1u    3.110940  
       2Au     3.111034    10B1u    3.220100     5B2g    3.592237  
       5B3g    3.609039    11B1u    3.806861  

    Beta Occupied:                                                        

       1Ag   -21.272896     1B1u  -21.271374     2Ag    -2.152847  
       2B1u   -1.493590     3Ag    -1.203064     1B2u   -1.124435  
       1B3u   -1.071141  

    Beta Virtual:                                                         

       1B3g   -0.393041     1B2g   -0.336975     4Ag    -0.077443  
       3B1u   -0.074028     2B2u   -0.047210     2B3u   -0.040517  
       5Ag     0.012078     2B3g    0.037001     2B2g    0.043295  
       4B1u    0.132250     5B1u    0.199942     6Ag     0.463737  
       1B1g    0.463957     7Ag     0.640477     3B2u    0.690635  
       3B3u    0.709215     6B1u    0.831293     1Au     0.831977  
       7B1u    0.885403     4B2u    0.919887     3B3g    0.932036  
       4B3u    0.955223     3B2g    0.959743     8B1u    1.024734  
       8Ag     1.160162     4B3g    1.327997     4B2g    1.348422  
       9Ag     2.034787     5B2u    2.642187     5B3u    2.675615  
      10Ag     2.915298     2B1g    2.932661    11Ag     2.963384  
       9B1u    3.174713     2Au     3.175031    10B1u    3.237753  
       5B3g    3.617667     5B2g    3.658300    11B1u    3.829181  

    Final Occupation by Irrep:
             Ag   B1g   B2g   B3g    Au   B1u   B2u   B3u 
    DOCC [     3,    0,    0,    0,    0,    2,    1,    1 ]
    SOCC [     0,    0,    1,    0,    0,    0,    0,    0 ]

  @UHF Final Energy:  -149.16888994961911

   => Energetics <=

    Nuclear Repulsion Energy =             29.0043911753970001
    One-Electron Energy =                -255.6109714558886878
    Two-Electron Energy =                  77.4376903308725986
    Total Energy =                       -149.1688899496190857

  UHF NO Occupations:
  HONO-2 :    2B1u 1.9988552
  HONO-1 :    1B3u 1.9944712
  HONO-0 :    1B2g 1.0000000
  LUNO+0 :    2B3u 0.0055288
  LUNO+1 :    3B1u 0.0011448
  LUNO+2 :    4 Ag 0.0004417
  LUNO+3 :    2B2u 0.0000762


Computation Completed


Properties will be evaluated at   0.000000,   0.000000,   0.000000 [a0]

Properties computed using the SCF density matrix

  Nuclear Dipole Moment: [e a0]
     X:     0.0000      Y:     0.0000      Z:     0.0000

  Electronic Dipole Moment: [e a0]
     X:     0.0000      Y:     0.0000      Z:     0.0000

  Dipole Moment: [e a0]
     X:     0.0000      Y:     0.0000      Z:     0.0000     Total:     0.0000

  Dipole Moment: [D]
     X:     0.0000      Y:     0.0000      Z:     0.0000     Total:     0.0000


*** tstop() called on n412-039.vsc4.prov at Tue Jan 26 18:32:37 2021
Module time:
	user time   =      12.41 seconds =       0.21 minutes
	system time =       0.96 seconds =       0.02 minutes
	total time  =          1 seconds =       0.02 minutes
Total time:
	user time   =      12.41 seconds =       0.21 minutes
	system time =       0.96 seconds =       0.02 minutes
	total time  =          1 seconds =       0.02 minutes

*** tstart() called on n412-039.vsc4.prov
*** at Tue Jan 26 18:32:37 2021


	Wfn Parameters:
	--------------------
	Wavefunction         = CCSD_T
	Number of irreps     = 8
	Number of MOs        = 46
	Number of active MOs = 44
	AO-Basis             = NONE
	Semicanonical        = false
	Reference            = UHF
	Print Level          = 1

	IRREP	# MOs	# FZDC	# DOCC	# SOCC	# VIRT	# FZVR
	-----	-----	------	------	------	------	------
	 Ag	   11	    1	    2	    0	    8	    0
	 B1g	   2	    0	    0	    0	    2	    0
	 B2g	   5	    0	    0	    1	    4	    0
	 B3g	   5	    0	    0	    0	    5	    0
	 Au	   2	    0	    0	    0	    2	    0
	 B1u	   11	    1	    1	    0	    9	    0
	 B2u	   5	    0	    1	    0	    4	    0
	 B3u	   5	    0	    1	    0	    4	    0
	Transforming integrals...
	IWL integrals will be deleted.
	(OO|OO)...
	Presorting SO-basis two-electron integrals.
	Sorting File: SO Ints (nn|nn) nbuckets = 1
	Constructing frozen core operators
	Starting AA/AB first half-transformation.
	Sorting AA/AB half-transformed integrals.
	Starting BB first half-transformation.
	Sorting BB half-transformed integrals.
	First half integral transformation complete.
	Starting AA second half-transformation.
	Starting AB second half-transformation.
	Starting BB second half-transformation.
	Two-electron integral transformation complete.
	(OO|OV)...
	Starting AA second half-transformation.
	Starting AB second half-transformation.
	Starting BB second half-transformation.
	Two-electron integral transformation complete.
	(OO|VV)...
	Starting AA second half-transformation.
	Starting AB second half-transformation.
	Starting BB second half-transformation.
	Two-electron integral transformation complete.
	(OV|OO)...
	Starting AA/AB first half-transformation.
	Sorting AA/AB half-transformed integrals.
	Starting BB first half-transformation.
	Sorting BB half-transformed integrals.
	First half integral transformation complete.
	Starting AA second half-transformation.
	Starting AB second half-transformation.
	Starting BB second half-transformation.
	Two-electron integral transformation complete.
	(OV|OV)...
	Starting AA second half-transformation.
	Starting AB second half-transformation.
	Starting BB second half-transformation.
	Two-electron integral transformation complete.
	(OV|VV)...
	Starting AA second half-transformation.
	Starting AB second half-transformation.
	Starting BB second half-transformation.
	Two-electron integral transformation complete.
	(VV|OO)...
	Starting AA/AB first half-transformation.
	Sorting AA/AB half-transformed integrals.
	Starting BB first half-transformation.
	Sorting BB half-transformed integrals.
	First half integral transformation complete.
	Starting AA second half-transformation.
	Starting AB second half-transformation.
	Starting BB second half-transformation.
	Two-electron integral transformation complete.
	(VV|OV)...
	Starting AA second half-transformation.
	Starting AB second half-transformation.
	Starting BB second half-transformation.
	Two-electron integral transformation complete.
	(VV|VV)...
	Starting AA second half-transformation.
	Starting AB second half-transformation.
	Starting BB second half-transformation.
	Two-electron integral transformation complete.
	Frozen core energy     =   -130.90157601121098

	Size of irrep 0 of <AB|CD> integrals:      0.009 (MW) /      0.071 (MB)
	Size of irrep 1 of <AB|CD> integrals:      0.005 (MW) /      0.039 (MB)
	Size of irrep 2 of <AB|CD> integrals:      0.007 (MW) /      0.059 (MB)
	Size of irrep 3 of <AB|CD> integrals:      0.008 (MW) /      0.068 (MB)
	Size of irrep 4 of <AB|CD> integrals:      0.005 (MW) /      0.039 (MB)
	Size of irrep 5 of <AB|CD> integrals:      0.013 (MW) /      0.100 (MB)
	Size of irrep 6 of <AB|CD> integrals:      0.009 (MW) /      0.069 (MB)
	Size of irrep 7 of <AB|CD> integrals:      0.007 (MW) /      0.059 (MB)
	Total:                                     0.063 (MW) /      0.505 (MB)

	Size of irrep 0 of <ab|cd> integrals:      0.010 (MW) /      0.077 (MB)
	Size of irrep 1 of <ab|cd> integrals:      0.006 (MW) /      0.045 (MB)
	Size of irrep 2 of <ab|cd> integrals:      0.009 (MW) /      0.071 (MB)
	Size of irrep 3 of <ab|cd> integrals:      0.009 (MW) /      0.071 (MB)
	Size of irrep 4 of <ab|cd> integrals:      0.005 (MW) /      0.044 (MB)
	Size of irrep 5 of <ab|cd> integrals:      0.013 (MW) /      0.108 (MB)
	Size of irrep 6 of <ab|cd> integrals:      0.009 (MW) /      0.072 (MB)
	Size of irrep 7 of <ab|cd> integrals:      0.009 (MW) /      0.072 (MB)
	Total:                                     0.070 (MW) /      0.559 (MB)

	Size of irrep 0 of <Ab|Cd> integrals:      0.053 (MW) /      0.423 (MB)
	Size of irrep 1 of <Ab|Cd> integrals:      0.021 (MW) /      0.168 (MB)
	Size of irrep 2 of <Ab|Cd> integrals:      0.032 (MW) /      0.259 (MB)
	Size of irrep 3 of <Ab|Cd> integrals:      0.035 (MW) /      0.277 (MB)
	Size of irrep 4 of <Ab|Cd> integrals:      0.021 (MW) /      0.166 (MB)
	Size of irrep 5 of <Ab|Cd> integrals:      0.052 (MW) /      0.416 (MB)
	Size of irrep 6 of <Ab|Cd> integrals:      0.035 (MW) /      0.283 (MB)
	Size of irrep 7 of <Ab|Cd> integrals:      0.033 (MW) /      0.262 (MB)
	Total:                                     0.282 (MW) /      2.254 (MB)

	Size of irrep 0 of <IA|BC> integrals:      0.008 (MW) /      0.067 (MB)
	Size of irrep 1 of <IA|BC> integrals:      0.003 (MW) /      0.021 (MB)
	Size of irrep 2 of <IA|BC> integrals:      0.005 (MW) /      0.043 (MB)
	Size of irrep 3 of <IA|BC> integrals:      0.005 (MW) /      0.040 (MB)
	Size of irrep 4 of <IA|BC> integrals:      0.003 (MW) /      0.021 (MB)
	Size of irrep 5 of <IA|BC> integrals:      0.009 (MW) /      0.070 (MB)
	Size of irrep 6 of <IA|BC> integrals:      0.005 (MW) /      0.037 (MB)
	Size of irrep 7 of <IA|BC> integrals:      0.005 (MW) /      0.043 (MB)
	Total:                                     0.043 (MW) /      0.342 (MB)

	Size of irrep 0 of <ia|bc> integrals:      0.008 (MW) /      0.062 (MB)
	Size of irrep 1 of <ia|bc> integrals:      0.002 (MW) /      0.017 (MB)
	Size of irrep 2 of <ia|bc> integrals:      0.005 (MW) /      0.038 (MB)
	Size of irrep 3 of <ia|bc> integrals:      0.005 (MW) /      0.038 (MB)
	Size of irrep 4 of <ia|bc> integrals:      0.002 (MW) /      0.019 (MB)
	Size of irrep 5 of <ia|bc> integrals:      0.008 (MW) /      0.067 (MB)
	Size of irrep 6 of <ia|bc> integrals:      0.004 (MW) /      0.035 (MB)
	Size of irrep 7 of <ia|bc> integrals:      0.004 (MW) /      0.035 (MB)
	Total:                                     0.039 (MW) /      0.310 (MB)

	Size of irrep 0 of <Ia|Bc> integrals:      0.009 (MW) /      0.070 (MB)
	Size of irrep 1 of <Ia|Bc> integrals:      0.003 (MW) /      0.022 (MB)
	Size of irrep 2 of <Ia|Bc> integrals:      0.006 (MW) /      0.048 (MB)
	Size of irrep 3 of <Ia|Bc> integrals:      0.005 (MW) /      0.040 (MB)
	Size of irrep 4 of <Ia|Bc> integrals:      0.003 (MW) /      0.023 (MB)
	Size of irrep 5 of <Ia|Bc> integrals:      0.009 (MW) /      0.073 (MB)
	Size of irrep 6 of <Ia|Bc> integrals:      0.005 (MW) /      0.038 (MB)
	Size of irrep 7 of <Ia|Bc> integrals:      0.006 (MW) /      0.046 (MB)
	Total:                                     0.045 (MW) /      0.360 (MB)

	Size of irrep 0 of <iA|bC> integrals:      0.008 (MW) /      0.061 (MB)
	Size of irrep 1 of <iA|bC> integrals:      0.002 (MW) /      0.016 (MB)
	Size of irrep 2 of <iA|bC> integrals:      0.004 (MW) /      0.033 (MB)
	Size of irrep 3 of <iA|bC> integrals:      0.005 (MW) /      0.037 (MB)
	Size of irrep 4 of <iA|bC> integrals:      0.002 (MW) /      0.017 (MB)
	Size of irrep 5 of <iA|bC> integrals:      0.008 (MW) /      0.064 (MB)
	Size of irrep 6 of <iA|bC> integrals:      0.004 (MW) /      0.035 (MB)
	Size of irrep 7 of <iA|bC> integrals:      0.004 (MW) /      0.032 (MB)
	Total:                                     0.037 (MW) /      0.295 (MB)

	Size of irrep 0 of tIjAb amplitudes:       0.002 (MW) /      0.013 (MB)
	Size of irrep 1 of tIjAb amplitudes:       0.000 (MW) /      0.002 (MB)
	Size of irrep 2 of tIjAb amplitudes:       0.001 (MW) /      0.006 (MB)
	Size of irrep 3 of tIjAb amplitudes:       0.000 (MW) /      0.003 (MB)
	Size of irrep 4 of tIjAb amplitudes:       0.000 (MW) /      0.001 (MB)
	Size of irrep 5 of tIjAb amplitudes:       0.001 (MW) /      0.009 (MB)
	Size of irrep 6 of tIjAb amplitudes:       0.001 (MW) /      0.006 (MB)
	Size of irrep 7 of tIjAb amplitudes:       0.001 (MW) /      0.007 (MB)
	Total:                                     0.006 (MW) /      0.047 (MB)

	Nuclear Rep. energy          =     29.00439117539700
	SCF energy                   =   -149.16888994961911
	One-electron energy          =    -78.95581530405815
	Two-electron (AA) energy     =      7.95780286661278
	Two-electron (BB) energy     =      5.19587758217253
	Two-electron (AB) energy     =     18.53042974146766
	Two-electron energy          =     31.68411019025297
	Reference energy             =   -149.16888994961917

*** tstop() called on n412-039.vsc4.prov at Tue Jan 26 18:32:39 2021
Module time:
	user time   =       0.06 seconds =       0.00 minutes
	system time =       0.27 seconds =       0.00 minutes
	total time  =          2 seconds =       0.03 minutes
Total time:
	user time   =      12.47 seconds =       0.21 minutes
	system time =       1.23 seconds =       0.02 minutes
	total time  =          3 seconds =       0.05 minutes
            **************************
            *                        *
            *        CCENERGY        *
            *                        *
            **************************

    Nuclear Rep. energy (wfn)     =   29.004391175397000
    SCF energy          (wfn)     = -149.168889949619114
    Reference energy    (file100) = -149.168889949619171

    Input parameters:
    -----------------
    Wave function   =     CCSD_T
    Reference wfn   =     UHF
    Brueckner       =     No
    Memory (Mbytes) =     250000.0
    Maxiter         =     50
    R_Convergence   =     1.0e-07
    E_Convergence   =     1.0e-06
    Restart         =     Yes
    DIIS            =     Yes
    AO Basis        =     NONE
    ABCD            =     NEW
    Cache Level     =     2
    Cache Type      =     LRU
    Print Level     =     1
    Num. of threads =     48
    # Amps to Print =     10
    Print MP2 Amps? =     No
    Analyze T2 Amps =     No
    Print Pair Ener =     No
    Local CC        =     No
    SCS-MP2         =     False
    SCSN-MP2        =     False
    SCS-CCSD        =     False

MP2 correlation energy -0.4088861798238922
                Solving CC Amplitude Equations
                ------------------------------
  Iter             Energy              RMS        T1Diag      D1Diag    New D1Diag    D2Diag
  ----     ---------------------    ---------   ----------  ----------  ----------   --------
     0        -0.408886179823892    0.000e+00    0.000000    0.000000    0.000000    0.000000
     1        -0.368333522103675    1.099e-01    0.020145    0.000000    0.000000    0.000000
     2        -0.390117402862844    3.870e-02    0.019284    0.000000    0.000000    0.000000
     3        -0.393748104178737    1.338e-02    0.022266    0.000000    0.000000    0.000000
     4        -0.394126623142089    3.613e-03    0.022471    0.000000    0.000000    0.000000
     5        -0.394113953553924    9.403e-04    0.022419    0.000000    0.000000    0.000000
     6        -0.394114185640806    2.758e-04    0.022378    0.000000    0.000000    0.000000
     7        -0.394126702336595    7.741e-05    0.022375    0.000000    0.000000    0.000000
     8        -0.394124134665114    2.391e-05    0.022375    0.000000    0.000000    0.000000
     9        -0.394123389770471    8.821e-06    0.022375    0.000000    0.000000    0.000000
    10        -0.394123705371101    3.365e-06    0.022375    0.000000    0.000000    0.000000
    11        -0.394123545569576    1.142e-06    0.022375    0.000000    0.000000    0.000000
    12        -0.394123648083878    3.389e-07    0.022375    0.000000    0.000000    0.000000
    13        -0.394123627323230    9.667e-08    0.022375    0.000000    0.000000    0.000000

    Iterations converged.


    Largest TIA Amplitudes:
              4  32         0.0289725575
              5  36        -0.0178768207
              5  34        -0.0154600016
              4  30         0.0144623518
              2  10        -0.0125961994
              2  11        -0.0096513728
              3  22         0.0093652500
              1   0         0.0085571361
              3  23        -0.0084372337
              5  35         0.0077640765

    Largest Tia Amplitudes:
              3  33         0.0297910415
              4  37         0.0275366753
              2  23         0.0191578462
              3  31         0.0151102252
              2  24        -0.0141163071
              4  35         0.0136521078
              4  36        -0.0081422648
              1   0         0.0077432148
              3  32        -0.0071401579
              4  38         0.0055914192

    Largest TIJAB Amplitudes:
      4   1  22  14        -0.0331164669
      4   1  23  14         0.0165267805
      4   2  36  14         0.0164258778
      2   1  36  22         0.0117584403
      5   4  36  32        -0.0110159384
      5   4   8   2         0.0108936320
      4   1  21  14        -0.0104521255
      2   1  35  22        -0.0104154701
      4   2  35  14        -0.0099414804
      4   2  32  11        -0.0098915660

    Largest Tijab Amplitudes:
      4   3  15  10         0.0652528105
      4   1  23  10        -0.0354481742
      3   1  23  15        -0.0318844767
      4   1  24  10         0.0249754482
      3   1  24  15         0.0226018565
      4   3  15  12         0.0124468123
      4   3  17  10         0.0122783165
      4   3  15  11         0.0122079838
      4   0  23  10         0.0121595476
      4   3   8   2         0.0115977940

    Largest TIjAb Amplitudes:
      4   3  14  15        -0.1657676648
      4   4  14  10        -0.1019899444
      3   2  14  15        -0.0459285767
      1   4  22  10         0.0434391267
      1   3  22  15         0.0396299298
      2   4  36  10        -0.0355564923
      5   3  14  10        -0.0343407610
      1   1  22  23        -0.0333833327
      1   1  14  15        -0.0323614650
      4   1  14  23         0.0320578585

    SCF energy       (wfn)                    = -149.168889949619114
    Reference energy (file100)                = -149.168889949619171

    Opposite-spin MP2 correlation energy      =   -0.293735370008264
    Same-spin MP2 correlation energy          =   -0.115150809815629
    Singles MP2 correlation energy            =   -0.000000000000000
    MP2 correlation energy                    =   -0.408886179823892
      * MP2 total energy                      = -149.577776129443066

    Opposite-spin CCSD correlation energy     =   -0.305585823172143
    Same-spin CCSD correlation energy         =   -0.088537804151087
    Singles CCSD correlation energy           =    0.000000000000000
    CCSD correlation energy                   =   -0.394123627323230
      * CCSD total energy                     = -149.563013576942410

            **************************
            *                        *
            *        CCTRIPLES       *
            *                        *
            **************************


    Wave function   =    CCSD_T
    Reference wfn   =      UHF

    Nuclear Rep. energy (wfn)                =   29.004391175397000
    SCF energy          (wfn)                = -149.168889949619114
    Reference energy    (file100)            = -149.168889949619171
    CCSD energy         (file100)            =   -0.394123627323230
    Total CCSD energy   (file100)            = -149.563013576942410

    Number of ijk index combinations:
    Spin Case AAA:                                  20
    Spin Case BBB:                                  10
    Spin Case AAB:                                  75
    Spin Case ABB:                                  60
    AAA (T) energy                             =   -0.000185926838489
    BBB (T) energy                             =   -0.000477663928602
    AAB (T) energy                             =   -0.007221964047799
    ABB (T) energy                             =   -0.009068049205943
    (T) energy                                   =   -0.016953604020833
      * CCSD(T) total energy                     = -149.579967180963223


    Psi4 stopped on: Tuesday, 26 January 2021 06:32PM
    Psi4 wall time for execution: 0:00:08.40

*** Psi4 exiting successfully. Buy a developer a beer!
