
    -----------------------------------------------------------------------
          Psi4: An Open-Source Ab Initio Electronic Structure Package
                               Psi4 1.4a3.dev88 

                         Git: Rev {master} 262e345 


    D. G. A. Smith, L. A. Burns, A. C. Simmonett, R. M. Parrish,
    M. C. Schieber, R. Galvelis, P. Kraus, H. Kruse, R. Di Remigio,
    A. Alenaizan, A. M. James, S. Lehtola, J. P. Misiewicz, M. Scheurer,
    R. A. Shaw, J. B. Schriber, Y. Xie, Z. L. Glick, D. A. Sirianni,
    J. S. O'Brien, J. M. Waldrop, A. Kumar, E. G. Hohenstein,
    B. P. Pritchard, B. R. Brooks, H. F. Schaefer III, A. Yu. Sokolov,
    K. Patkowski, A. E. DePrince III, U. Bozkaya, R. A. King,
    F. A. Evangelista, J. M. Turney, T. D. Crawford, C. D. Sherrill,
    J. Chem. Phys. 152(18) 184108 (2020). https://doi.org/10.1063/5.0006002

                            Additional Code Authors
    E. T. Seidl, C. L. Janssen, E. F. Valeev, M. L. Leininger,
    J. F. Gonthier, R. M. Richard, H. R. McAlexander, M. Saitow, X. Wang,
    P. Verma, and M. H. Lechner

             Previous Authors, Complete List of Code Contributors,
                       and Citations for Specific Modules
    https://github.com/psi4/psi4/blob/master/codemeta.json
    https://github.com/psi4/psi4/graphs/contributors
    http://psicode.org/psi4manual/master/introduction.html#citing-psifour

    -----------------------------------------------------------------------


    Psi4 started on: Tuesday, 26 January 2021 06:23PM

    Process ID: 407929
    Host:       n412-040.vsc4.prov
    PSIDATADIR: /home/fs71337/gallo4/psi4/eri-6/psi4/build/stage/share/psi4
    Memory:     500.0 MiB
    Threads:    48
    
  ==> Input File <==

--------------------------------------------------------------------------
# Any line starting with the # character is a comment line
memory 250000 mb
molecule molecule{
1 2
O          0.0000000000        0.0000000000        0.5838312771
O          0.0000000000        0.0000000000       -0.5838312771
}

set {
  reference uhf
  basis aug-cc-pV(t+d)Z
  scf_type OUT_OF_CORE
  freeze_core true
}

energy('ccsd(t)')
--------------------------------------------------------------------------

  Memory set to 232.831 GiB by Python driver.

Scratch directory: /binfl/lv71337/airmler/temp/

*** tstart() called on n412-040.vsc4.prov
*** at Tue Jan 26 18:23:11 2021

   => Loading Basis Set <=

    Name: AUG-CC-PV(T+D)Z
    Role: ORBITAL
    Keyword: BASIS
    atoms 1-2 entry O          line   359 file /home/fs71337/gallo4/psi4/eri-6/psi4/build/stage/share/psi4/basis/aug-cc-pv_tpd_z.gbs 


         ---------------------------------------------------------
                                   SCF
               by Justin Turney, Rob Parrish, Andy Simmonett
                          and Daniel G. A. Smith
                              UHF Reference
                       48 Threads, 238418 MiB Core
         ---------------------------------------------------------

  ==> Geometry <==

    Molecular point group: d2h
    Full point group: D_inf_h

    Geometry (in Angstrom), charge = 1, multiplicity = 2:

       Center              X                  Y                   Z               Mass       
    ------------   -----------------  -----------------  -----------------  -----------------
         O            0.000000000000     0.000000000000     0.583831277100    15.994914619570
         O            0.000000000000     0.000000000000    -0.583831277100    15.994914619570

  Running in d2h symmetry.

  Rotational constants: A = ************  B =      1.54600  C =      1.54600 [cm^-1]
  Rotational constants: A = ************  B =  46347.95352  C =  46347.95352 [MHz]
  Nuclear repulsion =   29.004391175397000

  Charge       = 1
  Multiplicity = 2
  Electrons    = 15
  Nalpha       = 8
  Nbeta        = 7

  ==> Algorithm <==

  SCF Algorithm Type is OUT_OF_CORE.
  DIIS enabled.
  MOM disabled.
  Fractional occupation disabled.
  Guess Type is SAD.
  Energy threshold   = 1.00e-08
  Density threshold  = 1.00e-08
  Integral threshold = 1.00e-12

  ==> Primary Basis <==

  Basis Set: AUG-CC-PV(T+D)Z
    Blend: AUG-CC-PV(T+D)Z
    Number of shells: 28
    Number of basis function: 92
    Number of Cartesian functions: 110
    Spherical Harmonics?: true
    Max angular momentum: 3

  ==> Integral Setup <==

  ==> DiskJK: Disk-Based J/K Matrices <==

    J tasked:                  Yes
    K tasked:                  Yes
    wK tasked:                  No
    Memory [MiB]:           178813
    Schwarz Cutoff:          1E-12

  Minimum eigenvalue in the overlap matrix is 4.3464488795E-04.
  Reciprocal condition number of the overlap matrix is 9.3997605729E-05.
    Using symmetric orthogonalization.

  ==> Pre-Iterations <==

  SCF Guess: Superposition of Atomic Densities via on-the-fly atomic UHF (no occupation information).


 WARNING: Atomic UHF is not converging! Try casting from a smaller basis or call Rob at CCMST.
   -------------------------
    Irrep   Nso     Nmo    
   -------------------------
     Ag        19      19 
     B1g        5       5 
     B2g       11      11 
     B3g       11      11 
     Au         5       5 
     B1u       19      19 
     B2u       11      11 
     B3u       11      11 
   -------------------------
    Total      92      92
   -------------------------

  ==> Iterations <==

                        Total Energy        Delta E     RMS |[F,P]|

   @UHF iter SAD:  -138.24196682950816   -1.38242e+02   0.00000e+00 
   @UHF iter   1:  -149.15412831747759   -1.09122e+01   1.11517e-02 DIIS
   @UHF iter   2:  -149.20336189799988   -4.92336e-02   3.09877e-03 DIIS
   @UHF iter   3:  -149.20685547679406   -3.49358e-03   6.96796e-04 DIIS
   @UHF iter   4:  -149.20727390268763   -4.18426e-04   1.48515e-04 DIIS
   @UHF iter   5:  -149.20729577534709   -2.18727e-05   2.34357e-05 DIIS
   @UHF iter   6:  -149.20729628226565   -5.06919e-07   4.01776e-06 DIIS
   @UHF iter   7:  -149.20729629654062   -1.42750e-08   6.48807e-07 DIIS
   @UHF iter   8:  -149.20729629693977   -3.99154e-10   1.60026e-07 DIIS
   @UHF iter   9:  -149.20729629696581   -2.60343e-11   3.39050e-08 DIIS
   @UHF iter  10:  -149.20729629696700   -1.19371e-12   4.98896e-09 DIIS
  Energy and wave function converged.


  ==> Post-Iterations <==

   @Spin Contamination Metric:   1.485197761E-02
   @S^2 Expected:                7.500000000E-01
   @S^2 Observed:                7.648519776E-01
   @S   Expected:                5.000000000E-01
   @S   Observed:                5.000000000E-01

    Orbital Energies [Eh]
    ---------------------

    Alpha Occupied:                                                       

       1Ag   -21.293258     1B1u  -21.292057     2Ag    -2.206043  
       2B1u   -1.595891     1B3u   -1.327393     3Ag    -1.233278  
       1B2u   -1.142828     1B2g   -1.011911  

    Alpha Virtual:                                                        

       1B3g   -0.416053     4Ag    -0.095286     3B1u   -0.085999  
       2B3u   -0.064443     2B2u   -0.063336     5Ag    -0.005649  
       2B2g    0.008566     2B3g    0.013046     4B1u    0.075636  
       5B1u    0.163696     6Ag     0.254054     1B1g    0.254210  
       7Ag     0.375074     3B2u    0.458582     3B3u    0.458905  
       6B1u    0.505561     1Au     0.505614     3B2g    0.512342  
       4B3u    0.526167     3B3g    0.533684     4B2u    0.551784  
       7B1u    0.565300     8Ag     0.631958     8B1u    0.679292  
       4B2g    0.843114     4B3g    0.850676     9Ag     1.209639  
       2B1g    1.439716    10Ag     1.440252     5B3u    1.490210  
       5B2u    1.490374     6B3u    1.503392     6B2u    1.518795  
       2Au     1.780655     9B1u    1.780894    11Ag     1.817268  
       3B1g    1.837745    12Ag     1.837889     5B2g    1.898327  
       5B3g    1.898329     6B2g    1.965961    10B1u    1.966925  
       6B3g    1.968616    11B1u    2.223149     7B2u    2.340419  
       7B3u    2.344494    12B1u    2.488450     3Au     2.488919  
      13B1u    2.578345     7B2g    2.656446     7B3g    2.674839  
      13Ag     3.090817     8B3u    3.598231     8B2u    3.639377  
      14Ag     4.045506     8B2g    4.555203     8B3g    4.578605  
       9B2u    5.459842     9B3u    5.472075    15Ag     5.528931  
       4B1g    5.560954    16Ag     5.562500    10B2u    5.814388  
      10B3u    5.814388    14B1u    5.816615     9B2g    6.038105  
       9B3g    6.038106    15B1u    6.166681     5B1g    6.372872  
      17Ag     6.373015     4Au     6.506480    16B1u    6.506643  
       5Au     6.570488    17B1u    6.570626    11B3u    6.737680  
      11B2u    6.742677    10B2g    6.954840    10B3g    6.960025  
      11B3g    7.434858    11B2g    7.446424    18Ag     7.575830  
      18B1u    7.888618    19Ag    12.471977    19B1u   14.823619  

    Beta Occupied:                                                        

       1Ag   -21.263820     1B1u  -21.262287     2Ag    -2.143411  
       2B1u   -1.488553     3Ag    -1.199821     1B2u   -1.122505  
       1B3u   -1.069065  

    Beta Virtual:                                                         

       1B3g   -0.389479     1B2g   -0.332741     4Ag    -0.093781  
       3B1u   -0.081575     2B2u   -0.062685     2B3u   -0.057393  
       5Ag    -0.006364     2B3g    0.014192     2B2g    0.018863  
       4B1u    0.101043     5B1u    0.178108     6Ag     0.255150  
       1B1g    0.255226     7Ag     0.373869     3B2u    0.458093  
       3B3u    0.469141     6B1u    0.512192     1Au     0.512423  
       3B3g    0.537496     3B2g    0.551935     4B2u    0.556544  
       7B1u    0.574397     4B3u    0.579773     8Ag     0.642344  
       8B1u    0.685502     4B3g    0.853265     4B2g    0.867366  
       9Ag     1.211076     2B1g    1.454181    10Ag     1.454381  
       5B2u    1.493099     5B3u    1.493117     6B2u    1.520732  
       6B3u    1.549035     9B1u    1.818655     2Au     1.819147  
      11Ag     1.826616     3B1g    1.855280    12Ag     1.860573  
       5B3g    1.905921     5B2g    1.905948     6B3g    1.969212  
      10B1u    1.981958     6B2g    1.988843    11B1u    2.233424  
       7B2u    2.340815     7B3u    2.358317    12B1u    2.500976  
       3Au     2.502456    13B1u    2.590615     7B3g    2.682744  
       7B2g    2.716909    13Ag     3.119179     8B2u    3.652769  
       8B3u    3.699334    14Ag     4.063823     8B3g    4.589557  
       8B2g    4.633283     9B2u    5.463570     9B3u    5.494075  
      15Ag     5.535859     4B1g    5.577014    16Ag     5.583868  
      14B1u    5.834589    10B2u    5.845353    10B3u    5.845379  
       9B3g    6.070451     9B2g    6.070456    15B1u    6.185347  
       5B1g    6.437476    17Ag     6.437777     4Au     6.544803  
      16B1u    6.545843     5Au     6.617208    17B1u    6.618188  
      11B2u    6.751111    11B3u    6.794160    10B3g    6.968004  
      10B2g    7.008996    11B3g    7.440264    11B2g    7.476717  
      18Ag     7.589872    18B1u    7.903257    19Ag    12.495946  
      19B1u   14.847592  

    Final Occupation by Irrep:
             Ag   B1g   B2g   B3g    Au   B1u   B2u   B3u 
    DOCC [     3,    0,    0,    0,    0,    2,    1,    1 ]
    SOCC [     0,    0,    1,    0,    0,    0,    0,    0 ]

  @UHF Final Energy:  -149.20729629696700

   => Energetics <=

    Nuclear Repulsion Energy =             29.0043911753970001
    One-Electron Energy =                -255.7712539452906526
    Two-Electron Energy =                  77.5595664729266616
    Total Energy =                       -149.2072962969670016

  UHF NO Occupations:
  HONO-2 :    2B1u 1.9987798
  HONO-1 :    1B3u 1.9943964
  HONO-0 :    1B2g 1.0000000
  LUNO+0 :    2B3u 0.0056036
  LUNO+1 :    3B1u 0.0012202
  LUNO+2 :    4 Ag 0.0005016
  LUNO+3 :    2B2u 0.0000860


Computation Completed


Properties will be evaluated at   0.000000,   0.000000,   0.000000 [a0]

Properties computed using the SCF density matrix

  Nuclear Dipole Moment: [e a0]
     X:     0.0000      Y:     0.0000      Z:     0.0000

  Electronic Dipole Moment: [e a0]
     X:     0.0000      Y:     0.0000      Z:     0.0000

  Dipole Moment: [e a0]
     X:     0.0000      Y:     0.0000      Z:     0.0000     Total:     0.0000

  Dipole Moment: [D]
     X:     0.0000      Y:     0.0000      Z:     0.0000     Total:     0.0000


*** tstop() called on n412-040.vsc4.prov at Tue Jan 26 18:23:13 2021
Module time:
	user time   =      22.37 seconds =       0.37 minutes
	system time =       1.06 seconds =       0.02 minutes
	total time  =          2 seconds =       0.03 minutes
Total time:
	user time   =      22.37 seconds =       0.37 minutes
	system time =       1.06 seconds =       0.02 minutes
	total time  =          2 seconds =       0.03 minutes

*** tstart() called on n412-040.vsc4.prov
*** at Tue Jan 26 18:23:13 2021


	Wfn Parameters:
	--------------------
	Wavefunction         = CCSD_T
	Number of irreps     = 8
	Number of MOs        = 92
	Number of active MOs = 90
	AO-Basis             = NONE
	Semicanonical        = false
	Reference            = UHF
	Print Level          = 1

	IRREP	# MOs	# FZDC	# DOCC	# SOCC	# VIRT	# FZVR
	-----	-----	------	------	------	------	------
	 Ag	   19	    1	    2	    0	    16	    0
	 B1g	   5	    0	    0	    0	    5	    0
	 B2g	   11	    0	    0	    1	    10	    0
	 B3g	   11	    0	    0	    0	    11	    0
	 Au	   5	    0	    0	    0	    5	    0
	 B1u	   19	    1	    1	    0	    17	    0
	 B2u	   11	    0	    1	    0	    10	    0
	 B3u	   11	    0	    1	    0	    10	    0
	Transforming integrals...
	IWL integrals will be deleted.
	(OO|OO)...
	Presorting SO-basis two-electron integrals.
	Sorting File: SO Ints (nn|nn) nbuckets = 1
	Constructing frozen core operators
	Starting AA/AB first half-transformation.
	Sorting AA/AB half-transformed integrals.
	Starting BB first half-transformation.
	Sorting BB half-transformed integrals.
	First half integral transformation complete.
	Starting AA second half-transformation.
	Starting AB second half-transformation.
	Starting BB second half-transformation.
	Two-electron integral transformation complete.
	(OO|OV)...
	Starting AA second half-transformation.
	Starting AB second half-transformation.
	Starting BB second half-transformation.
	Two-electron integral transformation complete.
	(OO|VV)...
	Starting AA second half-transformation.
	Starting AB second half-transformation.
	Starting BB second half-transformation.
	Two-electron integral transformation complete.
	(OV|OO)...
	Starting AA/AB first half-transformation.
	Sorting AA/AB half-transformed integrals.
	Starting BB first half-transformation.
	Sorting BB half-transformed integrals.
	First half integral transformation complete.
	Starting AA second half-transformation.
	Starting AB second half-transformation.
	Starting BB second half-transformation.
	Two-electron integral transformation complete.
	(OV|OV)...
	Starting AA second half-transformation.
	Starting AB second half-transformation.
	Starting BB second half-transformation.
	Two-electron integral transformation complete.
	(OV|VV)...
	Starting AA second half-transformation.
	Starting AB second half-transformation.
	Starting BB second half-transformation.
	Two-electron integral transformation complete.
	(VV|OO)...
	Starting AA/AB first half-transformation.
	Sorting AA/AB half-transformed integrals.
	Starting BB first half-transformation.
	Sorting BB half-transformed integrals.
	First half integral transformation complete.
	Starting AA second half-transformation.
	Starting AB second half-transformation.
	Starting BB second half-transformation.
	Two-electron integral transformation complete.
	(VV|OV)...
	Starting AA second half-transformation.
	Starting AB second half-transformation.
	Starting BB second half-transformation.
	Two-electron integral transformation complete.
	(VV|VV)...
	Starting AA second half-transformation.
	Starting AB second half-transformation.
	Starting BB second half-transformation.
	Two-electron integral transformation complete.
	Frozen core energy     =   -130.90315372514254

	Size of irrep 0 of <AB|CD> integrals:      0.217 (MW) /      1.737 (MB)
	Size of irrep 1 of <AB|CD> integrals:      0.141 (MW) /      1.125 (MB)
	Size of irrep 2 of <AB|CD> integrals:      0.189 (MW) /      1.514 (MB)
	Size of irrep 3 of <AB|CD> integrals:      0.199 (MW) /      1.591 (MB)
	Size of irrep 4 of <AB|CD> integrals:      0.141 (MW) /      1.125 (MB)
	Size of irrep 5 of <AB|CD> integrals:      0.257 (MW) /      2.056 (MB)
	Size of irrep 6 of <AB|CD> integrals:      0.200 (MW) /      1.598 (MB)
	Size of irrep 7 of <AB|CD> integrals:      0.189 (MW) /      1.514 (MB)
	Total:                                     1.533 (MW) /     12.261 (MB)

	Size of irrep 0 of <ab|cd> integrals:      0.227 (MW) /      1.813 (MB)
	Size of irrep 1 of <ab|cd> integrals:      0.149 (MW) /      1.192 (MB)
	Size of irrep 2 of <ab|cd> integrals:      0.203 (MW) /      1.627 (MB)
	Size of irrep 3 of <ab|cd> integrals:      0.203 (MW) /      1.627 (MB)
	Size of irrep 4 of <ab|cd> integrals:      0.148 (MW) /      1.186 (MB)
	Size of irrep 5 of <ab|cd> integrals:      0.267 (MW) /      2.138 (MB)
	Size of irrep 6 of <ab|cd> integrals:      0.204 (MW) /      1.634 (MB)
	Size of irrep 7 of <ab|cd> integrals:      0.204 (MW) /      1.634 (MB)
	Total:                                     1.606 (MW) /     12.852 (MB)

	Size of irrep 0 of <Ab|Cd> integrals:      1.053 (MW) /      8.421 (MB)
	Size of irrep 1 of <Ab|Cd> integrals:      0.579 (MW) /      4.633 (MB)
	Size of irrep 2 of <Ab|Cd> integrals:      0.785 (MW) /      6.280 (MB)
	Size of irrep 3 of <Ab|Cd> integrals:      0.805 (MW) /      6.437 (MB)
	Size of irrep 4 of <Ab|Cd> integrals:      0.578 (MW) /      4.621 (MB)
	Size of irrep 5 of <Ab|Cd> integrals:      1.049 (MW) /      8.389 (MB)
	Size of irrep 6 of <Ab|Cd> integrals:      0.808 (MW) /      6.466 (MB)
	Size of irrep 7 of <Ab|Cd> integrals:      0.787 (MW) /      6.294 (MB)
	Total:                                     6.443 (MW) /     51.540 (MB)

	Size of irrep 0 of <IA|BC> integrals:      0.080 (MW) /      0.642 (MB)
	Size of irrep 1 of <IA|BC> integrals:      0.035 (MW) /      0.276 (MB)
	Size of irrep 2 of <IA|BC> integrals:      0.059 (MW) /      0.473 (MB)
	Size of irrep 3 of <IA|BC> integrals:      0.053 (MW) /      0.421 (MB)
	Size of irrep 4 of <IA|BC> integrals:      0.035 (MW) /      0.276 (MB)
	Size of irrep 5 of <IA|BC> integrals:      0.082 (MW) /      0.657 (MB)
	Size of irrep 6 of <IA|BC> integrals:      0.051 (MW) /      0.408 (MB)
	Size of irrep 7 of <IA|BC> integrals:      0.059 (MW) /      0.473 (MB)
	Total:                                     0.453 (MW) /      3.626 (MB)

	Size of irrep 0 of <ia|bc> integrals:      0.072 (MW) /      0.572 (MB)
	Size of irrep 1 of <ia|bc> integrals:      0.027 (MW) /      0.216 (MB)
	Size of irrep 2 of <ia|bc> integrals:      0.049 (MW) /      0.390 (MB)
	Size of irrep 3 of <ia|bc> integrals:      0.049 (MW) /      0.390 (MB)
	Size of irrep 4 of <ia|bc> integrals:      0.028 (MW) /      0.228 (MB)
	Size of irrep 5 of <ia|bc> integrals:      0.074 (MW) /      0.596 (MB)
	Size of irrep 6 of <ia|bc> integrals:      0.047 (MW) /      0.376 (MB)
	Size of irrep 7 of <ia|bc> integrals:      0.047 (MW) /      0.376 (MB)
	Total:                                     0.393 (MW) /      3.144 (MB)

	Size of irrep 0 of <Ia|Bc> integrals:      0.082 (MW) /      0.657 (MB)
	Size of irrep 1 of <Ia|Bc> integrals:      0.035 (MW) /      0.280 (MB)
	Size of irrep 2 of <Ia|Bc> integrals:      0.062 (MW) /      0.496 (MB)
	Size of irrep 3 of <Ia|Bc> integrals:      0.053 (MW) /      0.423 (MB)
	Size of irrep 4 of <Ia|Bc> integrals:      0.036 (MW) /      0.286 (MB)
	Size of irrep 5 of <Ia|Bc> integrals:      0.084 (MW) /      0.672 (MB)
	Size of irrep 6 of <Ia|Bc> integrals:      0.051 (MW) /      0.410 (MB)
	Size of irrep 7 of <Ia|Bc> integrals:      0.061 (MW) /      0.490 (MB)
	Total:                                     0.464 (MW) /      3.713 (MB)

	Size of irrep 0 of <iA|bC> integrals:      0.071 (MW) /      0.566 (MB)
	Size of irrep 1 of <iA|bC> integrals:      0.027 (MW) /      0.213 (MB)
	Size of irrep 2 of <iA|bC> integrals:      0.046 (MW) /      0.369 (MB)
	Size of irrep 3 of <iA|bC> integrals:      0.048 (MW) /      0.388 (MB)
	Size of irrep 4 of <iA|bC> integrals:      0.027 (MW) /      0.219 (MB)
	Size of irrep 5 of <iA|bC> integrals:      0.073 (MW) /      0.582 (MB)
	Size of irrep 6 of <iA|bC> integrals:      0.047 (MW) /      0.374 (MB)
	Size of irrep 7 of <iA|bC> integrals:      0.045 (MW) /      0.362 (MB)
	Total:                                     0.384 (MW) /      3.072 (MB)

	Size of irrep 0 of tIjAb amplitudes:       0.007 (MW) /      0.057 (MB)
	Size of irrep 1 of tIjAb amplitudes:       0.002 (MW) /      0.012 (MB)
	Size of irrep 2 of tIjAb amplitudes:       0.004 (MW) /      0.028 (MB)
	Size of irrep 3 of tIjAb amplitudes:       0.002 (MW) /      0.014 (MB)
	Size of irrep 4 of tIjAb amplitudes:       0.001 (MW) /      0.006 (MB)
	Size of irrep 5 of tIjAb amplitudes:       0.005 (MW) /      0.041 (MB)
	Size of irrep 6 of tIjAb amplitudes:       0.004 (MW) /      0.029 (MB)
	Size of irrep 7 of tIjAb amplitudes:       0.004 (MW) /      0.035 (MB)
	Total:                                     0.028 (MW) /      0.224 (MB)

	Nuclear Rep. energy          =     29.00439117539700
	SCF energy                   =   -149.20729629696700
	One-electron energy          =    -79.07636790948240
	Two-electron (AA) energy     =      7.97483120756452
	Two-electron (BB) energy     =      5.21000167482359
	Two-electron (AB) energy     =     18.58300127987310
	Two-electron energy          =     31.76783416226120
	Reference energy             =   -149.20729629696675

*** tstop() called on n412-040.vsc4.prov at Tue Jan 26 18:23:20 2021
Module time:
	user time   =       1.08 seconds =       0.02 minutes
	system time =       0.98 seconds =       0.02 minutes
	total time  =          7 seconds =       0.12 minutes
Total time:
	user time   =      23.46 seconds =       0.39 minutes
	system time =       2.04 seconds =       0.03 minutes
	total time  =          9 seconds =       0.15 minutes
            **************************
            *                        *
            *        CCENERGY        *
            *                        *
            **************************

    Nuclear Rep. energy (wfn)     =   29.004391175397000
    SCF energy          (wfn)     = -149.207296296967002
    Reference energy    (file100) = -149.207296296966746

    Input parameters:
    -----------------
    Wave function   =     CCSD_T
    Reference wfn   =     UHF
    Brueckner       =     No
    Memory (Mbytes) =     250000.0
    Maxiter         =     50
    R_Convergence   =     1.0e-07
    E_Convergence   =     1.0e-06
    Restart         =     Yes
    DIIS            =     Yes
    AO Basis        =     NONE
    ABCD            =     NEW
    Cache Level     =     2
    Cache Type      =     LRU
    Print Level     =     1
    Num. of threads =     48
    # Amps to Print =     10
    Print MP2 Amps? =     No
    Analyze T2 Amps =     No
    Print Pair Ener =     No
    Local CC        =     No
    SCS-MP2         =     False
    SCSN-MP2        =     False
    SCS-CCSD        =     False

MP2 correlation energy -0.4840128768283483
                Solving CC Amplitude Equations
                ------------------------------
  Iter             Energy              RMS        T1Diag      D1Diag    New D1Diag    D2Diag
  ----     ---------------------    ---------   ----------  ----------  ----------   --------
     0        -0.484012876828348    0.000e+00    0.000000    0.000000    0.000000    0.000000
     1        -0.434841678697456    1.164e-01    0.021441    0.000000    0.000000    0.000000
     2        -0.460203712834615    4.321e-02    0.019719    0.000000    0.000000    0.000000
     3        -0.463617341024338    1.288e-02    0.022713    0.000000    0.000000    0.000000
     4        -0.463902949104094    3.279e-03    0.022920    0.000000    0.000000    0.000000
     5        -0.463909220037602    9.300e-04    0.022892    0.000000    0.000000    0.000000
     6        -0.463900609900651    2.730e-04    0.022849    0.000000    0.000000    0.000000
     7        -0.463913754889124    7.797e-05    0.022845    0.000000    0.000000    0.000000
     8        -0.463913068604880    2.436e-05    0.022844    0.000000    0.000000    0.000000
     9        -0.463911746665559    8.457e-06    0.022844    0.000000    0.000000    0.000000
    10        -0.463911977009389    3.060e-06    0.022844    0.000000    0.000000    0.000000
    11        -0.463911891127120    1.090e-06    0.022845    0.000000    0.000000    0.000000
    12        -0.463911974023948    2.969e-07    0.022845    0.000000    0.000000    0.000000
    13        -0.463911956663820    8.085e-08    0.022845    0.000000    0.000000    0.000000

    Iterations converged.


    Largest TIA Amplitudes:
              4  66         0.0271351272
              5  76        -0.0179189921
              4  64         0.0143540971
              4  68         0.0120969646
              5  74        -0.0117684793
              4  70         0.0099274785
              3  49        -0.0091607397
              2  21        -0.0086529312
              2  22        -0.0080901508
              1  10        -0.0078519142

    Largest Tia Amplitudes:
              3  67         0.0282992555
              4  77         0.0272254555
              2  50        -0.0182759506
              2  49         0.0158043820
              3  65         0.0151424162
              4  75         0.0145453198
              4  79         0.0121111061
              3  69         0.0118227351
              3  71         0.0102594042
              4  81         0.0099527337

    Largest TIJAB Amplitudes:
      4   1  48  31        -0.0282063918
      4   1  49  31         0.0233481796
      4   2  76  31         0.0147454122
      4   1  52  31        -0.0120772502
      4   2  78  31         0.0107304752
      2   1  78  48         0.0104880865
      5   4  17   6        -0.0092376526
      2   1  78  49        -0.0087140833
      4   1  47  31        -0.0084977003
      2   1  76  48         0.0082411200

    Largest Tijab Amplitudes:
      4   3  32  21         0.0657557432
      4   1  50  21         0.0328729101
      3   1  50  32         0.0298296466
      4   1  49  21        -0.0261048441
      3   1  49  32        -0.0235570866
      4   1  53  21        -0.0144732154
      3   1  53  32        -0.0132528987
      4   3  32  23         0.0118090231
      4   3  34  21         0.0112787560
      4   3  32  22         0.0109394713

    Largest TIjAb Amplitudes:
      4   3  31  32        -0.1611322179
      4   4  31  21        -0.0996519997
      3   2  31  32        -0.0447660211
      1   4  48  21         0.0357643446
      2   4  76  21        -0.0331969246
      4   1  31  50        -0.0327311281
      1   3  48  32         0.0326083130
      1   4  49  21        -0.0320194794
      1   1  31  32        -0.0317375288
      5   3  31  21        -0.0314876152

    SCF energy       (wfn)                    = -149.207296296967002
    Reference energy (file100)                = -149.207296296966746

    Opposite-spin MP2 correlation energy      =   -0.353356320594457
    Same-spin MP2 correlation energy          =   -0.130656556233891
    Singles MP2 correlation energy            =   -0.000000000000000
    MP2 correlation energy                    =   -0.484012876828348
      * MP2 total energy                      = -149.691309173795105

    Opposite-spin CCSD correlation energy     =   -0.360930668566635
    Same-spin CCSD correlation energy         =   -0.102981288097185
    Singles CCSD correlation energy           =    0.000000000000000
    CCSD correlation energy                   =   -0.463911956663820
      * CCSD total energy                     = -149.671208253630567

            **************************
            *                        *
            *        CCTRIPLES       *
            *                        *
            **************************


    Wave function   =    CCSD_T
    Reference wfn   =      UHF

    Nuclear Rep. energy (wfn)                =   29.004391175397000
    SCF energy          (wfn)                = -149.207296296967002
    Reference energy    (file100)            = -149.207296296966746
    CCSD energy         (file100)            =   -0.463911956663820
    Total CCSD energy   (file100)            = -149.671208253630567

    Number of ijk index combinations:
    Spin Case AAA:                                  20
    Spin Case BBB:                                  10
    Spin Case AAB:                                  75
    Spin Case ABB:                                  60
    AAA (T) energy                             =   -0.000350336638609
    BBB (T) energy                             =   -0.000669208491208
    AAB (T) energy                             =   -0.010796534680512
    ABB (T) energy                             =   -0.012509700807953
    (T) energy                                   =   -0.024325780618282
      * CCSD(T) total energy                     = -149.695534034248851


    Psi4 stopped on: Tuesday, 26 January 2021 06:23PM
    Psi4 wall time for execution: 0:00:21.92

*** Psi4 exiting successfully. Buy a developer a beer!
