
    -----------------------------------------------------------------------
          Psi4: An Open-Source Ab Initio Electronic Structure Package
                               Psi4 1.2a1.dev938 

                         Git: Rev {HEAD} fc51d9a dirty


    R. M. Parrish, L. A. Burns, D. G. A. Smith, A. C. Simmonett,
    A. E. DePrince III, E. G. Hohenstein, U. Bozkaya, A. Yu. Sokolov,
    R. Di Remigio, R. M. Richard, J. F. Gonthier, A. M. James,
    H. R. McAlexander, A. Kumar, M. Saitow, X. Wang, B. P. Pritchard,
    P. Verma, H. F. Schaefer III, K. Patkowski, R. A. King, E. F. Valeev,
    F. A. Evangelista, J. M. Turney, T. D. Crawford, and C. D. Sherrill,
    J. Chem. Theory Comput. 13(7) pp 3185--3197 (2017).
    (doi: 10.1021/acs.jctc.7b00174)

    -----------------------------------------------------------------------


    Psi4 started on: Thursday, 20 August 2020 08:11PM

    Process ID: 424222
    PSIDATADIR: /home/irmler/Programs/psi4/beforeGrueneis3/stage/usr/local/psi4/share/psi4
    Memory:     500.0 MiB
    Threads:    4
    
  ==> Input File <==

--------------------------------------------------------------------------
# Any line starting with the # character is a comment line
memory 250000 mb
molecule molecule{
0 2
F          0.0000000000        0.0000000000        0.0000000000
}

set {
  reference uhf
  basis aug-cc-pv(t+d)z
  scf_type OUT_OF_CORE
  freeze_core true
}

energy('ccsd')
--------------------------------------------------------------------------

  Memory set to 232.831 GiB by Python driver.

*** tstart() called on cqc05
*** at Thu Aug 20 20:11:23 2020

   => Loading Basis Set <=

    Name: AUG-CC-PV(T+D)Z
    Role: ORBITAL
    Keyword: BASIS
    atoms 1 entry F          line   393 file /home/irmler/Programs/psi4/beforeGrueneis3/stage/usr/local/psi4/share/psi4/basis/aug-cc-pv_tpd_z.gbs 


         ---------------------------------------------------------
                                   SCF
            by Justin Turney, Rob Parrish, Andy Simmonett
                             and Daniel Smith
                              UHF Reference
                        4 Threads, 238418 MiB Core
         ---------------------------------------------------------

  ==> Geometry <==

    Molecular point group: d2h
    Geometry (in Angstrom), charge = 0, multiplicity = 2:

       Center              X                  Y                   Z               Mass       
    ------------   -----------------  -----------------  -----------------  -----------------
           F          0.000000000000     0.000000000000     0.000000000000    18.998403224000

  Running in d2h symmetry.

  Rotational constants: A = ************  B = ************  C = ************ [cm^-1]
  Rotational constants: A = ************  B = ************  C = ************ [MHz]
  Nuclear repulsion =    0.000000000000000

  Charge       = 0
  Multiplicity = 2
  Electrons    = 9
  Nalpha       = 5
  Nbeta        = 4

  ==> Algorithm <==

  SCF Algorithm Type is OUT_OF_CORE.
  DIIS enabled.
  MOM disabled.
  Fractional occupation disabled.
  Guess Type is GWH.
  Energy threshold   = 1.00e-08
  Density threshold  = 1.00e-08
  Integral threshold = 0.00e+00

  ==> Primary Basis <==

  Basis Set: AUG-CC-PV(T+D)Z
    Blend: AUG-CC-PV(T+D)Z
    Number of shells: 14
    Number of basis function: 46
    Number of Cartesian functions: 55
    Spherical Harmonics?: true
    Max angular momentum: 3

  ==> Pre-Iterations <==

   -------------------------------------------------------
    Irrep   Nso     Nmo     Nalpha   Nbeta   Ndocc  Nsocc
   -------------------------------------------------------
     Ag        11      11       0       0       0       0
     B1g        3       3       0       0       0       0
     B2g        3       3       0       0       0       0
     B3g        3       3       0       0       0       0
     Au         2       2       0       0       0       0
     B1u        8       8       0       0       0       0
     B2u        8       8       0       0       0       0
     B3u        8       8       0       0       0       0
   -------------------------------------------------------
    Total      46      46       5       4       4       1
   -------------------------------------------------------

  ==> Integral Setup <==

  ==> DiskJK: Disk-Based J/K Matrices <==

    J tasked:                  Yes
    K tasked:                  Yes
    wK tasked:                  No
    Memory (MB):            178813
    Schwarz Cutoff:          1E-12

  Minimum eigenvalue in the overlap matrix is 2.8456599490E-02.
  Using Symmetric Orthogonalization.

  SCF Guess: Generalized Wolfsberg-Helmholtz.

  ==> Iterations <==

                        Total Energy        Delta E     RMS |[F,P]|

   @UHF iter   1:   -94.64016151860352   -9.46402e+01   4.12575e-01 
   @UHF iter   2:   -94.52951550064509    1.10646e-01   2.16020e-01 DIIS
   @UHF iter   3:   -98.85496685949978   -4.32545e+00   1.15417e-01 DIIS
   @UHF iter   4:   -99.36697019380397   -5.12003e-01   2.47709e-02 DIIS
   @UHF iter   5:   -99.40678129209689   -3.98111e-02   1.18924e-03 DIIS
   @UHF iter   6:   -99.40687186289563   -9.05708e-05   2.24560e-04 DIIS
   @UHF iter   7:   -99.40687843869564   -6.57580e-06   6.81083e-05 DIIS
   @UHF iter   8:   -99.40687932037611   -8.81680e-07   1.34507e-05 DIIS
   @UHF iter   9:   -99.40687935246436   -3.20883e-08   1.60762e-06 DIIS
   @UHF iter  10:   -99.40687935284033   -3.75977e-10   2.39052e-07 DIIS
   @UHF iter  11:   -99.40687935285288   -1.25482e-11   6.02747e-08 DIIS
   @UHF iter  12:   -99.40687935285315   -2.70006e-13   6.11434e-09 DIIS

  ==> Post-Iterations <==

   @Spin Contamination Metric:   4.134125310E-03
   @S^2 Expected:                7.500000000E-01
   @S^2 Observed:                7.541341253E-01
   @S   Expected:                5.000000000E-01
   @S   Observed:                5.000000000E-01

    Orbital Energies (a.u.)
    -----------------------

    Alpha Occupied:                                                       

       1Ag   -26.411561     2Ag    -1.674493     1B3u   -0.845500  
       1B1u   -0.732072     1B2u   -0.732072  

    Alpha Virtual:                                                        

       2B3u    0.186086     3Ag     0.194557     2B1u    0.196065  
       2B2u    0.196065     4Ag     0.848024     1B2g    0.854541  
       1B1g    0.854541     5Ag     0.874641     1B3g    0.874641  
       3B3u    1.060507     3B2u    1.108875     3B1u    1.108875  
       6Ag     1.594954     7Ag     2.743894     2B1g    2.761301  
       2B2g    2.761301     2B3g    2.816901     8Ag     2.816901  
       4B3u    2.856872     4B2u    2.862385     4B1u    2.862385  
       5B3u    2.879006     1Au     2.879006     5B2u    2.907089  
       5B1u    2.907089     6B3u    5.062740     6B1u    5.148564  
       6B2u    5.148564     7B3u    8.680605     7B1u    8.691203  
       7B2u    8.691203     8B3u    8.723194     2Au     8.723194  
       8B2u    8.777239     8B1u    8.777239     9Ag     9.117234  
       3B1g    9.142964     3B2g    9.142964     3B3g    9.220617  
      10Ag     9.220617    11Ag    10.428491  

    Beta Occupied:                                                        

       1Ag   -26.363540     2Ag    -1.479256     1B2u   -0.680290  
       1B1u   -0.680290  

    Beta Virtual:                                                         

       1B3u    0.035548     2B1u    0.198143     2B2u    0.198143  
       3Ag     0.201843     2B3u    0.244415     4Ag     0.872810  
       1B3g    0.872810     1B2g    0.874905     1B1g    0.874905  
       5Ag     0.876031     3B2u    1.124173     3B1u    1.124173  
       3B3u    1.210800     6Ag     1.639246     2B3g    2.825955  
       7Ag     2.825955     2B1g    2.849157     2B2g    2.849157  
       8Ag     2.857982     4B3u    2.885309     4B2u    2.887627  
       4B1u    2.887627     5B3u    2.894559     1Au     2.894559  
       5B2u    2.906019     5B1u    2.906019     6B1u    5.175345  
       6B2u    5.175345     6B3u    5.239256     7B3u    8.753379  
       7B2u    8.756862     7B1u    8.756862     8B3u    8.767279  
       2Au     8.767279     8B2u    8.784535     8B1u    8.784535  
       3B3g    9.241911     9Ag     9.241911     3B1g    9.253089  
       3B2g    9.253089    10Ag     9.257113    11Ag    10.478270  

    Final Occupation by Irrep:
             Ag   B1g   B2g   B3g    Au   B1u   B2u   B3u 
    DOCC [     2,    0,    0,    0,    0,    1,    1,    0 ]
    SOCC [     0,    0,    0,    0,    0,    0,    0,    1 ]

  Energy converged.

  @UHF Final Energy:   -99.40687935285315

   => Energetics <=

    Nuclear Repulsion Energy =              0.0000000000000000
    One-Electron Energy =                -139.2146851233207485
    Two-Electron Energy =                  39.8078057704675885
    Total Energy =                        -99.4068793528531671


  UHF NO Occupations:
  HONO-2 :    1B2u 1.9996642
  HONO-1 :    2 Ag 1.9986045
  HONO-0 :    1B3u 1.0000000
  LUNO+0 :    3 Ag 0.0013955
  LUNO+1 :    2B2u 0.0003358
  LUNO+2 :    2B1u 0.0003358
  LUNO+3 :    4 Ag 0.0000010



Properties will be evaluated at   0.000000,   0.000000,   0.000000 Bohr

Properties computed using the SCF density matrix

  Nuclear Dipole Moment: (a.u.)
     X:     0.0000      Y:     0.0000      Z:     0.0000

  Electronic Dipole Moment: (a.u.)
     X:     0.0000      Y:     0.0000      Z:     0.0000

  Dipole Moment: (a.u.)
     X:     0.0000      Y:     0.0000      Z:     0.0000     Total:     0.0000

  Dipole Moment: (Debye)
     X:     0.0000      Y:     0.0000      Z:     0.0000     Total:     0.0000


*** tstop() called on cqc05 at Thu Aug 20 20:11:23 2020
Module time:
	user time   =       0.38 seconds =       0.01 minutes
	system time =       0.02 seconds =       0.00 minutes
	total time  =          0 seconds =       0.00 minutes
Total time:
	user time   =       0.38 seconds =       0.01 minutes
	system time =       0.02 seconds =       0.00 minutes
	total time  =          0 seconds =       0.00 minutes

*** tstart() called on cqc05
*** at Thu Aug 20 20:11:23 2020


	Wfn Parameters:
	--------------------
	Wavefunction         = CCSD
	Number of irreps     = 8
	Number of MOs        = 46
	Number of active MOs = 45
	AO-Basis             = NONE
	Semicanonical        = false
	Reference            = UHF
	Print Level          = 1

	IRREP	# MOs	# FZDC	# DOCC	# SOCC	# VIRT	# FZVR
	-----	-----	------	------	------	------	------
	 Ag	   11	    1	    1	    0	    9	    0
	 B1g	   3	    0	    0	    0	    3	    0
	 B2g	   3	    0	    0	    0	    3	    0
	 B3g	   3	    0	    0	    0	    3	    0
	 Au	   2	    0	    0	    0	    2	    0
	 B1u	   8	    0	    1	    0	    7	    0
	 B2u	   8	    0	    1	    0	    7	    0
	 B3u	   8	    0	    0	    1	    7	    0
	Transforming integrals...
	IWL integrals will be deleted.
	(OO|OO)...
	Presorting SO-basis two-electron integrals.
	Sorting File: SO Ints (nn|nn) nbuckets = 1
	Transforming the one-electron integrals and constructing Fock matrices
	Starting AA/AB first half-transformation.
	Sorting AA/AB half-transformed integrals.
	Starting BB first half-transformation.
	Sorting BB half-transformed integrals.
	First half integral transformation complete.
	Starting AA second half-transformation.
	Starting AB second half-transformation.
	Starting BB second half-transformation.
	Two-electron integral transformation complete.
	(OO|OV)...
	Starting AA second half-transformation.
	Starting AB second half-transformation.
	Starting BB second half-transformation.
	Two-electron integral transformation complete.
	(OO|VV)...
	Starting AA second half-transformation.
	Starting AB second half-transformation.
	Starting BB second half-transformation.
	Two-electron integral transformation complete.
	(OV|OO)...
	Starting AA/AB first half-transformation.
	Sorting AA/AB half-transformed integrals.
	Starting BB first half-transformation.
	Sorting BB half-transformed integrals.
	First half integral transformation complete.
	Starting AA second half-transformation.
	Starting AB second half-transformation.
	Starting BB second half-transformation.
	Two-electron integral transformation complete.
	(OV|OV)...
	Starting AA second half-transformation.
	Starting AB second half-transformation.
	Starting BB second half-transformation.
	Two-electron integral transformation complete.
	(OV|VV)...
	Starting AA second half-transformation.
	Starting AB second half-transformation.
	Starting BB second half-transformation.
	Two-electron integral transformation complete.
	(VV|OO)...
	Starting AA/AB first half-transformation.
	Sorting AA/AB half-transformed integrals.
	Starting BB first half-transformation.
	Sorting BB half-transformed integrals.
	First half integral transformation complete.
	Starting AA second half-transformation.
	Starting AB second half-transformation.
	Starting BB second half-transformation.
	Two-electron integral transformation complete.
	(VV|OV)...
	Starting AA second half-transformation.
	Starting AB second half-transformation.
	Starting BB second half-transformation.
	Two-electron integral transformation complete.
	(VV|VV)...
	Starting AA second half-transformation.
	Starting AB second half-transformation.
	Starting BB second half-transformation.
	Two-electron integral transformation complete.
	Frozen core energy     =    -75.47789285568145

	Size of irrep 0 of <AB|CD> integrals:      0.012 (MW) /      0.095 (MB)
	Size of irrep 1 of <AB|CD> integrals:      0.010 (MW) /      0.078 (MB)
	Size of irrep 2 of <AB|CD> integrals:      0.010 (MW) /      0.078 (MB)
	Size of irrep 3 of <AB|CD> integrals:      0.010 (MW) /      0.078 (MB)
	Size of irrep 4 of <AB|CD> integrals:      0.007 (MW) /      0.052 (MB)
	Size of irrep 5 of <AB|CD> integrals:      0.012 (MW) /      0.099 (MB)
	Size of irrep 6 of <AB|CD> integrals:      0.012 (MW) /      0.099 (MB)
	Size of irrep 7 of <AB|CD> integrals:      0.012 (MW) /      0.099 (MB)
	Total:                                     0.085 (MW) /      0.678 (MB)

	Size of irrep 0 of <ab|cd> integrals:      0.013 (MW) /      0.108 (MB)
	Size of irrep 1 of <ab|cd> integrals:      0.011 (MW) /      0.090 (MB)
	Size of irrep 2 of <ab|cd> integrals:      0.011 (MW) /      0.090 (MB)
	Size of irrep 3 of <ab|cd> integrals:      0.010 (MW) /      0.082 (MB)
	Size of irrep 4 of <ab|cd> integrals:      0.007 (MW) /      0.056 (MB)
	Size of irrep 5 of <ab|cd> integrals:      0.013 (MW) /      0.104 (MB)
	Size of irrep 6 of <ab|cd> integrals:      0.013 (MW) /      0.104 (MB)
	Size of irrep 7 of <ab|cd> integrals:      0.014 (MW) /      0.115 (MB)
	Total:                                     0.094 (MW) /      0.749 (MB)

	Size of irrep 0 of <Ab|Cd> integrals:      0.071 (MW) /      0.566 (MB)
	Size of irrep 1 of <Ab|Cd> integrals:      0.042 (MW) /      0.336 (MB)
	Size of irrep 2 of <Ab|Cd> integrals:      0.042 (MW) /      0.336 (MB)
	Size of irrep 3 of <Ab|Cd> integrals:      0.040 (MW) /      0.320 (MB)
	Size of irrep 4 of <Ab|Cd> integrals:      0.027 (MW) /      0.218 (MB)
	Size of irrep 5 of <Ab|Cd> integrals:      0.051 (MW) /      0.405 (MB)
	Size of irrep 6 of <Ab|Cd> integrals:      0.051 (MW) /      0.405 (MB)
	Size of irrep 7 of <Ab|Cd> integrals:      0.053 (MW) /      0.427 (MB)
	Total:                                     0.377 (MW) /      3.013 (MB)

	Size of irrep 0 of <IA|BC> integrals:      0.008 (MW) /      0.062 (MB)
	Size of irrep 1 of <IA|BC> integrals:      0.004 (MW) /      0.030 (MB)
	Size of irrep 2 of <IA|BC> integrals:      0.004 (MW) /      0.030 (MB)
	Size of irrep 3 of <IA|BC> integrals:      0.004 (MW) /      0.030 (MB)
	Size of irrep 4 of <IA|BC> integrals:      0.002 (MW) /      0.014 (MB)
	Size of irrep 5 of <IA|BC> integrals:      0.005 (MW) /      0.039 (MB)
	Size of irrep 6 of <IA|BC> integrals:      0.005 (MW) /      0.039 (MB)
	Size of irrep 7 of <IA|BC> integrals:      0.005 (MW) /      0.039 (MB)
	Total:                                     0.035 (MW) /      0.284 (MB)

	Size of irrep 0 of <ia|bc> integrals:      0.006 (MW) /      0.050 (MB)
	Size of irrep 1 of <ia|bc> integrals:      0.003 (MW) /      0.022 (MB)
	Size of irrep 2 of <ia|bc> integrals:      0.003 (MW) /      0.022 (MB)
	Size of irrep 3 of <ia|bc> integrals:      0.003 (MW) /      0.027 (MB)
	Size of irrep 4 of <ia|bc> integrals:      0.001 (MW) /      0.011 (MB)
	Size of irrep 5 of <ia|bc> integrals:      0.004 (MW) /      0.035 (MB)
	Size of irrep 6 of <ia|bc> integrals:      0.004 (MW) /      0.035 (MB)
	Size of irrep 7 of <ia|bc> integrals:      0.003 (MW) /      0.027 (MB)
	Total:                                     0.029 (MW) /      0.229 (MB)

	Size of irrep 0 of <Ia|Bc> integrals:      0.008 (MW) /      0.066 (MB)
	Size of irrep 1 of <Ia|Bc> integrals:      0.004 (MW) /      0.033 (MB)
	Size of irrep 2 of <Ia|Bc> integrals:      0.004 (MW) /      0.033 (MB)
	Size of irrep 3 of <Ia|Bc> integrals:      0.004 (MW) /      0.030 (MB)
	Size of irrep 4 of <Ia|Bc> integrals:      0.002 (MW) /      0.015 (MB)
	Size of irrep 5 of <Ia|Bc> integrals:      0.005 (MW) /      0.040 (MB)
	Size of irrep 6 of <Ia|Bc> integrals:      0.005 (MW) /      0.040 (MB)
	Size of irrep 7 of <Ia|Bc> integrals:      0.005 (MW) /      0.043 (MB)
	Total:                                     0.037 (MW) /      0.298 (MB)

	Size of irrep 0 of <iA|bC> integrals:      0.006 (MW) /      0.049 (MB)
	Size of irrep 1 of <iA|bC> integrals:      0.002 (MW) /      0.020 (MB)
	Size of irrep 2 of <iA|bC> integrals:      0.002 (MW) /      0.020 (MB)
	Size of irrep 3 of <iA|bC> integrals:      0.003 (MW) /      0.027 (MB)
	Size of irrep 4 of <iA|bC> integrals:      0.001 (MW) /      0.011 (MB)
	Size of irrep 5 of <iA|bC> integrals:      0.004 (MW) /      0.034 (MB)
	Size of irrep 6 of <iA|bC> integrals:      0.004 (MW) /      0.034 (MB)
	Size of irrep 7 of <iA|bC> integrals:      0.003 (MW) /      0.024 (MB)
	Total:                                     0.027 (MW) /      0.218 (MB)

	Size of irrep 0 of tIjAb amplitudes:       0.001 (MW) /      0.006 (MB)
	Size of irrep 1 of tIjAb amplitudes:       0.000 (MW) /      0.002 (MB)
	Size of irrep 2 of tIjAb amplitudes:       0.000 (MW) /      0.002 (MB)
	Size of irrep 3 of tIjAb amplitudes:       0.000 (MW) /      0.003 (MB)
	Size of irrep 4 of tIjAb amplitudes:       0.000 (MW) /      0.000 (MB)
	Size of irrep 5 of tIjAb amplitudes:       0.000 (MW) /      0.004 (MB)
	Size of irrep 6 of tIjAb amplitudes:       0.000 (MW) /      0.004 (MB)
	Size of irrep 7 of tIjAb amplitudes:       0.000 (MW) /      0.002 (MB)
	Total:                                     0.003 (MW) /      0.022 (MB)

	Nuclear Rep. energy          =      0.00000000000000
	SCF energy                   =    -99.40687935285315
	One-electron energy          =    -41.03399984774935
	Two-electron (AA) energy     =      4.51420947930387
	Two-electron (BB) energy     =      2.14926233013275
	Two-electron (AB) energy     =     10.44154154114112
	Two-electron energy          =     17.10501335057775
	Reference energy             =    -99.40687935285305

*** tstop() called on cqc05 at Thu Aug 20 20:11:23 2020
Module time:
	user time   =       0.09 seconds =       0.00 minutes
	system time =       0.08 seconds =       0.00 minutes
	total time  =          0 seconds =       0.00 minutes
Total time:
	user time   =       0.47 seconds =       0.01 minutes
	system time =       0.10 seconds =       0.00 minutes
	total time  =          0 seconds =       0.00 minutes

*** tstart() called on cqc05
*** at Thu Aug 20 20:11:23 2020

            **************************
            *                        *
            *        CCENERGY        *
            *                        *
            **************************

    Nuclear Rep. energy (wfn)     =    0.000000000000000
    SCF energy          (wfn)     =  -99.406879352853153
    Reference energy    (file100) =  -99.406879352853053

    Input parameters:
    -----------------
    Wave function   =     CCSD
    Reference wfn   =     UHF
    Brueckner       =     No
    Memory (Mbytes) =     250000.0
    Maxiter         =     50
    R_Convergence   =     1.0e-07
    E_Convergence   =     1.0e-06
    Restart         =     Yes
    DIIS            =     Yes
    AO Basis        =     NONE
    ABCD            =     NEW
    Cache Level     =     2
    Cache Type      =     LRU
    Print Level     =     1
    Num. of threads =     4
    # Amps to Print =     10
    Print MP2 Amps? =     No
    Analyze T2 Amps =     No
    Print Pair Ener =     No
    Local CC        =     No
    SCS-MP2         =     False
    SCSN-MP2        =     False
    SCS-CCSD        =     False

MP2 correlation energy -0.2052268299065264
                Solving CC Amplitude Equations
                ------------------------------
  Iter             Energy              RMS        T1Diag      D1Diag    New D1Diag    D2Diag
  ----     ---------------------    ---------   ----------  ----------  ----------   --------
     0        -0.205226829906526    0.000e+00    0.000000    0.000000    0.000000    0.000000
     1        -0.213011995270116    3.029e-02    0.008707    0.000000    0.000000    0.000000
     2        -0.215932419839366    8.457e-03    0.009435    0.000000    0.000000    0.000000
     3        -0.216616698129147    4.290e-03    0.010686    0.000000    0.000000    0.000000
     4        -0.216548890731141    1.471e-03    0.010887    0.000000    0.000000    0.000000
     5        -0.216562767693074    5.519e-04    0.010896    0.000000    0.000000    0.000000
     6        -0.216574224599512    1.579e-04    0.010880    0.000000    0.000000    0.000000
     7        -0.216573082655780    4.359e-05    0.010873    0.000000    0.000000    0.000000
     8        -0.216573158842367    1.181e-05    0.010874    0.000000    0.000000    0.000000
     9        -0.216573042301136    3.636e-06    0.010875    0.000000    0.000000    0.000000
    10        -0.216573076796844    1.040e-06    0.010875    0.000000    0.000000    0.000000
    11        -0.216573085501711    2.361e-07    0.010875    0.000000    0.000000    0.000000
    12        -0.216573088147208    6.558e-08    0.010875    0.000000    0.000000    0.000000
    12        -0.216573088147208    6.558e-08    0.010875    0.000000    0.000000    0.000000

    Iterations converged.


    CCSD corr. energy   =   -0.216573088147208
    PPL corr. energy    =    0.035064323446595
    OS PPL corr. energy =    0.028803202555691
    SS PPL corr. energy =    0.006261120890904
    Largest TIA Amplitudes:
              3  34        -0.0107158401
              1  20        -0.0106760948
              2  27        -0.0106760948
              3  35        -0.0058824193
              0   0         0.0057405975
              1  21        -0.0051910956
              2  28        -0.0051910956
              1  24         0.0034178844
              2  31         0.0034178844
              3  38         0.0032063964

    Largest Tia Amplitudes:
              1  20        -0.0098468569
              2  27        -0.0098468569
              0   5         0.0054066230
              0   2        -0.0045154051
              1  24         0.0042847217
              2  31         0.0042847217
              0   0         0.0030446400
              1  21        -0.0029287353
              2  28        -0.0029287353
              0   8        -0.0016718154

    Largest TIJAB Amplitudes:
      2   1  28  21        -0.0207760284
      3   2  35  28        -0.0206061345
      3   1  35  21        -0.0206061345
      2   1  16   5        -0.0150107379
      3   2  10   4         0.0125341208
      3   1  13   4         0.0125341208
      1   0  21   3        -0.0111977308
      2   0  28   3        -0.0111977308
      2   1  27  21        -0.0110820187
      2   1  28  20        -0.0110820187

    Largest Tijab Amplitudes:
      2   1  28  21        -0.0213797515
      2   1  16   4        -0.0148008373
      2   1  27  21        -0.0120705695
      2   1  28  20        -0.0120705695
      2   1  15   1        -0.0116065828
      1   0  21   3        -0.0109312354
      2   0  28   3        -0.0109312354
      1   0  34  13         0.0105506742
      2   0  34  10         0.0105506742
      1   0  34  12         0.0104901686

    Largest TIjAb Amplitudes:
      1   1  21  21        -0.0406497284
      2   2  28  28        -0.0406497284
      1   2  21  28        -0.0281322547
      2   1  28  21        -0.0281322547
      3   2  35  28        -0.0274652613
      3   1  35  21        -0.0274652613
      3   0   4  34        -0.0261931032
      1   0  13  34        -0.0227356003
      2   0  10  34        -0.0227356003
      0   1   3  21        -0.0220984406

    SCF energy       (wfn)                    =  -99.406879352853153
    Reference energy (file100)                =  -99.406879352853053

    Opposite-spin MP2 correlation energy      =   -0.155549471479096
    Same-spin MP2 correlation energy          =   -0.049677358427430
    MP2 correlation energy                    =   -0.205226829906526
      * MP2 total energy                      =  -99.612106182759575

    Opposite-spin CCSD correlation energy     =   -0.168853796925666
    Same-spin CCSD correlation energy         =   -0.047719291244746
    CCSD correlation energy                   =   -0.216573088147208
      * CCSD total energy                     =  -99.623452441000268


*** tstop() called on cqc05 at Thu Aug 20 20:11:24 2020
Module time:
	user time   =       0.24 seconds =       0.00 minutes
	system time =       0.16 seconds =       0.00 minutes
	total time  =          1 seconds =       0.02 minutes
Total time:
	user time   =       0.71 seconds =       0.01 minutes
	system time =       0.26 seconds =       0.00 minutes
	total time  =          1 seconds =       0.02 minutes

*** Psi4 exiting successfully. Buy a developer a beer!
