
    -----------------------------------------------------------------------
          Psi4: An Open-Source Ab Initio Electronic Structure Package
                               Psi4 1.2a1.dev938 

                         Git: Rev {HEAD} fc51d9a dirty


    R. M. Parrish, L. A. Burns, D. G. A. Smith, A. C. Simmonett,
    A. E. DePrince III, E. G. Hohenstein, U. Bozkaya, A. Yu. Sokolov,
    R. Di Remigio, R. M. Richard, J. F. Gonthier, A. M. James,
    H. R. McAlexander, A. Kumar, M. Saitow, X. Wang, B. P. Pritchard,
    P. Verma, H. F. Schaefer III, K. Patkowski, R. A. King, E. F. Valeev,
    F. A. Evangelista, J. M. Turney, T. D. Crawford, and C. D. Sherrill,
    J. Chem. Theory Comput. 13(7) pp 3185--3197 (2017).
    (doi: 10.1021/acs.jctc.7b00174)

    -----------------------------------------------------------------------


    Psi4 started on: Friday, 21 August 2020 06:51AM

    Process ID: 428187
    PSIDATADIR: /home/irmler/Programs/psi4/beforeGrueneis3/stage/usr/local/psi4/share/psi4
    Memory:     500.0 MiB
    Threads:    4
    
  ==> Input File <==

--------------------------------------------------------------------------
# Any line starting with the # character is a comment line
memory 250000 mb
molecule molecule{
0 2
F          0.0000000000        0.0000000000        0.0000000000
}

set {
  reference uhf
  basis aug-cc-pv(5+d)z
  scf_type OUT_OF_CORE
  freeze_core true
}

energy('ccsd')
--------------------------------------------------------------------------

  Memory set to 232.831 GiB by Python driver.

*** tstart() called on cqc05
*** at Fri Aug 21 06:51:26 2020

   => Loading Basis Set <=

    Name: AUG-CC-PV(5+D)Z
    Role: ORBITAL
    Keyword: BASIS
    atoms 1 entry F          line   454 file /home/irmler/Programs/psi4/beforeGrueneis3/stage/usr/local/psi4/share/psi4/basis/aug-cc-pv_5pd_z.gbs 


         ---------------------------------------------------------
                                   SCF
            by Justin Turney, Rob Parrish, Andy Simmonett
                             and Daniel Smith
                              UHF Reference
                        4 Threads, 238418 MiB Core
         ---------------------------------------------------------

  ==> Geometry <==

    Molecular point group: d2h
    Geometry (in Angstrom), charge = 0, multiplicity = 2:

       Center              X                  Y                   Z               Mass       
    ------------   -----------------  -----------------  -----------------  -----------------
           F          0.000000000000     0.000000000000     0.000000000000    18.998403224000

  Running in d2h symmetry.

  Rotational constants: A = ************  B = ************  C = ************ [cm^-1]
  Rotational constants: A = ************  B = ************  C = ************ [MHz]
  Nuclear repulsion =    0.000000000000000

  Charge       = 0
  Multiplicity = 2
  Electrons    = 9
  Nalpha       = 5
  Nbeta        = 4

  ==> Algorithm <==

  SCF Algorithm Type is OUT_OF_CORE.
  DIIS enabled.
  MOM disabled.
  Fractional occupation disabled.
  Guess Type is GWH.
  Energy threshold   = 1.00e-08
  Density threshold  = 1.00e-08
  Integral threshold = 0.00e+00

  ==> Primary Basis <==

  Basis Set: AUG-CC-PV(5+D)Z
    Blend: AUG-CC-PV(5+D)Z
    Number of shells: 27
    Number of basis function: 127
    Number of Cartesian functions: 182
    Spherical Harmonics?: true
    Max angular momentum: 5

  ==> Pre-Iterations <==

   -------------------------------------------------------
    Irrep   Nso     Nmo     Nalpha   Nbeta   Ndocc  Nsocc
   -------------------------------------------------------
     Ag        26      26       0       0       0       0
     B1g       11      11       0       0       0       0
     B2g       11      11       0       0       0       0
     B3g       11      11       0       0       0       0
     Au         8       8       0       0       0       0
     B1u       20      20       0       0       0       0
     B2u       20      20       0       0       0       0
     B3u       20      20       0       0       0       0
   -------------------------------------------------------
    Total     127     127       5       4       4       1
   -------------------------------------------------------

  ==> Integral Setup <==

  ==> DiskJK: Disk-Based J/K Matrices <==

    J tasked:                  Yes
    K tasked:                  Yes
    wK tasked:                  No
    Memory (MB):            178813
    Schwarz Cutoff:          1E-12

  Minimum eigenvalue in the overlap matrix is 1.6434294920E-03.
  Using Symmetric Orthogonalization.

  SCF Guess: Generalized Wolfsberg-Helmholtz.

  ==> Iterations <==

                        Total Energy        Delta E     RMS |[F,P]|

   @UHF iter   1:   -93.01887208459394   -9.30189e+01   2.55241e-01 
   @UHF iter   2:   -90.73538180447780    2.28349e+00   8.35054e-02 DIIS
   @UHF iter   3:   -97.75606756457577   -7.02069e+00   7.98937e-02 DIIS
   @UHF iter   4:   -99.04328943488541   -1.28722e+00   3.36161e-02 DIIS
   @UHF iter   5:   -99.40650710000571   -3.63218e-01   4.45747e-03 DIIS
   @UHF iter   6:   -99.41601548066670   -9.50838e-03   2.85172e-04 DIIS
   @UHF iter   7:   -99.41608374454654   -6.82639e-05   6.13720e-05 DIIS
   @UHF iter   8:   -99.41608703449013   -3.28994e-06   2.07408e-05 DIIS
   @UHF iter   9:   -99.41608753077709   -4.96287e-07   4.01430e-06 DIIS
   @UHF iter  10:   -99.41608754265054   -1.18735e-08   5.57753e-07 DIIS
   @UHF iter  11:   -99.41608754294367   -2.93127e-10   1.11676e-07 DIIS
   @UHF iter  12:   -99.41608754295180   -8.12861e-12   1.14894e-08 DIIS
   @UHF iter  13:   -99.41608754295190   -9.94760e-14   5.05029e-10 DIIS

  ==> Post-Iterations <==

   @Spin Contamination Metric:   4.212737685E-03
   @S^2 Expected:                7.500000000E-01
   @S^2 Observed:                7.542127377E-01
   @S   Expected:                5.000000000E-01
   @S   Observed:                5.000000000E-01

    Orbital Energies (a.u.)
    -----------------------

    Alpha Occupied:                                                       

       1Ag   -26.406714     2Ag    -1.672445     1B3u   -0.845367  
       1B2u   -0.731612     1B1u   -0.731612  

    Alpha Virtual:                                                        

       2B3u    0.126855     2B1u    0.132453     2B2u    0.132453  
       3Ag     0.150766     4Ag     0.515526     1B2g    0.518685  
       1B1g    0.518685     1B3g    0.528538     5Ag     0.528538  
       3B3u    0.569142     3B1u    0.593094     3B2u    0.593094  
       6Ag     0.910485     4B3u    1.327844     4B2u    1.330116  
       4B1u    1.330116     5B3u    1.336957     1Au     1.336957  
       5B1u    1.348515     5B2u    1.348515     7Ag     1.592735  
       2B2g    1.603220     2B1g    1.603220     2B3g    1.636781  
       8Ag     1.636781     6B3u    1.938382     6B1u    1.994017  
       6B2u    1.994017     9Ag     3.306606     3B2g    3.308872  
       3B1g    3.308872    10Ag     3.315697     3B3g    3.315697  
       4B1g    3.327178     4B2g    3.327178     4B3g    3.343492  
      11Ag     3.343492    12Ag     3.586035     7B3u    3.814993  
       7B2u    3.821128     7B1u    3.821128     2Au     3.839631  
       8B3u    3.839631     8B2u    3.870895     8B1u    3.870895  
      13Ag     4.133016     5B1g    4.151982     5B2g    4.151982  
      14Ag     4.211934     5B3g    4.211934     9B3u    5.856895  
       9B1u    5.940879     9B2u    5.940879    10B3u    7.930602  
      10B1u    7.933062    10B2u    7.933062    11B3u    7.940456  
       3Au     7.940456    11B2u    7.952825    11B1u    7.952825  
      12B3u    7.970238     4Au     7.970238    12B2u    7.992794  
      12B1u    7.992794    15Ag     8.924677     6B1g    8.929553  
       6B2g    8.929553     6B3g    8.944225    16Ag     8.944225  
       7B1g    8.968838     7B2g    8.968838     7B3g    9.003661  
      17Ag     9.003661    13B3u    9.760981    13B1u    9.771435  
      13B2u    9.771435    14B3u    9.802960     5Au     9.802960  
      14B1u    9.856109    14B2u    9.856109    18Ag    10.735233  
       8B2g   10.759124     8B1g   10.759124     8B3g   10.832862  
      19Ag    10.832862    20Ag    12.775298    15B3u   19.140256  
      15B2u   19.220318    15B1u   19.220318    16B3u   20.816689  
      16B1u   20.820840    16B2u   20.820840    17B3u   20.833311  
       6Au    20.833311    17B1u   20.854154    17B2u   20.854154  
       7Au    20.883455    18B3u   20.883455    18B2u   20.921340  
      18B1u   20.921340    21Ag    24.384242     9B1g   24.391308  
       9B2g   24.391308     9B3g   24.412544    22Ag    24.412544  
      10B2g   24.448071    10B1g   24.448071    10B3g   24.498095  
      23Ag    24.498095    19B3u   25.483650    19B1u   25.495576  
      19B2u   25.495576     8Au    25.531469    20B3u   25.531469  
      20B2u   25.591706    20B1u   25.591706    24Ag    28.705083  
      11B2g   28.727608    11B1g   28.727608    11B3g   28.796124  
      25Ag    28.796124    26Ag    76.577944  

    Beta Occupied:                                                        

       1Ag   -26.358841     2Ag    -1.476924     1B2u   -0.679855  
       1B1u   -0.679855  

    Beta Virtual:                                                         

       1B3u    0.033929     2B1u    0.133397     2B2u    0.133397  
       3Ag     0.155448     2B3u    0.164551     4Ag     0.523944  
       1B2g    0.524644     1B1g    0.524644     5Ag     0.527284  
       1B3g    0.527284     3B1u    0.599667     3B2u    0.599667  
       3B3u    0.658161     6Ag     0.933566     4B3u    1.333711  
       4B2u    1.335218     4B1u    1.335218     5B3u    1.339754  
       1Au     1.339754     5B1u    1.347336     5B2u    1.347336  
       2B3g    1.637960     7Ag     1.637960     2B2g    1.648916  
       2B1g    1.648916     8Ag     1.653362     6B1u    2.009837  
       6B2u    2.009837     6B3u    2.069603     9Ag     3.315304  
       3B2g    3.316982     3B1g    3.316982     3B3g    3.322020  
      10Ag     3.322020     4B1g    3.330436     4B2g    3.330436  
       4B3g    3.342237    11Ag     3.342237    12Ag     3.631268  
       7B3u    3.848345     7B2u    3.850891     7B1u    3.850891  
       2Au     3.858510     8B3u    3.858510     8B2u    3.871128  
       8B1u    3.871128    13Ag     4.224489     5B3g    4.224489  
       5B2g    4.240704     5B1g    4.240704    14Ag     4.247216  
       9B1u    5.963102     9B2u    5.963102     9B3u    5.989751  
      10B3u    7.944706    10B2u    7.946583    10B1u    7.946583  
      11B3u    7.952218     3Au     7.952218    11B2u    7.961629  
      11B1u    7.961629    12B3u    7.974842     4Au     7.974842  
      12B2u    7.991897    12B1u    7.991897    15Ag     8.956060  
       6B1g    8.959096     6B2g    8.959096     6B3g    8.968207  
      16Ag     8.968207     7B1g    8.983403     7B2g    8.983403  
       7B3g    9.004688    17Ag     9.004688    13B3u    9.826878  
      13B1u    9.830914    13B2u    9.830914    14B3u    9.843009  
       5Au     9.843009    14B1u    9.863132    14B2u    9.863132  
      18Ag    10.844325     8B2g   10.845763     8B1g   10.845763  
       8B3g   10.850496    19Ag    10.850496    20Ag    12.821752  
      15B3u   19.233957    15B1u   19.239115    15B2u   19.239115  
      16B3u   20.848293    16B2u   20.851284    16B1u   20.851284  
      17B3u   20.860265     6Au    20.860265    17B2u   20.875261  
      17B1u   20.875261     7Au    20.896312    18B3u   20.896312  
      18B2u   20.923475    18B1u   20.923475    21Ag    24.434608  
       9B1g   24.438940     9B2g   24.438940     9B3g   24.451946  
      22Ag    24.451946    10B1g   24.473658    10B2g   24.473658  
      10B3g   24.504126    23Ag    24.504126    19B3u   25.549965  
      19B1u   25.555738    19B2u   25.555738     8Au    25.573082  
      20B3u   25.573082    20B2u   25.602070    20B1u   25.602070  
      24Ag    28.776798    11B2g   28.784933    11B1g   28.784933  
      11B3g   28.809591    25Ag    28.809591    26Ag    76.596974  

    Final Occupation by Irrep:
             Ag   B1g   B2g   B3g    Au   B1u   B2u   B3u 
    DOCC [     2,    0,    0,    0,    0,    1,    1,    0 ]
    SOCC [     0,    0,    0,    0,    0,    0,    0,    1 ]

  Energy converged.

  @UHF Final Energy:   -99.41608754295190

   => Energetics <=

    Nuclear Repulsion Energy =              0.0000000000000000
    One-Electron Energy =                -139.2489496901000905
    Two-Electron Energy =                  39.8328621471481767
    PCM Polarization Energy =               0.0000000000000000
    Total Energy =                        -99.4160875429519137

    Alert: EFP and PCM quantities not currently incorporated into SCF psivars.
  UHF NO Occupations:
  HONO-2 :    1B2u 1.9996554
  HONO-1 :    2 Ag 1.9985828
  HONO-0 :    1B3u 1.0000000
  LUNO+0 :    3 Ag 0.0014172
  LUNO+1 :    2B2u 0.0003446
  LUNO+2 :    2B1u 0.0003446
  LUNO+3 :    4 Ag 0.0000012



Properties will be evaluated at   0.000000,   0.000000,   0.000000 Bohr

Properties computed using the SCF density matrix

  Nuclear Dipole Moment: (a.u.)
     X:     0.0000      Y:     0.0000      Z:     0.0000

  Electronic Dipole Moment: (a.u.)
     X:     0.0000      Y:     0.0000      Z:     0.0000

  Dipole Moment: (a.u.)
     X:     0.0000      Y:     0.0000      Z:     0.0000     Total:     0.0000

  Dipole Moment: (Debye)
     X:     0.0000      Y:     0.0000      Z:     0.0000     Total:     0.0000


*** tstop() called on cqc05 at Fri Aug 21 06:51:32 2020
Module time:
	user time   =       6.37 seconds =       0.11 minutes
	system time =       0.22 seconds =       0.00 minutes
	total time  =          6 seconds =       0.10 minutes
Total time:
	user time   =       6.37 seconds =       0.11 minutes
	system time =       0.22 seconds =       0.00 minutes
	total time  =          6 seconds =       0.10 minutes

*** tstart() called on cqc05
*** at Fri Aug 21 06:51:32 2020


	Wfn Parameters:
	--------------------
	Wavefunction         = CCSD
	Number of irreps     = 8
	Number of MOs        = 127
	Number of active MOs = 126
	AO-Basis             = NONE
	Semicanonical        = false
	Reference            = UHF
	Print Level          = 1

	IRREP	# MOs	# FZDC	# DOCC	# SOCC	# VIRT	# FZVR
	-----	-----	------	------	------	------	------
	 Ag	   26	    1	    1	    0	    24	    0
	 B1g	   11	    0	    0	    0	    11	    0
	 B2g	   11	    0	    0	    0	    11	    0
	 B3g	   11	    0	    0	    0	    11	    0
	 Au	   8	    0	    0	    0	    8	    0
	 B1u	   20	    0	    1	    0	    19	    0
	 B2u	   20	    0	    1	    0	    19	    0
	 B3u	   20	    0	    0	    1	    19	    0
	Transforming integrals...
	IWL integrals will be deleted.
	(OO|OO)...
	Presorting SO-basis two-electron integrals.
	Sorting File: SO Ints (nn|nn) nbuckets = 1
	Transforming the one-electron integrals and constructing Fock matrices
	Starting AA/AB first half-transformation.
	Sorting AA/AB half-transformed integrals.
	Starting BB first half-transformation.
	Sorting BB half-transformed integrals.
	First half integral transformation complete.
	Starting AA second half-transformation.
	Starting AB second half-transformation.
	Starting BB second half-transformation.
	Two-electron integral transformation complete.
	(OO|OV)...
	Starting AA second half-transformation.
	Starting AB second half-transformation.
	Starting BB second half-transformation.
	Two-electron integral transformation complete.
	(OO|VV)...
	Starting AA second half-transformation.
	Starting AB second half-transformation.
	Starting BB second half-transformation.
	Two-electron integral transformation complete.
	(OV|OO)...
	Starting AA/AB first half-transformation.
	Sorting AA/AB half-transformed integrals.
	Starting BB first half-transformation.
	Sorting BB half-transformed integrals.
	First half integral transformation complete.
	Starting AA second half-transformation.
	Starting AB second half-transformation.
	Starting BB second half-transformation.
	Two-electron integral transformation complete.
	(OV|OV)...
	Starting AA second half-transformation.
	Starting AB second half-transformation.
	Starting BB second half-transformation.
	Two-electron integral transformation complete.
	(OV|VV)...
	Starting AA second half-transformation.
	Starting AB second half-transformation.
	Starting BB second half-transformation.
	Two-electron integral transformation complete.
	(VV|OO)...
	Starting AA/AB first half-transformation.
	Sorting AA/AB half-transformed integrals.
	Starting BB first half-transformation.
	Sorting BB half-transformed integrals.
	First half integral transformation complete.
	Starting AA second half-transformation.
	Starting AB second half-transformation.
	Starting BB second half-transformation.
	Two-electron integral transformation complete.
	(VV|OV)...
	Starting AA second half-transformation.
	Starting AB second half-transformation.
	Starting BB second half-transformation.
	Two-electron integral transformation complete.
	(VV|VV)...
	Starting AA second half-transformation.
	Starting AB second half-transformation.
	Starting BB second half-transformation.
	Two-electron integral transformation complete.
	Frozen core energy     =    -75.47955345936403

	Size of irrep 0 of <AB|CD> integrals:      0.964 (MW) /      7.715 (MB)
	Size of irrep 1 of <AB|CD> integrals:      0.806 (MW) /      6.451 (MB)
	Size of irrep 2 of <AB|CD> integrals:      0.806 (MW) /      6.451 (MB)
	Size of irrep 3 of <AB|CD> integrals:      0.806 (MW) /      6.451 (MB)
	Size of irrep 4 of <AB|CD> integrals:      0.671 (MW) /      5.366 (MB)
	Size of irrep 5 of <AB|CD> integrals:      0.925 (MW) /      7.404 (MB)
	Size of irrep 6 of <AB|CD> integrals:      0.925 (MW) /      7.404 (MB)
	Size of irrep 7 of <AB|CD> integrals:      0.925 (MW) /      7.404 (MB)
	Total:                                     6.831 (MW) /     54.645 (MB)

	Size of irrep 0 of <ab|cd> integrals:      1.002 (MW) /      8.016 (MB)
	Size of irrep 1 of <ab|cd> integrals:      0.841 (MW) /      6.727 (MB)
	Size of irrep 2 of <ab|cd> integrals:      0.841 (MW) /      6.727 (MB)
	Size of irrep 3 of <ab|cd> integrals:      0.821 (MW) /      6.567 (MB)
	Size of irrep 4 of <ab|cd> integrals:      0.689 (MW) /      5.511 (MB)
	Size of irrep 5 of <ab|cd> integrals:      0.947 (MW) /      7.574 (MB)
	Size of irrep 6 of <ab|cd> integrals:      0.947 (MW) /      7.574 (MB)
	Size of irrep 7 of <ab|cd> integrals:      0.972 (MW) /      7.778 (MB)
	Total:                                     7.059 (MW) /     56.473 (MB)

	Size of irrep 0 of <Ab|Cd> integrals:      4.431 (MW) /     35.448 (MB)
	Size of irrep 1 of <Ab|Cd> integrals:      3.294 (MW) /     26.354 (MB)
	Size of irrep 2 of <Ab|Cd> integrals:      3.294 (MW) /     26.354 (MB)
	Size of irrep 3 of <Ab|Cd> integrals:      3.254 (MW) /     26.035 (MB)
	Size of irrep 4 of <Ab|Cd> integrals:      2.719 (MW) /     21.754 (MB)
	Size of irrep 5 of <Ab|Cd> integrals:      3.744 (MW) /     29.954 (MB)
	Size of irrep 6 of <Ab|Cd> integrals:      3.744 (MW) /     29.954 (MB)
	Size of irrep 7 of <Ab|Cd> integrals:      3.795 (MW) /     30.358 (MB)
	Total:                                    28.276 (MW) /    226.210 (MB)

	Size of irrep 0 of <IA|BC> integrals:      0.169 (MW) /      1.352 (MB)
	Size of irrep 1 of <IA|BC> integrals:      0.102 (MW) /      0.819 (MB)
	Size of irrep 2 of <IA|BC> integrals:      0.102 (MW) /      0.819 (MB)
	Size of irrep 3 of <IA|BC> integrals:      0.102 (MW) /      0.819 (MB)
	Size of irrep 4 of <IA|BC> integrals:      0.067 (MW) /      0.537 (MB)
	Size of irrep 5 of <IA|BC> integrals:      0.125 (MW) /      1.000 (MB)
	Size of irrep 6 of <IA|BC> integrals:      0.125 (MW) /      1.000 (MB)
	Size of irrep 7 of <IA|BC> integrals:      0.125 (MW) /      1.000 (MB)
	Total:                                     0.918 (MW) /      7.347 (MB)

	Size of irrep 0 of <ia|bc> integrals:      0.132 (MW) /      1.054 (MB)
	Size of irrep 1 of <ia|bc> integrals:      0.072 (MW) /      0.572 (MB)
	Size of irrep 2 of <ia|bc> integrals:      0.072 (MW) /      0.572 (MB)
	Size of irrep 3 of <ia|bc> integrals:      0.089 (MW) /      0.710 (MB)
	Size of irrep 4 of <ia|bc> integrals:      0.050 (MW) /      0.398 (MB)
	Size of irrep 5 of <ia|bc> integrals:      0.105 (MW) /      0.841 (MB)
	Size of irrep 6 of <ia|bc> integrals:      0.105 (MW) /      0.841 (MB)
	Size of irrep 7 of <ia|bc> integrals:      0.083 (MW) /      0.663 (MB)
	Total:                                     0.706 (MW) /      5.651 (MB)

	Size of irrep 0 of <Ia|Bc> integrals:      0.173 (MW) /      1.381 (MB)
	Size of irrep 1 of <Ia|Bc> integrals:      0.105 (MW) /      0.842 (MB)
	Size of irrep 2 of <Ia|Bc> integrals:      0.105 (MW) /      0.842 (MB)
	Size of irrep 3 of <Ia|Bc> integrals:      0.103 (MW) /      0.823 (MB)
	Size of irrep 4 of <Ia|Bc> integrals:      0.068 (MW) /      0.541 (MB)
	Size of irrep 5 of <Ia|Bc> integrals:      0.126 (MW) /      1.006 (MB)
	Size of irrep 6 of <Ia|Bc> integrals:      0.126 (MW) /      1.006 (MB)
	Size of irrep 7 of <Ia|Bc> integrals:      0.129 (MW) /      1.029 (MB)
	Total:                                     0.934 (MW) /      7.470 (MB)

	Size of irrep 0 of <iA|bC> integrals:      0.131 (MW) /      1.044 (MB)
	Size of irrep 1 of <iA|bC> integrals:      0.069 (MW) /      0.552 (MB)
	Size of irrep 2 of <iA|bC> integrals:      0.069 (MW) /      0.552 (MB)
	Size of irrep 3 of <iA|bC> integrals:      0.088 (MW) /      0.707 (MB)
	Size of irrep 4 of <iA|bC> integrals:      0.049 (MW) /      0.396 (MB)
	Size of irrep 5 of <iA|bC> integrals:      0.104 (MW) /      0.836 (MB)
	Size of irrep 6 of <iA|bC> integrals:      0.104 (MW) /      0.836 (MB)
	Size of irrep 7 of <iA|bC> integrals:      0.080 (MW) /      0.639 (MB)
	Total:                                     0.695 (MW) /      5.561 (MB)

	Size of irrep 0 of tIjAb amplitudes:       0.006 (MW) /      0.051 (MB)
	Size of irrep 1 of tIjAb amplitudes:       0.002 (MW) /      0.015 (MB)
	Size of irrep 2 of tIjAb amplitudes:       0.002 (MW) /      0.015 (MB)
	Size of irrep 3 of tIjAb amplitudes:       0.004 (MW) /      0.029 (MB)
	Size of irrep 4 of tIjAb amplitudes:       0.000 (MW) /      0.000 (MB)
	Size of irrep 5 of tIjAb amplitudes:       0.004 (MW) /      0.031 (MB)
	Size of irrep 6 of tIjAb amplitudes:       0.004 (MW) /      0.031 (MB)
	Size of irrep 7 of tIjAb amplitudes:       0.002 (MW) /      0.016 (MB)
	Total:                                     0.023 (MW) /      0.186 (MB)

	Nuclear Rep. energy          =      0.00000000000000
	SCF energy                   =    -99.41608754295190
	One-electron energy          =    -41.05539762822334
	Two-electron (AA) energy     =      4.51843848616766
	Two-electron (BB) energy     =      2.15079111888092
	Two-electron (AB) energy     =     10.44963393958699
	Two-electron energy          =     17.11886354463557
	Reference energy             =    -99.41608754295180

*** tstop() called on cqc05 at Fri Aug 21 06:51:36 2020
Module time:
	user time   =       2.46 seconds =       0.04 minutes
	system time =       1.37 seconds =       0.02 minutes
	total time  =          4 seconds =       0.07 minutes
Total time:
	user time   =       8.83 seconds =       0.15 minutes
	system time =       1.59 seconds =       0.03 minutes
	total time  =         10 seconds =       0.17 minutes

*** tstart() called on cqc05
*** at Fri Aug 21 06:51:36 2020

            **************************
            *                        *
            *        CCENERGY        *
            *                        *
            **************************

    Nuclear Rep. energy (wfn)     =    0.000000000000000
    SCF energy          (wfn)     =  -99.416087542951900
    Reference energy    (file100) =  -99.416087542951800

    Input parameters:
    -----------------
    Wave function   =     CCSD
    Reference wfn   =     UHF
    Brueckner       =     No
    Memory (Mbytes) =     250000.0
    Maxiter         =     50
    R_Convergence   =     1.0e-07
    E_Convergence   =     1.0e-06
    Restart         =     Yes
    DIIS            =     Yes
    AO Basis        =     NONE
    ABCD            =     NEW
    Cache Level     =     2
    Cache Type      =     LRU
    Print Level     =     1
    Num. of threads =     4
    # Amps to Print =     10
    Print MP2 Amps? =     No
    Analyze T2 Amps =     No
    Print Pair Ener =     No
    Local CC        =     No
    SCS-MP2         =     False
    SCSN-MP2        =     False
    SCS-CCSD        =     False

MP2 correlation energy -0.2319640059798857
                Solving CC Amplitude Equations
                ------------------------------
  Iter             Energy              RMS        T1Diag      D1Diag    New D1Diag    D2Diag
  ----     ---------------------    ---------   ----------  ----------  ----------   --------
     0        -0.231964005979886    0.000e+00    0.000000    0.000000    0.000000    0.000000
     1        -0.236984456399678    2.774e-02    0.007588    0.000000    0.000000    0.000000
     2        -0.239816546850872    8.172e-03    0.008255    0.000000    0.000000    0.000000
     3        -0.240467546484275    4.066e-03    0.009426    0.000000    0.000000    0.000000
     4        -0.240380701108656    1.372e-03    0.009587    0.000000    0.000000    0.000000
     5        -0.240392333183928    5.635e-04    0.009608    0.000000    0.000000    0.000000
     6        -0.240406100002090    1.651e-04    0.009592    0.000000    0.000000    0.000000
     7        -0.240405342064140    4.896e-05    0.009585    0.000000    0.000000    0.000000
     8        -0.240405320892077    1.578e-05    0.009585    0.000000    0.000000    0.000000
     9        -0.240405243059495    4.837e-06    0.009586    0.000000    0.000000    0.000000
    10        -0.240405194562557    1.545e-06    0.009586    0.000000    0.000000    0.000000
    11        -0.240405239067073    3.973e-07    0.009586    0.000000    0.000000    0.000000
    12        -0.240405246403412    9.202e-08    0.009586    0.000000    0.000000    0.000000
    12        -0.240405246403412    9.202e-08    0.009586    0.000000    0.000000    0.000000

    Iterations converged.


    CCSD corr. energy   =   -0.240405246403412
    PPL corr. energy    =    0.042233102304686
    OS PPL corr. energy =    0.035383505057014
    SS PPL corr. energy =    0.006849597247672
    Largest TIA Amplitudes:
              3 104        -0.0085563658
              3 103        -0.0075449703
              1  66        -0.0073926895
              2  85        -0.0073926895
              1  65        -0.0070940816
              2  84        -0.0070940816
              0   0         0.0043969107
              0   3        -0.0033670718
              1  72         0.0028089577
              2  91         0.0028089577

    Largest Tia Amplitudes:
              1  65        -0.0061634877
              2  84        -0.0061634877
              0   5         0.0054898428
              1  66        -0.0051531306
              2  85        -0.0051531306
              0  11        -0.0038473448
              1  72         0.0034313731
              2  91         0.0034313731
              0   1        -0.0027975990
              1  69         0.0026704304

    Largest TIJAB Amplitudes:
      2   1  85  66        -0.0142962342
      3   2 104  85        -0.0137259971
      3   1 104  66        -0.0137259971
      2   1  47   5        -0.0136068539
      3   2 107  88        -0.0133535807
      3   1 107  69        -0.0133535807
      2   1  88  69        -0.0131534033
      3   2 107  85        -0.0122876921
      3   1 107  66        -0.0122876921
      2   1  85  69        -0.0120653086

    Largest Tijab Amplitudes:
      2   1  85  66        -0.0154830534
      2   1  47   4        -0.0138773045
      2   1  88  69        -0.0129979242
      2   1  85  69        -0.0123424932
      2   1  88  66        -0.0123424932
      1   0 103  36        -0.0108286982
      2   0 103  25        -0.0108286982
      2   1  50  10        -0.0096212273
      2   1  47  10         0.0090063183
      2   1  50   4         0.0090063183

    Largest TIjAb Amplitudes:
      1   1  66  66        -0.0267388198
      2   2  85  85        -0.0267388198
      1   1  69  69        -0.0263118819
      2   2  88  88        -0.0263118819
      3   0   4 103        -0.0244151723
      1   1  69  66        -0.0227415126
      2   2  88  85        -0.0227415126
      1   1  66  69        -0.0224188720
      2   2  85  88        -0.0224188720
      1   0  36 103         0.0211369737

    SCF energy       (wfn)                    =  -99.416087542951900
    Reference energy (file100)                =  -99.416087542951800

    Opposite-spin MP2 correlation energy      =   -0.179015718898139
    Same-spin MP2 correlation energy          =   -0.052948287081747
    MP2 correlation energy                    =   -0.231964005979886
      * MP2 total energy                      =  -99.648051548931690

    Opposite-spin CCSD correlation energy     =   -0.189763653540435
    Same-spin CCSD correlation energy         =   -0.050641592790274
    CCSD correlation energy                   =   -0.240405246403412
      * CCSD total energy                     =  -99.656492789355212


*** tstop() called on cqc05 at Fri Aug 21 06:51:40 2020
Module time:
	user time   =       1.70 seconds =       0.03 minutes
	system time =       1.17 seconds =       0.02 minutes
	total time  =          4 seconds =       0.07 minutes
Total time:
	user time   =      10.53 seconds =       0.18 minutes
	system time =       2.76 seconds =       0.05 minutes
	total time  =         14 seconds =       0.23 minutes

*** Psi4 exiting successfully. Buy a developer a beer!
