
    -----------------------------------------------------------------------
          Psi4: An Open-Source Ab Initio Electronic Structure Package
                               Psi4 1.2a1.dev938 

                         Git: Rev {HEAD} fc51d9a dirty


    R. M. Parrish, L. A. Burns, D. G. A. Smith, A. C. Simmonett,
    A. E. DePrince III, E. G. Hohenstein, U. Bozkaya, A. Yu. Sokolov,
    R. Di Remigio, R. M. Richard, J. F. Gonthier, A. M. James,
    H. R. McAlexander, A. Kumar, M. Saitow, X. Wang, B. P. Pritchard,
    P. Verma, H. F. Schaefer III, K. Patkowski, R. A. King, E. F. Valeev,
    F. A. Evangelista, J. M. Turney, T. D. Crawford, and C. D. Sherrill,
    J. Chem. Theory Comput. 13(7) pp 3185--3197 (2017).
    (doi: 10.1021/acs.jctc.7b00174)

    -----------------------------------------------------------------------


    Psi4 started on: Thursday, 20 August 2020 08:05PM

    Process ID: 423703
    PSIDATADIR: /home/irmler/Programs/psi4/beforeGrueneis3/stage/usr/local/psi4/share/psi4
    Memory:     500.0 MiB
    Threads:    4
    
  ==> Input File <==

--------------------------------------------------------------------------
# Any line starting with the # character is a comment line
memory 250000 mb
molecule molecule{
0 2
P          0.0000000000        0.0000000000        0.5093442540
O          0.0000000000        0.0000000000       -0.9860561446
}

set {
  reference uhf
  basis aug-cc-pv(t+d)z
  scf_type OUT_OF_CORE
  freeze_core true
}

energy('ccsd')
--------------------------------------------------------------------------

  Memory set to 232.831 GiB by Python driver.

*** tstart() called on cqc05
*** at Thu Aug 20 20:05:37 2020

   => Loading Basis Set <=

    Name: AUG-CC-PV(T+D)Z
    Role: ORBITAL
    Keyword: BASIS
    atoms 1 entry P          line   844 file /home/irmler/Programs/psi4/beforeGrueneis3/stage/usr/local/psi4/share/psi4/basis/aug-cc-pv_tpd_z.gbs 
    atoms 2 entry O          line   347 file /home/irmler/Programs/psi4/beforeGrueneis3/stage/usr/local/psi4/share/psi4/basis/aug-cc-pv_tpd_z.gbs 


         ---------------------------------------------------------
                                   SCF
            by Justin Turney, Rob Parrish, Andy Simmonett
                             and Daniel Smith
                              UHF Reference
                        4 Threads, 238418 MiB Core
         ---------------------------------------------------------

  ==> Geometry <==

    Molecular point group: c2v
    Full point group: C_inf_v

    Geometry (in Angstrom), charge = 0, multiplicity = 2:

       Center              X                  Y                   Z               Mass       
    ------------   -----------------  -----------------  -----------------  -----------------
           P          0.000000000000     0.000000000000     0.509250070645    30.973761629000
           O          0.000000000000     0.000000000000    -0.986150327955    15.994914619560

  Running in c2v symmetry.

  Rotational constants: A = ************  B =      0.71468  C =      0.71468 [cm^-1]
  Rotational constants: A = ************  B =  21425.68197  C =  21425.68197 [MHz]
  Nuclear repulsion =   42.464389530890948

  Charge       = 0
  Multiplicity = 2
  Electrons    = 23
  Nalpha       = 12
  Nbeta        = 11

  ==> Algorithm <==

  SCF Algorithm Type is OUT_OF_CORE.
  DIIS enabled.
  MOM disabled.
  Fractional occupation disabled.
  Guess Type is GWH.
  Energy threshold   = 1.00e-08
  Density threshold  = 1.00e-08
  Integral threshold = 0.00e+00

  ==> Primary Basis <==

  Basis Set: AUG-CC-PV(T+D)Z
    Blend: AUG-CC-PV(T+D)Z
    Number of shells: 31
    Number of basis function: 101
    Number of Cartesian functions: 120
    Spherical Harmonics?: true
    Max angular momentum: 3

  ==> Pre-Iterations <==

   -------------------------------------------------------
    Irrep   Nso     Nmo     Nalpha   Nbeta   Ndocc  Nsocc
   -------------------------------------------------------
     A1        42      42       0       0       0       0
     A2        11      11       0       0       0       0
     B1        24      24       0       0       0       0
     B2        24      24       0       0       0       0
   -------------------------------------------------------
    Total     101     101      12      11      11       1
   -------------------------------------------------------

  ==> Integral Setup <==

  ==> DiskJK: Disk-Based J/K Matrices <==

    J tasked:                  Yes
    K tasked:                  Yes
    wK tasked:                  No
    Memory (MB):            178813
    Schwarz Cutoff:          1E-12

  Minimum eigenvalue in the overlap matrix is 4.8168090421E-04.
  Using Symmetric Orthogonalization.

  SCF Guess: Generalized Wolfsberg-Helmholtz.

  ==> Iterations <==

                        Total Energy        Delta E     RMS |[F,P]|

   @UHF iter   1:  -408.82834795046455   -4.08828e+02   1.69306e-01 
    Occupation by irrep:
             A1    A2    B1    B2 
    DOCC [     7,    0,    2,    2 ]
    SOCC [     0,    0,    1,    0 ]

   @UHF iter   2:  -412.15407992426321   -3.32573e+00   7.11982e-02 DIIS
   @UHF iter   3:  -410.36747273376153    1.78661e+00   8.55517e-02 DIIS
   @UHF iter   4:  -415.49426987014749   -5.12680e+00   1.60117e-02 DIIS
   @UHF iter   5:  -415.61308186335395   -1.18812e-01   4.32685e-03 DIIS
   @UHF iter   6:  -415.62364340544190   -1.05615e-02   1.02794e-03 DIIS
   @UHF iter   7:  -415.62494694272090   -1.30354e-03   3.66215e-04 DIIS
   @UHF iter   8:  -415.62507785525781   -1.30913e-04   1.21581e-04 DIIS
   @UHF iter   9:  -415.62510016091187   -2.23057e-05   4.32451e-05 DIIS
   @UHF iter  10:  -415.62510572651399   -5.56560e-06   2.50753e-05 DIIS
   @UHF iter  11:  -415.62510857665677   -2.85014e-06   1.90729e-05 DIIS
   @UHF iter  12:  -415.62511062780277   -2.05115e-06   1.79147e-05 DIIS
   @UHF iter  13:  -415.62511280808201   -2.18028e-06   1.64248e-05 DIIS
   @UHF iter  14:  -415.62511734502175   -4.53694e-06   1.47501e-05 DIIS
   @UHF iter  15:  -415.62512676988723   -9.42487e-06   1.09650e-05 DIIS
   @UHF iter  16:  -415.62513214042616   -5.37054e-06   5.48958e-06 DIIS
   @UHF iter  17:  -415.62513316951095   -1.02908e-06   1.95952e-06 DIIS
   @UHF iter  18:  -415.62513318314393   -1.36330e-08   6.29008e-07 DIIS
   @UHF iter  19:  -415.62513318473634   -1.59241e-09   1.72682e-07 DIIS
   @UHF iter  20:  -415.62513318477892   -4.25757e-11   5.70365e-08 DIIS
   @UHF iter  21:  -415.62513318478341   -4.49063e-12   1.58106e-08 DIIS
   @UHF iter  22:  -415.62513318478420   -7.95808e-13   8.85314e-09 DIIS

  ==> Post-Iterations <==

   @Spin Contamination Metric:   2.359234350E-02
   @S^2 Expected:                7.500000000E-01
   @S^2 Observed:                7.735923435E-01
   @S   Expected:                5.000000000E-01
   @S   Observed:                5.000000000E-01

    Orbital Energies (a.u.)
    -----------------------

    Alpha Occupied:                                                       

       1A1   -80.033796     2A1   -20.595204     3A1    -7.570352  
       1B1    -5.471381     1B2    -5.460673     4A1    -5.458766  
       5A1    -1.357831     6A1    -0.767403     2B1    -0.601054  
       7A1    -0.556488     2B2    -0.527846     3B1    -0.343649  

    Alpha Virtual:                                                        

       3B2    -0.004022     8A1     0.059134     9A1     0.069065  
       4B1     0.077703     4B2     0.087543    10A1     0.155869  
      11A1     0.192403     1A2     0.192459    12A1     0.204589  
       5B1     0.205366     5B2     0.205910     6B1     0.280929  
       6B2     0.288647    13A1     0.324043    14A1     0.357264  
       7B1     0.473594     7B2     0.487486    15A1     0.514264  
       2A2     0.536748    16A1     0.537099     8B1     0.607654  
      17A1     0.616443     3A2     0.616811     8B2     0.620650  
       9B1     0.626027     9B2     0.626690    18A1     0.648244  
      19A1     0.754238    10B1     0.783049    10B2     0.785393  
      11B1     0.875372    11B2     0.882138     4A2     0.892466  
      20A1     0.892468    21A1     0.977719    22A1     1.059468  
      12B2     1.310827    12B1     1.311996    23A1     1.386583  
      24A1     1.544953     5A2     1.545003    13B2     1.599586  
      13B1     1.602954    25A1     1.689101    26A1     1.754553  
       6A2     1.761431    27A1     1.765395    14B2     1.822464  
      14B1     1.822474    15B2     1.865099    15B1     1.867466  
      16B2     2.110354    16B1     2.110354    28A1     2.298858  
       7A2     2.325258    29A1     2.325544    17B1     2.415969  
      17B2     2.419262     8A2     2.455251    30A1     2.455394  
      31A1     2.477993    18B2     2.493797    18B1     2.495735  
      32A1     2.781729    19B2     3.052852    19B1     3.060221  
      33A1     3.641800    20B1     4.447921    20B2     4.458835  
      34A1     4.565277    35A1     5.327815     9A2     6.145218  
      36A1     6.145296    21B2     6.330475    21B1     6.339744  
      22B2     6.502092    22B1     6.502093    37A1     6.608393  
      10A2     6.608640    38A1     6.694506    23B2     6.780725  
      23B1     6.788390    11A2     7.084652    39A1     7.084676  
      40A1     7.266101    24B2     7.340330    24B1     7.342327  
      41A1     7.880991    42A1    11.519815  

    Beta Occupied:                                                        

       1A1   -80.028439     2A1   -20.582176     3A1    -7.564180  
       1B2    -5.458550     4A1    -5.457182     1B1    -5.443496  
       5A1    -1.325025     6A1    -0.710459     7A1    -0.516297  
       2B2    -0.512487     2B1    -0.500392  

    Beta Virtual:                                                         

       3B2     0.006182     3B1     0.038081     8A1     0.062021  
       9A1     0.070863     4B2     0.089814     4B1     0.110914  
      10A1     0.161000     5B2     0.206786    11A1     0.207958  
       1A2     0.208040     5B1     0.209880    12A1     0.210398  
       6B2     0.290428     6B1     0.303904    13A1     0.325436  
      14A1     0.367664     7B2     0.490051     7B1     0.517529  
      15A1     0.521206     2A2     0.572459    16A1     0.574512  
       8B2     0.619953    17A1     0.626637     3A2     0.627673  
       8B1     0.638239     9B2     0.638387     9B1     0.645124  
      18A1     0.649713    19A1     0.762883    10B2     0.788766  
      10B1     0.809290    11B2     0.885223    11B1     0.895078  
       4A2     0.898134    20A1     0.898225    21A1     0.984878  
      22A1     1.072691    12B2     1.312889    12B1     1.326108  
      23A1     1.397282     5A2     1.565984    24A1     1.567083  
      13B2     1.601050    13B1     1.630305    25A1     1.693021  
      26A1     1.755318     6A2     1.774354    27A1     1.779915  
      14B2     1.846276    14B1     1.848438    15B2     1.870463  
      15B1     1.897181    16B2     2.112830    16B1     2.112835  
      28A1     2.306118     7A2     2.343621    29A1     2.343861  
      17B2     2.422509    17B1     2.450726     8A2     2.460915  
      30A1     2.461514    31A1     2.486754    18B2     2.495732  
      18B1     2.512226    32A1     2.790021    19B2     3.054197  
      19B1     3.071322    33A1     3.646862    20B2     4.468301  
      20B1     4.485505    34A1     4.574181    35A1     5.335027  
       9A2     6.152106    36A1     6.152353    21B2     6.331631  
      21B1     6.348532    22B2     6.515770    22B1     6.515774  
      37A1     6.617355    10A2     6.618258    38A1     6.701827  
      23B2     6.784456    23B1     6.799559    39A1     7.111515  
      11A2     7.111719    40A1     7.274962    24B2     7.348074  
      24B1     7.366122    41A1     7.887369    42A1    11.531726  

    Final Occupation by Irrep:
             A1    A2    B1    B2 
    DOCC [     7,    0,    2,    2 ]
    SOCC [     0,    0,    1,    0 ]

  Energy converged.

  @UHF Final Energy:  -415.62513318478420

   => Energetics <=

    Nuclear Repulsion Energy =             42.4643895308909478
    One-Electron Energy =                -659.3359209413126791
    Two-Electron Energy =                 201.2463982256375914
    Total Energy =                       -415.6251331847842039


  UHF NO Occupations:
  HONO-2 :    2 B1 1.9963896
  HONO-1 :    7 A1 1.9924122
  HONO-0 :    3 B1 1.0000000
  LUNO+0 :    8 A1 0.0075878
  LUNO+1 :    4 B1 0.0036104
  LUNO+2 :    3 B2 0.0004236
  LUNO+3 :    9 A1 0.0001426



Properties will be evaluated at   0.000000,   0.000000,   0.000000 Bohr

Properties computed using the SCF density matrix

  Nuclear Dipole Moment: (a.u.)
     X:     0.0000      Y:     0.0000      Z:    -0.4733

  Electronic Dipole Moment: (a.u.)
     X:     0.0000      Y:     0.0000      Z:     1.5261

  Dipole Moment: (a.u.)
     X:     0.0000      Y:     0.0000      Z:     1.0528     Total:     1.0528

  Dipole Moment: (Debye)
     X:     0.0000      Y:     0.0000      Z:     2.6761     Total:     2.6761


*** tstop() called on cqc05 at Thu Aug 20 20:05:41 2020
Module time:
	user time   =       4.23 seconds =       0.07 minutes
	system time =       0.18 seconds =       0.00 minutes
	total time  =          4 seconds =       0.07 minutes
Total time:
	user time   =       4.23 seconds =       0.07 minutes
	system time =       0.18 seconds =       0.00 minutes
	total time  =          4 seconds =       0.07 minutes

*** tstart() called on cqc05
*** at Thu Aug 20 20:05:41 2020


	Wfn Parameters:
	--------------------
	Wavefunction         = CCSD
	Number of irreps     = 4
	Number of MOs        = 101
	Number of active MOs = 95
	AO-Basis             = NONE
	Semicanonical        = false
	Reference            = UHF
	Print Level          = 1

	IRREP	# MOs	# FZDC	# DOCC	# SOCC	# VIRT	# FZVR
	-----	-----	------	------	------	------	------
	 A1	   42	    4	    3	    0	    35	    0
	 A2	   11	    0	    0	    0	    11	    0
	 B1	   24	    1	    1	    1	    21	    0
	 B2	   24	    1	    1	    0	    22	    0
	Transforming integrals...
	IWL integrals will be deleted.
	(OO|OO)...
	Presorting SO-basis two-electron integrals.
	Sorting File: SO Ints (nn|nn) nbuckets = 1
	Transforming the one-electron integrals and constructing Fock matrices
	Starting AA/AB first half-transformation.
	Sorting AA/AB half-transformed integrals.
	Starting BB first half-transformation.
	Sorting BB half-transformed integrals.
	First half integral transformation complete.
	Starting AA second half-transformation.
	Starting AB second half-transformation.
	Starting BB second half-transformation.
	Two-electron integral transformation complete.
	(OO|OV)...
	Starting AA second half-transformation.
	Starting AB second half-transformation.
	Starting BB second half-transformation.
	Two-electron integral transformation complete.
	(OO|VV)...
	Starting AA second half-transformation.
	Starting AB second half-transformation.
	Starting BB second half-transformation.
	Two-electron integral transformation complete.
	(OV|OO)...
	Starting AA/AB first half-transformation.
	Sorting AA/AB half-transformed integrals.
	Starting BB first half-transformation.
	Sorting BB half-transformed integrals.
	First half integral transformation complete.
	Starting AA second half-transformation.
	Starting AB second half-transformation.
	Starting BB second half-transformation.
	Two-electron integral transformation complete.
	(OV|OV)...
	Starting AA second half-transformation.
	Starting AB second half-transformation.
	Starting BB second half-transformation.
	Two-electron integral transformation complete.
	(OV|VV)...
	Starting AA second half-transformation.
	Starting AB second half-transformation.
	Starting BB second half-transformation.
	Two-electron integral transformation complete.
	(VV|OO)...
	Starting AA/AB first half-transformation.
	Sorting AA/AB half-transformed integrals.
	Starting BB first half-transformation.
	Sorting BB half-transformed integrals.
	First half integral transformation complete.
	Starting AA second half-transformation.
	Starting AB second half-transformation.
	Starting BB second half-transformation.
	Two-electron integral transformation complete.
	(VV|OV)...
	Starting AA second half-transformation.
	Starting AB second half-transformation.
	Starting BB second half-transformation.
	Two-electron integral transformation complete.
	(VV|VV)...
	Starting AA second half-transformation.
	Starting AB second half-transformation.
	Starting BB second half-transformation.
	Two-electron integral transformation complete.
	Frozen core energy     =   -425.31597838910540

	Size of irrep 0 of <AB|CD> integrals:      1.190 (MW) /      9.522 (MB)
	Size of irrep 1 of <AB|CD> integrals:      0.717 (MW) /      5.739 (MB)
	Size of irrep 2 of <AB|CD> integrals:      0.955 (MW) /      7.636 (MB)
	Size of irrep 3 of <AB|CD> integrals:      1.002 (MW) /      8.016 (MB)
	Total:                                     3.864 (MW) /     30.914 (MB)

	Size of irrep 0 of <ab|cd> integrals:      1.237 (MW) /      9.892 (MB)
	Size of irrep 1 of <ab|cd> integrals:      0.755 (MW) /      6.041 (MB)
	Size of irrep 2 of <ab|cd> integrals:      1.024 (MW) /      8.193 (MB)
	Size of irrep 3 of <ab|cd> integrals:      1.024 (MW) /      8.193 (MB)
	Total:                                     4.040 (MW) /     32.320 (MB)

	Size of irrep 0 of <Ab|Cd> integrals:      5.253 (MW) /     42.026 (MB)
	Size of irrep 1 of <Ab|Cd> integrals:      2.945 (MW) /     23.557 (MB)
	Size of irrep 2 of <Ab|Cd> integrals:      3.956 (MW) /     31.649 (MB)
	Size of irrep 3 of <Ab|Cd> integrals:      4.052 (MW) /     32.417 (MB)
	Total:                                    16.206 (MW) /    129.650 (MB)

	Size of irrep 0 of <IA|BC> integrals:      0.384 (MW) /      3.070 (MB)
	Size of irrep 1 of <IA|BC> integrals:      0.166 (MW) /      1.328 (MB)
	Size of irrep 2 of <IA|BC> integrals:      0.281 (MW) /      2.251 (MB)
	Size of irrep 3 of <IA|BC> integrals:      0.246 (MW) /      1.970 (MB)
	Total:                                     1.077 (MW) /      8.619 (MB)

	Size of irrep 0 of <ia|bc> integrals:      0.345 (MW) /      2.758 (MB)
	Size of irrep 1 of <ia|bc> integrals:      0.134 (MW) /      1.071 (MB)
	Size of irrep 2 of <ia|bc> integrals:      0.227 (MW) /      1.814 (MB)
	Size of irrep 3 of <ia|bc> integrals:      0.227 (MW) /      1.814 (MB)
	Total:                                     0.932 (MW) /      7.456 (MB)

	Size of irrep 0 of <Ia|Bc> integrals:      0.392 (MW) /      3.135 (MB)
	Size of irrep 1 of <Ia|Bc> integrals:      0.170 (MW) /      1.359 (MB)
	Size of irrep 2 of <Ia|Bc> integrals:      0.292 (MW) /      2.339 (MB)
	Size of irrep 3 of <Ia|Bc> integrals:      0.248 (MW) /      1.981 (MB)
	Total:                                     1.102 (MW) /      8.814 (MB)

	Size of irrep 0 of <iA|bC> integrals:      0.339 (MW) /      2.714 (MB)
	Size of irrep 1 of <iA|bC> integrals:      0.130 (MW) /      1.043 (MB)
	Size of irrep 2 of <iA|bC> integrals:      0.217 (MW) /      1.734 (MB)
	Size of irrep 3 of <iA|bC> integrals:      0.225 (MW) /      1.804 (MB)
	Total:                                     0.912 (MW) /      7.295 (MB)

	Size of irrep 0 of tIjAb amplitudes:       0.028 (MW) /      0.220 (MB)
	Size of irrep 1 of tIjAb amplitudes:       0.005 (MW) /      0.041 (MB)
	Size of irrep 2 of tIjAb amplitudes:       0.018 (MW) /      0.143 (MB)
	Size of irrep 3 of tIjAb amplitudes:       0.012 (MW) /      0.097 (MB)
	Total:                                     0.063 (MW) /      0.501 (MB)

	Nuclear Rep. energy          =     42.46438953089095
	SCF energy                   =   -415.62513318478420
	One-electron energy          =    -57.82815776973099
	Two-electron (AA) energy     =      6.01101244099356
	Two-electron (BB) energy     =      4.31247704978425
	Two-electron (AB) energy     =     14.73112395238331
	Two-electron energy          =     25.05461344316113
	Reference energy             =   -415.62513318478432

*** tstop() called on cqc05 at Thu Aug 20 20:05:44 2020
Module time:
	user time   =       1.86 seconds =       0.03 minutes
	system time =       0.95 seconds =       0.02 minutes
	total time  =          3 seconds =       0.05 minutes
Total time:
	user time   =       6.09 seconds =       0.10 minutes
	system time =       1.13 seconds =       0.02 minutes
	total time  =          7 seconds =       0.12 minutes

*** tstart() called on cqc05
*** at Thu Aug 20 20:05:44 2020

            **************************
            *                        *
            *        CCENERGY        *
            *                        *
            **************************

    Nuclear Rep. energy (wfn)     =   42.464389530890948
    SCF energy          (wfn)     = -415.625133184784204
    Reference energy    (file100) = -415.625133184784318

    Input parameters:
    -----------------
    Wave function   =     CCSD
    Reference wfn   =     UHF
    Brueckner       =     No
    Memory (Mbytes) =     250000.0
    Maxiter         =     50
    R_Convergence   =     1.0e-07
    E_Convergence   =     1.0e-06
    Restart         =     Yes
    DIIS            =     Yes
    AO Basis        =     NONE
    ABCD            =     NEW
    Cache Level     =     2
    Cache Type      =     LRU
    Print Level     =     1
    Num. of threads =     4
    # Amps to Print =     10
    Print MP2 Amps? =     No
    Analyze T2 Amps =     No
    Print Pair Ener =     No
    Local CC        =     No
    SCS-MP2         =     False
    SCSN-MP2        =     False
    SCS-CCSD        =     False

MP2 correlation energy -0.3656367001594805
                Solving CC Amplitude Equations
                ------------------------------
  Iter             Energy              RMS        T1Diag      D1Diag    New D1Diag    D2Diag
  ----     ---------------------    ---------   ----------  ----------  ----------   --------
     0        -0.365636700159603    0.000e+00    0.000000    0.000000    0.000000    0.000000
     1        -0.352616851021384    1.204e-01    0.028673    0.000000    0.000000    0.000000
     2        -0.367079440309870    4.845e-02    0.025773    0.000000    0.000000    0.000000
     3        -0.372021113937154    2.479e-02    0.033143    0.000000    0.000000    0.000000
     4        -0.371647991419916    7.181e-03    0.035527    0.000000    0.000000    0.000000
     5        -0.371665715986595    3.336e-03    0.036745    0.000000    0.000000    0.000000
     6        -0.371682072129971    1.256e-03    0.037087    0.000000    0.000000    0.000000
     7        -0.371668008195659    5.853e-04    0.037164    0.000000    0.000000    0.000000
     8        -0.371674716237393    2.717e-04    0.037196    0.000000    0.000000    0.000000
     9        -0.371679211062332    1.333e-04    0.037198    0.000000    0.000000    0.000000
    10        -0.371675078130682    6.398e-05    0.037198    0.000000    0.000000    0.000000
    11        -0.371676471318329    2.906e-05    0.037192    0.000000    0.000000    0.000000
    12        -0.371676193797558    1.294e-05    0.037195    0.000000    0.000000    0.000000
    13        -0.371676215696672    5.724e-06    0.037194    0.000000    0.000000    0.000000
    14        -0.371676440325527    2.736e-06    0.037194    0.000000    0.000000    0.000000
    15        -0.371676363632868    1.253e-06    0.037194    0.000000    0.000000    0.000000
    16        -0.371676356359180    5.691e-07    0.037194    0.000000    0.000000    0.000000
    17        -0.371676354628834    2.197e-07    0.037194    0.000000    0.000000    0.000000
    18        -0.371676350932920    9.693e-08    0.037194    0.000000    0.000000    0.000000
    18        -0.371676350932920    9.693e-08    0.037194    0.000000    0.000000    0.000000

    Iterations converged.


    CCSD corr. energy   =   -0.371676350932920
    PPL corr. energy    =    0.091468252066776
    OS PPL corr. energy =    0.075461196055122
    SS PPL corr. energy =    0.016007056011645
    Largest TIA Amplitudes:
              5  67         0.0628851731
              5  68         0.0261120208
              3  48        -0.0184333028
              2   2        -0.0158137865
              2   3        -0.0155384901
              3  47         0.0147570197
              3  50         0.0141439195
              2   8        -0.0134211779
              1   8        -0.0128838935
              5  71        -0.0123569409

    Largest Tia Amplitudes:
              3  46        -0.0468260638
              3  47         0.0391197657
              4  68         0.0327976499
              4  69         0.0172444376
              1   2        -0.0154358204
              1   6         0.0140889888
              3  50        -0.0134007274
              4  77        -0.0114858461
              1   4        -0.0105616694
              4  72        -0.0100080211

    Largest TIJAB Amplitudes:
      5   2  67   2         0.0226549705
      5   2  67   6        -0.0200609079
      5   4  67  50        -0.0189998108
      4   2  50   2         0.0168968460
      5   4  67  48         0.0161890051
      5   4  36   8         0.0149312210
      5   2  67   7        -0.0148613501
      5   2  67   4         0.0142349042
      5   4  67  52         0.0137799273
      4   2  50   7        -0.0130371248

    Largest Tijab Amplitudes:
      4   3  68  46         0.0346897291
      4   3  68  47        -0.0269550432
      4   2  68   2         0.0222979065
      4   2  68   6        -0.0203413699
      4   3  68  49         0.0168466479
      3   2  46   2        -0.0164355267
      3   2  46   6         0.0162316992
      4   2  68   7        -0.0156998055
      4   3  69  46         0.0148425015
      4   3  71  46        -0.0129381837

    Largest TIjAb Amplitudes:
      5   4  67  68        -0.0996338862
      2   2  67  68        -0.0613103887
      5   3  67  46         0.0489906954
      5   4  67  69        -0.0443165934
      1   2  67  68        -0.0439225671
      1   1  67  68         0.0403858414
      5   4  67  71         0.0396113506
      5   4  68  68        -0.0389240434
      5   3  67  47        -0.0383743971
      5   4  70  68         0.0356236167

    SCF energy       (wfn)                    = -415.625133184784204
    Reference energy (file100)                = -415.625133184784318

    Opposite-spin MP2 correlation energy      =   -0.272062317536283
    Same-spin MP2 correlation energy          =   -0.093574382622107
    MP2 correlation energy                    =   -0.365636700159481
      * MP2 total energy                      = -415.990769884943802

    Opposite-spin CCSD correlation energy     =   -0.291113533971553
    Same-spin CCSD correlation energy         =   -0.080562789461218
    CCSD correlation energy                   =   -0.371676350932920
      * CCSD total energy                     = -415.996809535717261


*** tstop() called on cqc05 at Thu Aug 20 20:05:49 2020
Module time:
	user time   =       2.54 seconds =       0.04 minutes
	system time =       1.56 seconds =       0.03 minutes
	total time  =          5 seconds =       0.08 minutes
Total time:
	user time   =       8.63 seconds =       0.14 minutes
	system time =       2.69 seconds =       0.04 minutes
	total time  =         12 seconds =       0.20 minutes

*** Psi4 exiting successfully. Buy a developer a beer!
