
    -----------------------------------------------------------------------
          Psi4: An Open-Source Ab Initio Electronic Structure Package
                               Psi4 1.2a1.dev939 

                         Git: Rev {HEAD} fa1ec19 dirty


    R. M. Parrish, L. A. Burns, D. G. A. Smith, A. C. Simmonett,
    A. E. DePrince III, E. G. Hohenstein, U. Bozkaya, A. Yu. Sokolov,
    R. Di Remigio, R. M. Richard, J. F. Gonthier, A. M. James,
    H. R. McAlexander, A. Kumar, M. Saitow, X. Wang, B. P. Pritchard,
    P. Verma, H. F. Schaefer III, K. Patkowski, R. A. King, E. F. Valeev,
    F. A. Evangelista, J. M. Turney, T. D. Crawford, and C. D. Sherrill,
    J. Chem. Theory Comput. 13(7) pp 3185--3197 (2017).
    (doi: 10.1021/acs.jctc.7b00174)

    -----------------------------------------------------------------------


    Psi4 started on: Thursday, 13 August 2020 11:22AM

    Process ID: 436034
    PSIDATADIR: /home/fs71337/airmler/src/psi4new/build/stage/usr/local/psi4/share/psi4
    Memory:     500.0 MiB
    Threads:    48
    
  ==> Input File <==

--------------------------------------------------------------------------
# Any line starting with the # character is a comment line
memory 250000 mb
molecule molecule{
0 1
S          0.0000000000        0.0000000000       -0.0547164095
H          0.0000000000       -0.9606862082        0.8701946977
H          0.0000000000        0.9606862082        0.8701946977
}

set {
  reference rhf
  basis aug-cc-pv(6+d)z
  scf_type OUT_OF_CORE
  freeze_core true
}

energy('ccsd')
--------------------------------------------------------------------------

  Memory set to 232.831 GiB by Python driver.

*** tstart() called on n412-002.vsc4.prov
*** at Thu Aug 13 11:22:40 2020

   => Loading Basis Set <=

    Name: AUG-CC-PV(6+D)Z
    Role: ORBITAL
    Keyword: BASIS
    atoms 1   entry S          line  1164 file /home/fs71337/airmler/src/psi4new/build/stage/usr/local/psi4/share/psi4/basis/aug-cc-pv_6pd_z.gbs 
    atoms 2-3 entry H          line    51 file /home/fs71337/airmler/src/psi4new/build/stage/usr/local/psi4/share/psi4/basis/aug-cc-pv_6pd_z.gbs 


         ---------------------------------------------------------
                                   SCF
            by Justin Turney, Rob Parrish, Andy Simmonett
                             and Daniel Smith
                              RHF Reference
                       48 Threads, 238418 MiB Core
         ---------------------------------------------------------

  ==> Geometry <==

    Molecular point group: c2v
    Full point group: C2v

    Geometry (in Angstrom), charge = 0, multiplicity = 1:

       Center              X                  Y                   Z               Mass       
    ------------   -----------------  -----------------  -----------------  -----------------
           S         -0.000000000000     0.000000000000    -0.054852078169    31.972070999000
           H          0.000000000000    -0.960686208200     0.870059029031     1.007825032070
           H         -0.000000000000     0.960686208200     0.870059029031     1.007825032070

  Running in c2v symmetry.

  Rotational constants: A =     10.39280  B =      9.06188  C =      4.84091 [cm^-1]
  Rotational constants: A = 311568.35846  B = 271668.28896  C = 145126.75637 [MHz]
  Nuclear repulsion =   12.973523896989526

  Charge       = 0
  Multiplicity = 1
  Electrons    = 18
  Nalpha       = 9
  Nbeta        = 9

  ==> Algorithm <==

  SCF Algorithm Type is OUT_OF_CORE.
  DIIS enabled.
  MOM disabled.
  Fractional occupation disabled.
  Guess Type is SAD.
  Energy threshold   = 1.00e-08
  Density threshold  = 1.00e-08
  Integral threshold = 0.00e+00

  ==> Primary Basis <==

  Basis Set: AUG-CC-PV(6+D)Z
    Blend: AUG-CC-PV(6+D)Z
    Number of shells: 92
    Number of basis function: 452
    Number of Cartesian functions: 668
    Spherical Harmonics?: true
    Max angular momentum: 6

  ==> Pre-Iterations <==

   -------------------------------------------------------
    Irrep   Nso     Nmo     Nalpha   Nbeta   Ndocc  Nsocc
   -------------------------------------------------------
     A1       147     147       0       0       0       0
     A2        82      82       0       0       0       0
     B1        98      98       0       0       0       0
     B2       125     125       0       0       0       0
   -------------------------------------------------------
    Total     452     452       9       9       9       0
   -------------------------------------------------------

  ==> Integral Setup <==

  ==> DiskJK: Disk-Based J/K Matrices <==

    J tasked:                  Yes
    K tasked:                  Yes
    wK tasked:                  No
    Memory (MB):            178813
    Schwarz Cutoff:          1E-12

  Minimum eigenvalue in the overlap matrix is 5.3719279271E-06.
  Using Symmetric Orthogonalization.

  SCF Guess: Superposition of Atomic Densities via on-the-fly atomic UHF.

  ==> Iterations <==

                        Total Energy        Delta E     RMS |[F,P]|

   @RHF iter   0:  -398.59429424913355   -3.98594e+02   2.83022e-02 
   @RHF iter   1:  -398.70581475413422   -1.11521e-01   3.35615e-03 
   @RHF iter   2:  -398.71840497184701   -1.25902e-02   1.09552e-03 DIIS
   @RHF iter   3:  -398.71992790845951   -1.52294e-03   2.85066e-04 DIIS
   @RHF iter   4:  -398.72023905826359   -3.11150e-04   5.43371e-05 DIIS
   @RHF iter   5:  -398.72025322309844   -1.41648e-05   1.05783e-05 DIIS
   @RHF iter   6:  -398.72025370396369   -4.80865e-07   1.92289e-06 DIIS
   @RHF iter   7:  -398.72025372266347   -1.86998e-08   5.57280e-07 DIIS
   @RHF iter   8:  -398.72025372380676   -1.14329e-09   1.28948e-07 DIIS
   @RHF iter   9:  -398.72025372391465   -1.07889e-10   2.59819e-08 DIIS
   @RHF iter  10:  -398.72025372391806   -3.41061e-12   7.06177e-09 DIIS

  ==> Post-Iterations <==

    Orbital Energies (a.u.)
    -----------------------

    Doubly Occupied:                                                      

       1A1   -91.964301     2A1    -8.966892     1B2    -6.648328  
       3A1    -6.647734     1B1    -6.646866     4A1    -0.982177  
       2B2    -0.591135     5A1    -0.502464     2B1    -0.385301  

    Virtual:                                                              

       6A1     0.020050     3B2     0.034950     7A1     0.057704  
       3B1     0.065239     4B2     0.075687     8A1     0.094738  
       5B2     0.129232     9A1     0.143667    10A1     0.146754  
       1A2     0.158830     4B1     0.160153     6B2     0.175426  
      11A1     0.198398     7B2     0.202381    12A1     0.213786  
       5B1     0.214999     2A2     0.217672     8B2     0.237467  
      13A1     0.251482     9B2     0.260850    14A1     0.269805  
       6B1     0.301385    15A1     0.335238    16A1     0.359651  
       7B1     0.377245     3A2     0.385590    10B2     0.403941  
       8B1     0.412003    17A1     0.451648    11B2     0.464769  
      12B2     0.478528    18A1     0.487122     4A2     0.491198  
       9B1     0.500571    13B2     0.507666    19A1     0.507716  
       5A2     0.512424    10B1     0.520649    20A1     0.521119  
      14B2     0.545326     6A2     0.548291    21A1     0.557387  
      11B1     0.565830    15B2     0.573329    22A1     0.579566  
      16B2     0.596727    23A1     0.619967    24A1     0.780999  
      17B2     0.833545    25A1     0.872229    12B1     0.874026  
       7A2     0.889569    18B2     0.912257    13B1     0.913339  
      26A1     0.923465     8A2     0.972821    27A1     0.977367  
      14B1     0.978148    15B1     0.989251    19B2     0.991946  
      28A1     0.992269    29A1     1.002489     9A2     1.008330  
      20B2     1.017298    16B1     1.035804    30A1     1.045738  
      21B2     1.062469    31A1     1.063921    10A2     1.065052  
      17B1     1.108291    22B2     1.128434    11A2     1.130146  
      18B1     1.137998    32A1     1.142671    23B2     1.143077  
      12A2     1.158133    19B1     1.188285    24B2     1.188302  
      33A1     1.215316    25B2     1.238827    34A1     1.248195  
      35A1     1.257549    26B2     1.270231    20B1     1.279568  
      36A1     1.302613    13A2     1.362812    27B2     1.405559  
      37A1     1.476556    28B2     1.493638    21B1     1.502591  
      38A1     1.511406    14A2     1.530374    29B2     1.628566  
      39A1     1.737772    30B2     1.878265    22B1     1.894356  
      40A1     1.894946    15A2     1.915261    23B1     1.953921  
      41A1     1.969504    16A2     1.981590    42A1     2.012169  
      31B2     2.014776    24B1     2.037523    32B2     2.044021  
      43A1     2.059315    17A2     2.079068    25B1     2.141232  
      44A1     2.145536    33B2     2.147977    18A2     2.166249  
      45A1     2.170385    34B2     2.188032    26B1     2.191228  
      19A2     2.199015    27B1     2.235968    46A1     2.237262  
      35B2     2.254688    47A1     2.260254    48A1     2.275778  
      28B1     2.276777    36B2     2.310408    49A1     2.329218  
      20A2     2.333248    29B1     2.363563    50A1     2.388286  
      37B2     2.395092    21A2     2.425265    30B1     2.437519  
      38B2     2.437908    31B1     2.449710    51A1     2.486398  
      39B2     2.516610    22A2     2.558704    52A1     2.565296  
      32B1     2.570164    40B2     2.591836    33B1     2.612154  
      41B2     2.650382    53A1     2.659580    54A1     2.681065  
      42B2     2.701114    23A2     2.707357    43B2     2.716847  
      34B1     2.742597    24A2     2.756901    55A1     2.763582  
      56A1     2.822530    44B2     2.831729    35B1     2.840491  
      25A2     2.841964    57A1     2.849538    45B2     2.884290  
      36B1     2.910937    26A2     2.951835    46B2     3.037468  
      58A1     3.104709    59A1     3.259189    47B2     3.328954  
      27A2     3.482019    60A1     3.484786    48B2     3.496314  
      37B1     3.569478    61A1     3.688047    28A2     3.780936  
      38B1     3.818180    62A1     3.899766    49B2     3.918223  
      50B2     3.964543    39B1     4.014391    29A2     4.080621  
      63A1     4.092241    51B2     4.135480    40B1     4.142921  
      30A2     4.158520    64A1     4.223569    52B2     4.239533  
      65A1     4.292415    66A1     4.329430    31A2     4.336178  
      41B1     4.344058    42B1     4.362671    67A1     4.397452  
      32A2     4.410388    53B2     4.415980    68A1     4.471120  
      43B1     4.479287    69A1     4.501794    44B1     4.503695  
      54B2     4.518422    70A1     4.536177    55B2     4.553807  
      33A2     4.558796    71A1     4.560355    56B2     4.616475  
      34A2     4.628260    72A1     4.631461    45B1     4.652800  
      46B1     4.673588    73A1     4.734484    57B2     4.746601  
      35A2     4.747614    47B1     4.781583    74A1     4.805980  
      58B2     4.808949    36A2     4.812153    48B1     4.817052  
      59B2     4.848830    75A1     4.865850    60B2     4.890279  
      49B1     4.896370    76A1     4.976664    61B2     5.062349  
      37A2     5.064741    77A1     5.094979    38A2     5.098115  
      50B1     5.112830    62B2     5.121383    39A2     5.131234  
      78A1     5.183762    63B2     5.217200    79A1     5.221688  
      64B2     5.280087    80A1     5.281387    51B1     5.286581  
      52B1     5.362762    65B2     5.385156    81A1     5.396955  
      40A2     5.417741    66B2     5.435147    53B1     5.442830  
      54B1     5.478277    41A2     5.491333    82A1     5.524448  
      83A1     5.563990    42A2     5.577134    55B1     5.600705  
      84A1     5.737355    56B1     5.745664    67B2     5.761877  
      68B2     5.807408    69B2     5.847141    43A2     5.918929  
      70B2     6.013776    85A1     6.032270    86A1     6.130785  
      44A2     6.199058    87A1     6.224788    71B2     6.285188  
      45A2     6.347964    57B1     6.405516    88A1     6.484889  
      46A2     6.491247    72B2     6.509431    58B1     6.557558  
      73B2     6.661149    89A1     6.920710    59B1     7.028505  
      74B2     7.109323    90A1     7.170205    47A2     7.182482  
      91A1     7.269199    75B2     7.343291    48A2     7.588657  
      60B1     7.643735    76B2     7.684492    61B1     7.695685  
      92A1     7.728776    49A2     8.068159    77B2     8.088237  
      93A1     8.093556    62B1     8.249284    50A2     8.282157  
      78B2     8.335478    63B1     8.358071    79B2     8.386182  
      94A1     8.420493    51A2     8.424190    95A1     8.434146  
      64B1     8.587229    96A1     8.598942    80B2     8.633819  
      97A1     8.790034    81B2     8.837176    98A1     8.851316  
      52A2     8.905286    65B1     8.920872    82B2     8.933321  
      99A1     9.012531    53A2     9.238640    66B1     9.260021  
     100A1     9.265807   101A1     9.387669   102A1     9.428719  
      67B1     9.465172    54A2     9.473102    83B2     9.483253  
      84B2     9.494621    68B1     9.497009   103A1     9.514727  
     104A1     9.571982    55A2     9.586143    85B2     9.599146  
      69B1     9.626787    70B1     9.671383    56A2     9.711058  
      86B2     9.750946   105A1     9.769113   106A1     9.774621  
      87B2     9.872563    57A2     9.883573    71B1     9.915829  
      88B2     9.995149    58A2    10.075752    72B1    10.104557  
     107A1    10.116448   108A1    10.228800    73B1    10.295070  
      59A2    10.369207    89B2    10.426551    74B1    10.509404  
      90B2    10.542846   109A1    10.549323    91B2    10.562473  
     110A1    10.661896   111A1    10.782544    92B2    10.794466  
      60A2    10.910040    75B1    11.017802   112A1    11.079822  
      93B2    11.117093    76B1    11.183569    61A2    11.191494  
     113A1    11.259901    94B2    11.276508    95B2    11.429956  
     114A1    11.434252    62A2    11.495147    96B2    11.546871  
      77B1    11.579667    78B1    11.714736    63A2    11.740390  
     115A1    11.749557    64A2    11.856974    79B1    11.864980  
      97B2    11.870530   116A1    11.948978   117A1    12.209639  
      98B2    12.860573    80B1    12.947295   118A1    12.952291  
      65A2    13.087909    99B2    13.304419   119A1    13.538432  
      81B1    13.878076   100B2    13.998289    66A2    14.123783  
     120A1    14.321143   101B2    14.379356   121A1    15.245050  
     102B2    16.660983   122A1    16.771430    82B1    17.508624  
     123A1    17.519132   103B2    17.552179    67A2    17.569999  
      83B1    17.633682    68A2    17.650374   104B2    17.725596  
     124A1    17.729188    69A2    17.860150   105B2    17.905567  
      84B1    17.966018   125A1    18.017041   126A1    18.324416  
      85B1    18.359891    70A2    18.635102   106B2    18.656464  
     107B2    19.170788    86B1    19.198680    71A2    19.201612  
     127A1    19.205796   128A1    19.454380   108B2    19.479520  
      87B1    20.376626   129A1    20.401055    72A2    20.403306  
     109B2    20.429564    73A2    20.705702   110B2    20.966390  
     130A1    21.005025    88B1    21.116589    89B1    21.531376  
     111B2    21.548609    90B1    21.555418    74A2    21.593070  
     112B2    21.633960   131A1    21.645968    75A2    21.651165  
     132A1    21.770403   113B2    21.982421   133A1    22.013221  
     134A1    22.860962    91B1    23.255903    76A2    23.264968  
     114B2    23.315486   115B2    23.374880   135A1    23.567345  
     136A1    24.124644    92B1    24.213962    77A2    24.239139  
     116B2    24.345284   137A1    24.540790    93B1    24.549707  
     138A1    24.584536   117B2    24.599655    78A2    24.612083  
      94B1    24.642901    79A2    24.695652   118B2    24.857337  
     139A1    24.918636   119B2    24.947792    95B1    25.313005  
      80A2    25.384384   120B2    25.590056   140A1    25.604403  
     121B2    25.699201   141A1    25.745233    96B1    30.921849  
     142A1    31.321166    81A2    31.328163   143A1    31.525011  
      97B1    31.725261   122B2    32.677277   144A1    34.773571  
      98B1    34.821684    82A2    34.829873   145A1    35.076389  
     123B2    35.179437   124B2    36.108130   146A1    37.566750  
     125B2    37.617794   147A1   249.471593  

    Final Occupation by Irrep:
             A1    A2    B1    B2 
    DOCC [     5,    0,    2,    2 ]

  Energy converged.

  @RHF Final Energy:  -398.72025372391806

   => Energetics <=

    Nuclear Repulsion Energy =             12.9735238969895263
    One-Electron Energy =                -576.7171594595057513
    Two-Electron Energy =                 165.0233818385981692
    Total Energy =                       -398.7202537239180629



Properties will be evaluated at   0.000000,   0.000000,   0.000000 Bohr

Properties computed using the SCF density matrix

  Nuclear Dipole Moment: (a.u.)
     X:     0.0000      Y:     0.0000      Z:     1.6299

  Electronic Dipole Moment: (a.u.)
     X:     0.0000      Y:     0.0000      Z:    -1.2100

  Dipole Moment: (a.u.)
     X:     0.0000      Y:     0.0000      Z:     0.4199     Total:     0.4199

  Dipole Moment: (Debye)
     X:     0.0000      Y:     0.0000      Z:     1.0672     Total:     1.0672


*** tstop() called on n412-002.vsc4.prov at Thu Aug 13 11:40:22 2020
Module time:
	user time   =    1192.07 seconds =      19.87 minutes
	system time =     137.43 seconds =       2.29 minutes
	total time  =       1062 seconds =      17.70 minutes
Total time:
	user time   =    1192.07 seconds =      19.87 minutes
	system time =     137.43 seconds =       2.29 minutes
	total time  =       1062 seconds =      17.70 minutes

*** tstart() called on n412-002.vsc4.prov
*** at Thu Aug 13 11:40:22 2020


	Wfn Parameters:
	--------------------
	Wavefunction         = CCSD
	Number of irreps     = 4
	Number of MOs        = 452
	Number of active MOs = 447
	AO-Basis             = NONE
	Semicanonical        = false
	Reference            = RHF
	Print Level          = 1

	IRREP	# MOs	# FZDC	# DOCC	# SOCC	# VIRT	# FZVR
	-----	-----	------	------	------	------	------
	 A1	   147	    3	    2	    0	    142	    0
	 A2	   82	    0	    0	    0	    82	    0
	 B1	   98	    1	    1	    0	    96	    0
	 B2	   125	    1	    1	    0	    123	    0
	Transforming integrals...
	IWL integrals will be deleted.
	(OO|OO)...
	Presorting SO-basis two-electron integrals.
	Sorting File: SO Ints (nn|nn) nbuckets = 1
	Transforming the one-electron integrals and constructing Fock matrices
	Starting first half-transformation.
	Sorting half-transformed integrals.
	First half integral transformation complete.
	Starting second half-transformation.
	Two-electron integral transformation complete.
	(OO|OV)...
	Starting second half-transformation.
	Two-electron integral transformation complete.
	(OO|VV)...
	Starting second half-transformation.
	Two-electron integral transformation complete.
	(OV|OO)...
	Starting first half-transformation.
	Sorting half-transformed integrals.
	First half integral transformation complete.
	Starting second half-transformation.
	Two-electron integral transformation complete.
	(OV|OV)...
	Starting second half-transformation.
	Two-electron integral transformation complete.
	(OV|VV)...
	Starting second half-transformation.
	Two-electron integral transformation complete.
	(VV|OO)...
	Starting first half-transformation.
	Sorting half-transformed integrals.
	First half integral transformation complete.
	Starting second half-transformation.
	Two-electron integral transformation complete.
	(VV|OV)...
	Starting second half-transformation.
	Two-electron integral transformation complete.
	(VV|VV)...
	Starting second half-transformation.
	Two-electron integral transformation complete.
	Frozen core energy     =   -395.48998250845250

	Size of irrep 0 of <ab|cd> integrals:   2624.820 (MW) /  20998.562 (MB)
	Size of irrep 1 of <ab|cd> integrals:   2199.985 (MW) /  17599.882 (MB)
	Size of irrep 2 of <ab|cd> integrals:   2250.174 (MW) /  18001.393 (MB)
	Size of irrep 3 of <ab|cd> integrals:   2568.057 (MW) /  20544.456 (MB)
	Total:                                  9643.037 (MW) /  77144.293 (MB)

	Size of irrep 0 of <ia|bc> integrals:     25.770 (MW) /    206.162 (MB)
	Size of irrep 1 of <ia|bc> integrals:     17.964 (MW) /    143.714 (MB)
	Size of irrep 2 of <ia|bc> integrals:     19.733 (MW) /    157.867 (MB)
	Size of irrep 3 of <ia|bc> integrals:     23.818 (MW) /    190.542 (MB)
	Total:                                    87.286 (MW) /    698.284 (MB)

	Size of irrep 0 of tijab amplitudes:       0.307 (MW) /      2.459 (MB)
	Size of irrep 1 of tijab amplitudes:       0.094 (MW) /      0.750 (MB)
	Size of irrep 2 of tijab amplitudes:       0.190 (MW) /      1.518 (MB)
	Size of irrep 3 of tijab amplitudes:       0.203 (MW) /      1.622 (MB)
	Total:                                     0.794 (MW) /      6.349 (MB)

	Nuclear Rep. energy          =     12.97352389698953
	SCF energy                   =   -398.72025372391806
	One-electron energy          =    -27.48543606163905
	Two-electron energy          =     11.28164094918515
	Reference energy             =   -398.72025372391687

*** tstop() called on n412-002.vsc4.prov at Thu Aug 13 12:06:38 2020
Module time:
	user time   =    5326.76 seconds =      88.78 minutes
	system time =     344.02 seconds =       5.73 minutes
	total time  =       1576 seconds =      26.27 minutes
Total time:
	user time   =    6518.85 seconds =     108.65 minutes
	system time =     481.45 seconds =       8.02 minutes
	total time  =       2638 seconds =      43.97 minutes

*** tstart() called on n412-002.vsc4.prov
*** at Thu Aug 13 12:06:38 2020

            **************************
            *                        *
            *        CCENERGY        *
            *                        *
            **************************

    Nuclear Rep. energy (wfn)     =   12.973523896989526
    SCF energy          (wfn)     = -398.720253723918063
    Reference energy    (file100) = -398.720253723916869

    Input parameters:
    -----------------
    Wave function   =     CCSD
    Reference wfn   =     RHF
    Brueckner       =     No
    Memory (Mbytes) =     250000.0
    Maxiter         =     50
    R_Convergence   =     1.0e-07
    E_Convergence   =     1.0e-06
    Restart         =     Yes
    DIIS            =     Yes
    AO Basis        =     NONE
    ABCD            =     NEW
    Cache Level     =     2
    Cache Type      =     LOW
    Print Level     =     1
    Num. of threads =     48
    # Amps to Print =     10
    Print MP2 Amps? =     No
    Analyze T2 Amps =     No
    Print Pair Ener =     No
    Local CC        =     No
    SCS-MP2         =     False
    SCSN-MP2        =     False
    SCS-CCSD        =     False

MP2 correlation energy -0.2172435279280896
                Solving CC Amplitude Equations
                ------------------------------
  Iter             Energy              RMS        T1Diag      D1Diag    New D1Diag    D2Diag
  ----     ---------------------    ---------   ----------  ----------  ----------   --------
     0        -0.217243527928067    0.000e+00    0.000000    0.000000    0.000000    0.137938
     1        -0.249350492911030    2.027e-01    0.014756    0.024806    0.024806    0.172523
     2        -0.238481153869681    2.887e-02    0.010591    0.018219    0.018219    0.162436
     3        -0.235477657972164    6.307e-03    0.010786    0.018637    0.018637    0.159511
     4        -0.235292114007402    1.416e-03    0.010679    0.018466    0.018466    0.159101
     5        -0.235229201324061    4.051e-04    0.010667    0.018471    0.018471    0.158942
     6        -0.235214997950428    1.085e-04    0.010669    0.018490    0.018490    0.158900
     7        -0.235218101389814    2.847e-05    0.010669    0.018494    0.018494    0.158895
     8        -0.235218463796067    7.343e-06    0.010669    0.018496    0.018496    0.158894
     9        -0.235218160242526    2.267e-06    0.010670    0.018498    0.018498    0.158894
    10        -0.235218140176493    6.650e-07    0.010670    0.018498    0.018498    0.158894
    11        -0.235218160928288    2.243e-07    0.010670    0.018498    0.018498    0.158894
    12        -0.235218160444784    7.247e-08    0.010670    0.018498    0.018498    0.158894
    12        -0.235218160444784    7.247e-08    0.010670    0.018498    0.018498    0.158894

    Iterations converged.


    CCSD corr. energy   =   -0.235218160444784
    PPL corr. energy    =    0.071197629537360
    OS PPL corr. energy =    0.061840602799717
    SS PPL corr. energy =    0.009357026737643
    Largest TIA Amplitudes:
              3 322         0.0109495232
              3 326         0.0092870406
              1   9        -0.0077209613
              1   3         0.0076086767
              2 225        -0.0064136875
              2 228         0.0063579826
              3 323        -0.0063197488
              1  10         0.0060579836
              1  12         0.0059680644
              2 229         0.0050276397

    Largest TIjAb Amplitudes:
      1   1 322 322        -0.0298016044
      1   1 322 326        -0.0272292494
      1   1 326 322        -0.0272292494
      2   2   9   9        -0.0271346925
      2   2 144 144        -0.0267917051
      1   1 326 326        -0.0257829895
      3   3 322 322        -0.0253713090
      1   1  10  10        -0.0248111724
      3   3 322 326        -0.0238465943
      3   3 326 322        -0.0238465943

    SCF energy       (wfn)                    = -398.720253723918063
    Reference energy (file100)                = -398.720253723916869

    Opposite-spin MP2 correlation energy      =   -0.175547329548131
    Same-spin MP2 correlation energy          =   -0.041696198379935
    MP2 correlation energy                    =   -0.217243527928090
      * MP2 total energy                      = -398.937497251844945

    Opposite-spin CCSD correlation energy     =   -0.194334452388950
    Same-spin CCSD correlation energy         =   -0.040883706226082
    CCSD correlation energy                   =   -0.235218160444784
      * CCSD total energy                     = -398.955471884361657


*** tstop() called on n412-002.vsc4.prov at Thu Aug 13 12:23:03 2020
Module time:
	user time   =    3050.19 seconds =      50.84 minutes
	system time =     316.90 seconds =       5.28 minutes
	total time  =        985 seconds =      16.42 minutes
Total time:
	user time   =    9569.04 seconds =     159.48 minutes
	system time =     798.35 seconds =      13.31 minutes
	total time  =       3623 seconds =      60.38 minutes

*** Psi4 exiting successfully. Buy a developer a beer!
