
    -----------------------------------------------------------------------
          Psi4: An Open-Source Ab Initio Electronic Structure Package
                               Psi4 1.2a1.dev939 

                         Git: Rev {HEAD} fa1ec19 


    R. M. Parrish, L. A. Burns, D. G. A. Smith, A. C. Simmonett,
    A. E. DePrince III, E. G. Hohenstein, U. Bozkaya, A. Yu. Sokolov,
    R. Di Remigio, R. M. Richard, J. F. Gonthier, A. M. James,
    H. R. McAlexander, A. Kumar, M. Saitow, X. Wang, B. P. Pritchard,
    P. Verma, H. F. Schaefer III, K. Patkowski, R. A. King, E. F. Valeev,
    F. A. Evangelista, J. M. Turney, T. D. Crawford, and C. D. Sherrill,
    J. Chem. Theory Comput. 13(7) pp 3185--3197 (2017).
    (doi: 10.1021/acs.jctc.7b00174)

    -----------------------------------------------------------------------


    Psi4 started on: Friday, 26 April 2019 07:12PM

    Process ID:  26632
    PSIDATADIR: /home/grueneis/src/psi4/objdir/stage/usr/local/psi4/share/psi4
    Memory:     500.0 MiB
    Threads:    1
    
  ==> Input File <==

--------------------------------------------------------------------------
# Any line starting with the # character is a comment line

memory 32000 mb

molecule molecule {
0 1
S          0.0000000000        0.0000000000       -0.0547164095
H          0.0000000000       -0.9606862082        0.8701946977
H          0.0000000000        0.9606862082        0.8701946977
}

set {
  reference rhf
  basis aug-cc-pv(T+d)z
  scf_type OUT_OF_CORE
  freeze_core true
}

energy('ccsd')
--------------------------------------------------------------------------

  Memory set to  29.802 GiB by Python driver.

*** tstart() called on cqc01
*** at Fri Apr 26 19:12:40 2019

   => Loading Basis Set <=

    Name: AUG-CC-PV(T+D)Z
    Role: ORBITAL
    Keyword: BASIS
    atoms 1   entry S          line   928 file /home/grueneis/src/psi4/objdir/stage/usr/local/psi4/share/psi4/basis/aug-cc-pv_tpd_z.gbs 
    atoms 2-3 entry H          line    56 file /home/grueneis/src/psi4/objdir/stage/usr/local/psi4/share/psi4/basis/aug-cc-pv_tpd_z.gbs 


         ---------------------------------------------------------
                                   SCF
            by Justin Turney, Rob Parrish, Andy Simmonett
                             and Daniel Smith
                              RHF Reference
                        1 Threads,  30517 MiB Core
         ---------------------------------------------------------

  ==> Geometry <==

    Molecular point group: c2v
    Full point group: C2v

    Geometry (in Angstrom), charge = 0, multiplicity = 1:

       Center              X                  Y                   Z               Mass       
    ------------   -----------------  -----------------  -----------------  -----------------
           S         -0.000000000000     0.000000000000    -0.054852078169    31.972070999000
           H          0.000000000000    -0.960686208200     0.870059029031     1.007825032070
           H         -0.000000000000     0.960686208200     0.870059029031     1.007825032070

  Running in c2v symmetry.

  Rotational constants: A =     10.39280  B =      9.06188  C =      4.84091 [cm^-1]
  Rotational constants: A = 311568.35846  B = 271668.28896  C = 145126.75637 [MHz]
  Nuclear repulsion =   12.973523896989526

  Charge       = 0
  Multiplicity = 1
  Electrons    = 18
  Nalpha       = 9
  Nbeta        = 9

  ==> Algorithm <==

  SCF Algorithm Type is OUT_OF_CORE.
  DIIS enabled.
  MOM disabled.
  Fractional occupation disabled.
  Guess Type is SAD.
  Energy threshold   = 1.00e-08
  Density threshold  = 1.00e-08
  Integral threshold = 0.00e+00

  ==> Primary Basis <==

  Basis Set: AUG-CC-PV(T+D)Z
    Blend: AUG-CC-PV(T+D)Z
    Number of shells: 35
    Number of basis function: 101
    Number of Cartesian functions: 115
    Spherical Harmonics?: true
    Max angular momentum: 3

  ==> Pre-Iterations <==

   -------------------------------------------------------
    Irrep   Nso     Nmo     Nalpha   Nbeta   Ndocc  Nsocc
   -------------------------------------------------------
     A1        39      39       0       0       0       0
     A2        13      13       0       0       0       0
     B1        20      20       0       0       0       0
     B2        29      29       0       0       0       0
   -------------------------------------------------------
    Total     101     101       9       9       9       0
   -------------------------------------------------------

  ==> Integral Setup <==

  ==> DiskJK: Disk-Based J/K Matrices <==

    J tasked:                  Yes
    K tasked:                  Yes
    wK tasked:                  No
    Memory (MB):             22888
    Schwarz Cutoff:          1E-12

  Minimum eigenvalue in the overlap matrix is 1.5604975495E-04.
  Using Symmetric Orthogonalization.

  SCF Guess: Superposition of Atomic Densities via on-the-fly atomic UHF.

  ==> Iterations <==

                        Total Energy        Delta E     RMS |[F,P]|

   @RHF iter   0:  -398.67522833549845   -3.98675e+02   2.86137e-02 
   @RHF iter   1:  -398.68632427844534   -1.10959e-02   3.57699e-03 
   @RHF iter   2:  -398.71213589065582   -2.58116e-02   1.37121e-03 DIIS
   @RHF iter   3:  -398.71528194453811   -3.14605e-03   3.71581e-04 DIIS
   @RHF iter   4:  -398.71594121638458   -6.59272e-04   9.76482e-05 DIIS
   @RHF iter   5:  -398.71599179380422   -5.05774e-05   1.36507e-05 DIIS
   @RHF iter   6:  -398.71599249186926   -6.98065e-07   4.09188e-06 DIIS
   @RHF iter   7:  -398.71599256294468   -7.10754e-08   1.00800e-06 DIIS
   @RHF iter   8:  -398.71599256864806   -5.70338e-09   2.16442e-07 DIIS
   @RHF iter   9:  -398.71599256889755   -2.49486e-10   2.60922e-08 DIIS
   @RHF iter  10:  -398.71599256889999   -2.44427e-12   4.25246e-09 DIIS

  ==> Post-Iterations <==

    Orbital Energies (a.u.)
    -----------------------

    Doubly Occupied:                                                      

       1A1   -91.965475     2A1    -8.967623     1B2    -6.648979  
       3A1    -6.648209     1B1    -6.646881     4A1    -0.982519  
       2B2    -0.591180     5A1    -0.502468     2B1    -0.385259  

    Virtual:                                                              

       6A1     0.028875     3B2     0.049442     7A1     0.090466  
       3B1     0.100244     4B2     0.108637     8A1     0.141936  
       5B2     0.166802     9A1     0.206845    10A1     0.218964  
       1A2     0.238105     4B1     0.240726     6B2     0.292550  
      11A1     0.331639     7B2     0.340553     5B1     0.363367  
      12A1     0.366534     2A2     0.369151    13A1     0.402276  
       8B2     0.407099     9B2     0.538337    14A1     0.550325  
       6B1     0.581115    15A1     0.607302    16A1     0.678366  
       3A2     0.679571     7B1     0.693394     8B1     0.786585  
      10B2     0.813661    17A1     0.820461    11B2     0.849199  
      12B2     0.875837     4A2     0.878370    18A1     0.887591  
       9B1     0.911822    19A1     0.954656    20A1     0.987833  
      13B2     1.000940     5A2     1.056377    10B1     1.076585  
      14B2     1.083488    21A1     1.106693     6A2     1.127233  
      11B1     1.159266    22A1     1.199191    15B2     1.269084  
      16B2     1.310374    23A1     1.573125    12B1     1.610510  
      17B2     1.614028     7A2     1.648585    24A1     1.670697  
      25A1     1.763044    18B2     1.824391     8A2     1.975120  
      13B1     1.976262    26A1     2.020363    27A1     2.143505  
      19B2     2.211246    14B1     2.350481    15B1     2.370419  
      28A1     2.413250    20B2     2.420347     9A2     2.552682  
      21B2     2.586048    29A1     2.626986    16B1     2.693078  
      30A1     2.853868    22B2     3.101166    31A1     3.435923  
      23B2     3.536228    10A2     3.876183    32A1     3.943963  
      24B2     3.972253    17B1     4.008407    25B2     4.231352  
      18B1     4.307224    11A2     4.332060    33A1     4.396537  
      19B1     4.444205    12A2     4.515145    26B2     4.561679  
      34A1     4.593037    35A1     4.688687    27B2     4.758735  
      36A1     4.961032    28B2     5.382251    37A1     6.915725  
      20B1     7.416942    13A2     7.428720    38A1     7.509902  
      29B2     8.497968    39A1     8.602191  

    Final Occupation by Irrep:
             A1    A2    B1    B2 
    DOCC [     5,    0,    2,    2 ]

  Energy converged.

  @RHF Final Energy:  -398.71599256889999

   => Energetics <=

    Nuclear Repulsion Energy =             12.9735238969895263
    One-Electron Energy =                -576.7018456498162777
    Two-Electron Energy =                 165.0123291839268234
    Total Energy =                       -398.7159925688999920



Properties will be evaluated at   0.000000,   0.000000,   0.000000 Bohr

Properties computed using the SCF density matrix

  Nuclear Dipole Moment: (a.u.)
     X:     0.0000      Y:     0.0000      Z:     1.6299

  Electronic Dipole Moment: (a.u.)
     X:     0.0000      Y:     0.0000      Z:    -1.2071

  Dipole Moment: (a.u.)
     X:     0.0000      Y:     0.0000      Z:     0.4228     Total:     0.4228

  Dipole Moment: (Debye)
     X:     0.0000      Y:     0.0000      Z:     1.0747     Total:     1.0747


*** tstop() called on cqc01 at Fri Apr 26 19:12:44 2019
Module time:
	user time   =       2.24 seconds =       0.04 minutes
	system time =       1.51 seconds =       0.03 minutes
	total time  =          4 seconds =       0.07 minutes
Total time:
	user time   =       2.24 seconds =       0.04 minutes
	system time =       1.51 seconds =       0.03 minutes
	total time  =          4 seconds =       0.07 minutes

*** tstart() called on cqc01
*** at Fri Apr 26 19:12:44 2019


	Wfn Parameters:
	--------------------
	Wavefunction         = CCSD
	Number of irreps     = 4
	Number of MOs        = 101
	Number of active MOs = 96
	AO-Basis             = NONE
	Semicanonical        = false
	Reference            = RHF
	Print Level          = 1

	IRREP	# MOs	# FZDC	# DOCC	# SOCC	# VIRT	# FZVR
	-----	-----	------	------	------	------	------
	 A1	   39	    3	    2	    0	    34	    0
	 A2	   13	    0	    0	    0	    13	    0
	 B1	   20	    1	    1	    0	    18	    0
	 B2	   29	    1	    1	    0	    27	    0
	Transforming integrals...
	IWL integrals will be deleted.
	(OO|OO)...
	Presorting SO-basis two-electron integrals.
	Sorting File: SO Ints (nn|nn) nbuckets = 1
	Transforming the one-electron integrals and constructing Fock matrices
	Starting first half-transformation.
	Sorting half-transformed integrals.
	First half integral transformation complete.
	Starting second half-transformation.
	Two-electron integral transformation complete.
	(OO|OV)...
	Starting second half-transformation.
	Two-electron integral transformation complete.
	(OO|VV)...
	Starting second half-transformation.
	Two-electron integral transformation complete.
	(OV|OO)...
	Starting first half-transformation.
	Sorting half-transformed integrals.
	First half integral transformation complete.
	Starting second half-transformation.
	Two-electron integral transformation complete.
	(OV|OV)...
	Starting second half-transformation.
	Two-electron integral transformation complete.
	(OV|VV)...
	Starting second half-transformation.
	Two-electron integral transformation complete.
	(VV|OO)...
	Starting first half-transformation.
	Sorting half-transformed integrals.
	First half integral transformation complete.
	Starting second half-transformation.
	Two-electron integral transformation complete.
	(VV|OV)...
	Starting second half-transformation.
	Two-electron integral transformation complete.
	(VV|VV)...
	Starting second half-transformation.
	Two-electron integral transformation complete.
	Frozen core energy     =   -395.48721441893019

	Size of irrep 0 of <ab|cd> integrals:      5.655 (MW) /     45.239 (MB)
	Size of irrep 1 of <ab|cd> integrals:      3.445 (MW) /     27.558 (MB)
	Size of irrep 2 of <ab|cd> integrals:      3.709 (MW) /     29.676 (MB)
	Size of irrep 3 of <ab|cd> integrals:      5.308 (MW) /     42.467 (MB)
	Total:                                    18.118 (MW) /    144.940 (MB)

	Size of irrep 0 of <ia|bc> integrals:      0.269 (MW) /      2.150 (MB)
	Size of irrep 1 of <ia|bc> integrals:      0.132 (MW) /      1.054 (MB)
	Size of irrep 2 of <ia|bc> integrals:      0.160 (MW) /      1.279 (MB)
	Size of irrep 3 of <ia|bc> integrals:      0.233 (MW) /      1.862 (MB)
	Total:                                     0.793 (MW) /      6.344 (MB)

	Size of irrep 0 of tijab amplitudes:       0.014 (MW) /      0.114 (MB)
	Size of irrep 1 of tijab amplitudes:       0.004 (MW) /      0.030 (MB)
	Size of irrep 2 of tijab amplitudes:       0.008 (MW) /      0.062 (MB)
	Size of irrep 3 of tijab amplitudes:       0.009 (MW) /      0.074 (MB)
	Total:                                     0.035 (MW) /      0.279 (MB)

	Nuclear Rep. energy          =     12.97352389698953
	SCF energy                   =   -398.71599256889999
	One-electron energy          =    -27.48175190289898
	Two-electron energy          =     11.27944985593689
	Reference energy             =   -398.71599256890278

*** tstop() called on cqc01 at Fri Apr 26 19:12:53 2019
Module time:
	user time   =       1.12 seconds =       0.02 minutes
	system time =       0.56 seconds =       0.01 minutes
	total time  =          9 seconds =       0.15 minutes
Total time:
	user time   =       3.36 seconds =       0.06 minutes
	system time =       2.07 seconds =       0.03 minutes
	total time  =         13 seconds =       0.22 minutes

*** tstart() called on cqc01
*** at Fri Apr 26 19:12:53 2019

            **************************
            *                        *
            *        CCENERGY        *
            *                        *
            **************************

    Nuclear Rep. energy (wfn)     =   12.973523896989526
    SCF energy          (wfn)     = -398.715992568899992
    Reference energy    (file100) = -398.715992568902777

    Input parameters:
    -----------------
    Wave function   =     CCSD
    Reference wfn   =     RHF
    Brueckner       =     No
    Memory (Mbytes) =     32000.0
    Maxiter         =     50
    R_Convergence   =     1.0e-07
    E_Convergence   =     1.0e-06
    Restart         =     Yes
    DIIS            =     Yes
    AO Basis        =     NONE
    ABCD            =     NEW
    Cache Level     =     2
    Cache Type      =     LOW
    Print Level     =     1
    Num. of threads =     1
    # Amps to Print =     10
    Print MP2 Amps? =     No
    Analyze T2 Amps =     No
    Print Pair Ener =     No
    Local CC        =     No
    SCS-MP2         =     False
    SCSN-MP2        =     False
    SCS-CCSD        =     False

MP2 correlation energy -0.1950212331872651
                Solving CC Amplitude Equations
                ------------------------------
  Iter             Energy              RMS        T1Diag      D1Diag    New D1Diag    D2Diag
  ----     ---------------------    ---------   ----------  ----------  ----------   --------
     0        -0.195021233187258    0.000e+00    0.000000    0.000000    0.000000    0.135265
     1        -0.239111594195013    1.849e-01    0.013238    0.022161    0.022161    0.176206
     2        -0.220675349137917    2.977e-02    0.010098    0.017278    0.017278    0.162377
     3        -0.219213321546681    4.792e-03    0.010155    0.017363    0.017363    0.160499
     4        -0.219015599222348    1.241e-03    0.010070    0.017266    0.017266    0.160107
     5        -0.218924800438596    3.457e-04    0.010056    0.017260    0.017260    0.159944
     6        -0.218924467330230    8.436e-05    0.010056    0.017275    0.017275    0.159919
     7        -0.218928128599312    2.028e-05    0.010056    0.017278    0.017278    0.159918
     8        -0.218927123247283    5.752e-06    0.010056    0.017280    0.017280    0.159917
     9        -0.218927053146593    1.628e-06    0.010056    0.017281    0.017281    0.159916
    10        -0.218927083928447    5.423e-07    0.010056    0.017281    0.017281    0.159916
    11        -0.218927088609569    1.814e-07    0.010056    0.017281    0.017281    0.159916
    12        -0.218927088010545    4.986e-08    0.010056    0.017281    0.017281    0.159916
    12        -0.218927088010545    4.986e-08    0.010056    0.017281    0.017281    0.159916

    Iterations converged.


    CCSD corr. energy   =   -0.218927088010545
    PPL corr. energy    =    0.060895774972331
    OS PPL corr. energy =    0.052150313001915
    SS PPL corr. energy =    0.008745461970416
    Largest TIA Amplitudes:
              1   3         0.0108175661
              3  67         0.0105057799
              2  48         0.0100102507
              3  66         0.0075642983
              1  11         0.0069529877
              3  68        -0.0065168652
              1   6        -0.0060690728
              2  51        -0.0055142483
              3  72         0.0050113554
              0   7         0.0048138823

    Largest TIjAb Amplitudes:
      1   1  67  67        -0.0407706052
      3   3  67  67        -0.0358345641
      2   2  50  50        -0.0323691567
      2   2  36  36        -0.0317180260
      2   2  51  51        -0.0307122980
      1   1   9   9        -0.0285750948
      1   1  66  67        -0.0270436464
      1   1  67  66        -0.0270436464
      1   1   4   4        -0.0263366053
      2   2   4   4        -0.0259036736

    SCF energy       (wfn)                    = -398.715992568899992
    Reference energy (file100)                = -398.715992568902777

    Opposite-spin MP2 correlation energy      =   -0.155025567189642
    Same-spin MP2 correlation energy          =   -0.039995665997615
    MP2 correlation energy                    =   -0.195021233187265
      * MP2 total energy                      = -398.911013802090054

    Opposite-spin CCSD correlation energy     =   -0.179465318520723
    Same-spin CCSD correlation energy         =   -0.039461768714097
    CCSD correlation energy                   =   -0.218927088010545
      * CCSD total energy                     = -398.934919656913337


*** tstop() called on cqc01 at Fri Apr 26 19:12:59 2019
Module time:
	user time   =       0.96 seconds =       0.02 minutes
	system time =       2.35 seconds =       0.04 minutes
	total time  =          6 seconds =       0.10 minutes
Total time:
	user time   =       4.32 seconds =       0.07 minutes
	system time =       4.42 seconds =       0.07 minutes
	total time  =         19 seconds =       0.32 minutes

*** Psi4 exiting successfully. Buy a developer a beer!
