
    -----------------------------------------------------------------------
          Psi4: An Open-Source Ab Initio Electronic Structure Package
                               Psi4 1.2a1.dev938 

                         Git: Rev {HEAD} fc51d9a dirty


    R. M. Parrish, L. A. Burns, D. G. A. Smith, A. C. Simmonett,
    A. E. DePrince III, E. G. Hohenstein, U. Bozkaya, A. Yu. Sokolov,
    R. Di Remigio, R. M. Richard, J. F. Gonthier, A. M. James,
    H. R. McAlexander, A. Kumar, M. Saitow, X. Wang, B. P. Pritchard,
    P. Verma, H. F. Schaefer III, K. Patkowski, R. A. King, E. F. Valeev,
    F. A. Evangelista, J. M. Turney, T. D. Crawford, and C. D. Sherrill,
    J. Chem. Theory Comput. 13(7) pp 3185--3197 (2017).
    (doi: 10.1021/acs.jctc.7b00174)

    -----------------------------------------------------------------------


    Psi4 started on: Friday, 21 August 2020 03:44AM

    Process ID: 427051
    PSIDATADIR: /home/irmler/Programs/psi4/beforeGrueneis3/stage/usr/local/psi4/share/psi4
    Memory:     500.0 MiB
    Threads:    4
    
  ==> Input File <==

--------------------------------------------------------------------------
# Any line starting with the # character is a comment line
memory 250000 mb
molecule molecule{
1 2
N          0.0000000000        0.0000000000        0.5700849120
N          0.0000000000        0.0000000000       -0.5700849120
}

set {
  reference uhf
  basis aug-cc-pv(5+d)z
  scf_type OUT_OF_CORE
  freeze_core true
}

energy('ccsd')
--------------------------------------------------------------------------

  Memory set to 232.831 GiB by Python driver.

*** tstart() called on cqc05
*** at Fri Aug 21 03:44:11 2020

   => Loading Basis Set <=

    Name: AUG-CC-PV(5+D)Z
    Role: ORBITAL
    Keyword: BASIS
    atoms 1-2 entry N          line   300 file /home/irmler/Programs/psi4/beforeGrueneis3/stage/usr/local/psi4/share/psi4/basis/aug-cc-pv_5pd_z.gbs 


         ---------------------------------------------------------
                                   SCF
            by Justin Turney, Rob Parrish, Andy Simmonett
                             and Daniel Smith
                              UHF Reference
                        4 Threads, 238418 MiB Core
         ---------------------------------------------------------

  ==> Geometry <==

    Molecular point group: d2h
    Full point group: D_inf_h

    Geometry (in Angstrom), charge = 1, multiplicity = 2:

       Center              X                  Y                   Z               Mass       
    ------------   -----------------  -----------------  -----------------  -----------------
           N          0.000000000000     0.000000000000     0.570084912000    14.003074004780
           N          0.000000000000     0.000000000000    -0.570084912000    14.003074004780

  Running in d2h symmetry.

  Rotational constants: A = ************  B =      1.85210  C =      1.85210 [cm^-1]
  Rotational constants: A = ************  B =  55524.50843  C =  55524.50843 [MHz]
  Nuclear repulsion =   22.741948326559111

  Charge       = 1
  Multiplicity = 2
  Electrons    = 13
  Nalpha       = 7
  Nbeta        = 6

  ==> Algorithm <==

  SCF Algorithm Type is OUT_OF_CORE.
  DIIS enabled.
  MOM disabled.
  Fractional occupation disabled.
  Guess Type is GWH.
  Energy threshold   = 1.00e-08
  Density threshold  = 1.00e-08
  Integral threshold = 0.00e+00

  ==> Primary Basis <==

  Basis Set: AUG-CC-PV(5+D)Z
    Blend: AUG-CC-PV(5+D)Z
    Number of shells: 54
    Number of basis function: 254
    Number of Cartesian functions: 364
    Spherical Harmonics?: true
    Max angular momentum: 5

  ==> Pre-Iterations <==

   -------------------------------------------------------
    Irrep   Nso     Nmo     Nalpha   Nbeta   Ndocc  Nsocc
   -------------------------------------------------------
     Ag        46      46       0       0       0       0
     B1g       19      19       0       0       0       0
     B2g       31      31       0       0       0       0
     B3g       31      31       0       0       0       0
     Au        19      19       0       0       0       0
     B1u       46      46       0       0       0       0
     B2u       31      31       0       0       0       0
     B3u       31      31       0       0       0       0
   -------------------------------------------------------
    Total     254     254       7       6       6       1
   -------------------------------------------------------

  ==> Integral Setup <==

  ==> DiskJK: Disk-Based J/K Matrices <==

    J tasked:                  Yes
    K tasked:                  Yes
    wK tasked:                  No
    Memory (MB):            178813
    Schwarz Cutoff:          1E-12

  Minimum eigenvalue in the overlap matrix is 7.0359881535E-06.
  Using Symmetric Orthogonalization.

  SCF Guess: Generalized Wolfsberg-Helmholtz.

  ==> Iterations <==

                        Total Energy        Delta E     RMS |[F,P]|

    Occupation by irrep:
             Ag   B1g   B2g   B3g    Au   B1u   B2u   B3u 
    DOCC [     2,    0,    0,    0,    0,    2,    1,    1 ]
    SOCC [     1,    0,    0,    0,    0,    0,    0,    0 ]

   @UHF iter   1:   -84.46795876108260   -8.44680e+01   1.89652e-01 
   @UHF iter   2:  -107.12980444793145   -2.26618e+01   3.51958e-02 DIIS
   @UHF iter   3:  -108.36707025505522   -1.23727e+00   7.70453e-03 DIIS
   @UHF iter   4:  -108.40923638389076   -4.21661e-02   6.75423e-04 DIIS
   @UHF iter   5:  -108.41011961970212   -8.83236e-04   1.57802e-04 DIIS
   @UHF iter   6:  -108.41016812302888   -4.85033e-05   2.49461e-05 DIIS
   @UHF iter   7:  -108.41016990133207   -1.77830e-06   7.61592e-06 DIIS
   @UHF iter   8:  -108.41017009066442   -1.89332e-07   1.04909e-06 DIIS
   @UHF iter   9:  -108.41017009400036   -3.33594e-09   2.19639e-07 DIIS
   @UHF iter  10:  -108.41017009412084   -1.20480e-10   3.45256e-08 DIIS
   @UHF iter  11:  -108.41017009412428   -3.43903e-12   3.44583e-09 DIIS

  ==> Post-Iterations <==

   @Spin Contamination Metric:   1.976811718E-02
   @S^2 Expected:                7.500000000E-01
   @S^2 Observed:                7.697681172E-01
   @S   Expected:                5.000000000E-01
   @S   Observed:                5.000000000E-01

    Orbital Energies (a.u.)
    -----------------------

    Alpha Occupied:                                                       

       1Ag   -16.194714     1B1u  -16.191741     2Ag    -1.897469  
       2B1u   -1.280537     3Ag    -1.139978     1B2u   -1.019095  
       1B3u   -1.019095  

    Alpha Virtual:                                                        

       1B2g   -0.267612     1B3g   -0.267612     4Ag    -0.110491  
       3B1u   -0.088628     2B3u   -0.082645     2B2u   -0.082645  
       5Ag    -0.042731     2B2g   -0.027905     2B3g   -0.027905  
       4B1u    0.029283     6Ag     0.053127     1B1g    0.053127  
       7Ag     0.104886     3B3u    0.141723     3B2u    0.141723  
       5B1u    0.144226     3B2g    0.156910     3B3g    0.156910  
       6B1u    0.163377     1Au     0.163377     4B2u    0.173870  
       4B3u    0.173870     8Ag     0.230607     7B1u    0.259293  
       9Ag     0.377599     4B2g    0.395870     4B3g    0.395870  
       8B1u    0.408756     5B3u    0.482879     5B2u    0.482879  
       2B1g    0.535655    10Ag     0.535655     6B2u    0.581720  
       6B3u    0.581720     9B1u    0.603873     2Au     0.603873  
      10B1u    0.665859     5B2g    0.671700     5B3g    0.671700  
      11Ag     0.675139     6B3g    0.677506     6B2g    0.677506  
       3B1g    0.681077    12Ag     0.681077    11B1u    0.767874  
      13Ag     0.857122     7B2u    0.888770     7B3u    0.888770  
       8B2u    1.037423     8B3u    1.037423    12B1u    1.052391  
       3Au     1.052391     7B2g    1.105587     7B3g    1.105587  
      13B1u    1.186688    14B1u    1.473088    14Ag     1.531092  
       8B2g    1.557389     8B3g    1.557389    15Ag     1.718594  
       4B1g    1.718594    16Ag     1.722436     9B2u    1.799092  
       9B3u    1.799092     5B1g    1.809923    17Ag     1.809923  
      10B2u    1.879514    10B3u    1.879514     9B2g    2.026394  
       9B3g    2.026394    18Ag     2.027872     6B1g    2.027872  
      11B2u    2.030769    11B3u    2.030769    12B2u    2.032934  
      12B3u    2.032934    15B1u    2.051871     4Au     2.062190  
      16B1u    2.062190     5Au     2.082275    17B1u    2.082275  
      18B1u    2.088201     6Au     2.088201    19Ag     2.115477  
      10B2g    2.296270    10B3g    2.296270    19B1u    2.448452  
      20Ag     2.460475    11B2g    2.533433    11B3g    2.533433  
      12B3g    2.634247    12B2g    2.634247    21Ag     2.668518  
       7B1g    2.668518    13B2u    3.101447    13B3u    3.101447  
      20B1u    3.101633    13B2g    3.428203    13B3g    3.428203  
      14B2u    3.527423    14B3u    3.527423     7Au     3.580356  
      21B1u    3.580356    22Ag     3.633095    22B1u    3.735097  
      23Ag     4.143665    15B2u    4.171660    15B3u    4.171660  
      24Ag     4.306373     8B1g    4.306373    14B2g    4.587570  
      14B3g    4.587570    15B2g    4.637612    15B3g    4.637612  
      16B2u    4.757457    16B3u    4.757457    17B2u    4.776630  
      17B3u    4.776630     9B1g    4.826321    25Ag     4.826321  
      23B1u    4.827520     8Au     4.853892    24B1u    4.853892  
      26Ag     5.122718    10B1g    5.135003    27Ag     5.135003  
       9Au     5.200416    25B1u    5.200416    26B1u    5.213718  
      16B2g    5.231372    16B3g    5.231372    17B3g    5.251064  
      17B2g    5.251064    18B2u    5.267200    18B3u    5.267200  
      11B1g    5.324358    28Ag     5.324358    27B1u    5.343836  
      10Au     5.343836    29Ag     5.406021    19B2u    5.412908  
      19B3u    5.412908    20B2u    5.515144    20B3u    5.515144  
      11Au     5.582874    28B1u    5.582874    18B2g    5.589529  
      18B3g    5.589529    21B2u    5.833894    21B3u    5.833894  
      19B2g    6.004930    19B3g    6.004930    30Ag     6.082868  
      12B1g    6.082868    31Ag     6.414509    29B1u    6.460618  
      13B1g    6.893120    32Ag     6.893120    20B3g    6.998323  
      20B2g    6.998323    12Au     7.027341    30B1u    7.027341  
      21B2g    7.476685    21B3g    7.476685    31B1u    7.603242  
      32B1u    7.841468    33Ag     8.287252    22B2u    8.378375  
      22B3u    8.378375    13Au     8.621261    33B1u    8.621261  
      34Ag     9.117685    22B2g    9.422255    22B3g    9.422255  
      23B3u   11.450277    23B2u   11.450277    14B1g   11.613237  
      35Ag    11.613237    15B1g   11.797641    36Ag    11.797641  
      24B2u   11.837947    24B3u   11.837947    25B2u   11.880441  
      25B3u   11.880441    34B1u   11.894287    23B3g   12.070507  
      23B2g   12.070507    37Ag    12.080897    26B2u   12.144315  
      26B3u   12.144315    24B2g   12.433187    24B3g   12.433187  
      14Au    12.591428    35B1u   12.591428    25B3g   12.793677  
      25B2g   12.793677    36B1u   13.001322    15Au    13.001322  
      37B1u   13.111809    26B3g   13.391145    26B2g   13.391145  
      38Ag    13.574354    27B3u   13.848695    27B2u   13.848695  
      39Ag    13.919248    28B3u   13.996437    28B2u   13.996437  
      40Ag    14.105007    16B1g   14.105007    29B2u   14.219239  
      29B3u   14.219239    16Au    14.263995    38B1u   14.263995  
      41Ag    14.266640    17B1g   14.266640    27B3g   14.335087  
      27B2g   14.335087    18B1g   14.748838    42Ag    14.748838  
      28B3g   14.799637    28B2g   14.799637    39B1u   15.016784  
      17Au    15.296141    40B1u   15.296141    41B1u   15.591114  
      29B3g   16.076078    29B2g   16.076078    42B1u   16.155134  
      18Au    16.345604    43B1u   16.345604    30B2u   16.373332  
      30B3u   16.373332    19B1g   17.059812    43Ag    17.059812  
      44Ag    17.398552    30B2g   17.955230    30B3g   17.955230  
      19Au    18.298436    44B1u   18.298436    31B2u   18.913456  
      31B3u   18.913456    31B2g   20.091181    31B3g   20.091181  
      45Ag    21.193586    45B1u   21.591473    46Ag    48.630585  
      46B1u   54.576958  

    Beta Occupied:                                                        

       1Ag   -16.174416     1B1u  -16.172584     2Ag    -1.826354  
       2B1u   -1.055462     1B2u   -1.004162     1B3u   -1.004162  

    Beta Virtual:                                                         

       3Ag    -0.514247     1B2g   -0.238331     1B3g   -0.238331  
       4Ag    -0.097465     3B1u   -0.087050     2B3u   -0.082106  
       2B2u   -0.082106     5Ag    -0.041306     2B2g   -0.027008  
       2B3g   -0.027008     4B1u    0.031632     6Ag     0.053122  
       1B1g    0.053122     7Ag     0.110618     3B3u    0.144091  
       3B2u    0.144091     5B1u    0.150770     3B2g    0.158583  
       3B3g    0.158583     6B1u    0.163604     1Au     0.163604  
       4B2u    0.175303     4B3u    0.175303     8Ag     0.257041  
       7B1u    0.262446     9Ag     0.387629     4B2g    0.397865  
       4B3g    0.397865     5B3u    0.482758     5B2u    0.482758  
       8B1u    0.486905    10Ag     0.534587     2B1g    0.534587  
       6B2u    0.594885     6B3u    0.594885     2Au     0.606112  
       9B1u    0.606112    10B1u    0.668174     5B2g    0.674883  
       5B3g    0.674883     6B3g    0.677706     6B2g    0.677706  
      11Ag     0.681016     3B1g    0.683064    12Ag     0.683064  
      11B1u    0.800336    13Ag     0.888700     7B2u    0.901196  
       7B3u    0.901196     8B2u    1.046977     8B3u    1.046977  
      12B1u    1.053918     3Au     1.053918     7B2g    1.111872  
       7B3g    1.111872    13B1u    1.219796    14B1u    1.496358  
       8B2g    1.565335     8B3g    1.565335    14Ag     1.569212  
      15Ag     1.718295     4B1g    1.718295    16Ag     1.734378  
       9B2u    1.797519     9B3u    1.797519    17Ag     1.809311  
       5B1g    1.809311    10B2u    1.909805    10B3u    1.909805  
       9B2g    2.029134     9B3g    2.029134    11B2u    2.035679  
      11B3u    2.035679    18Ag     2.038496     6B1g    2.038496  
      12B2u    2.044002    12B3u    2.044002    15B1u    2.059502  
       4Au     2.072620    16B1u    2.072620    17B1u    2.082560  
       5Au     2.082560    18B1u    2.089016     6Au     2.089016  
      19Ag     2.158234    10B2g    2.308247    10B3g    2.308247  
      20Ag     2.475409    19B1u    2.478410    11B2g    2.552863  
      11B3g    2.552863    12B3g    2.633782    12B2g    2.633782  
      21Ag     2.672656     7B1g    2.672656    13B2u    3.114724  
      13B3u    3.114724    20B1u    3.138641    13B2g    3.436145  
      13B3g    3.436145    14B2u    3.537535    14B3u    3.537535  
       7Au     3.580216    21B1u    3.580216    22Ag     3.672257  
      22B1u    3.745395    23Ag     4.162442    15B2u    4.171363  
      15B3u    4.171363    24Ag     4.306645     8B1g    4.306645  
      14B2g    4.608313    14B3g    4.608313    15B2g    4.637835  
      15B3g    4.637835    16B2u    4.756920    16B3u    4.756920  
      17B2u    4.794624    17B3u    4.794624     9B1g    4.838532  
      25Ag     4.838532    23B1u    4.860076     8Au     4.864294  
      24B1u    4.864294    10B1g    5.136528    26Ag     5.136528  
      27Ag     5.156959     9Au     5.204495    25B1u    5.204495  
      26B1u    5.231992    16B2g    5.250258    16B3g    5.250258  
      17B3g    5.261211    17B2g    5.261211    18B2u    5.277253  
      18B3u    5.277253    11B1g    5.336757    28Ag     5.336757  
      27B1u    5.360435    10Au     5.360435    19B2u    5.436065  
      19B3u    5.436065    29Ag     5.444704    20B2u    5.517858  
      20B3u    5.517858    11Au     5.581901    28B1u    5.581901  
      18B2g    5.591217    18B3g    5.591217    21B2u    5.859176  
      21B3u    5.859176    19B2g    6.011316    19B3g    6.011316  
      30Ag     6.094716    12B1g    6.094716    31Ag     6.429137  
      29B1u    6.494372    13B1g    6.898217    32Ag     6.898217  
      20B3g    6.998963    20B2g    6.998963    12Au     7.029211  
      30B1u    7.029211    21B2g    7.499941    21B3g    7.499941  
      31B1u    7.612711    32B1u    7.880498    33Ag     8.326255  
      22B2u    8.402311    22B3u    8.402311    13Au     8.630646  
      33B1u    8.630646    34Ag     9.140202    22B2g    9.445073  
      22B3g    9.445073    23B3u   11.458673    23B2u   11.458673  
      14B1g   11.618615    35Ag    11.618615    15B1g   11.811259  
      36Ag    11.811259    24B3u   11.838872    24B2u   11.838872  
      25B2u   11.892836    25B3u   11.892836    34B1u   11.914496  
      23B3g   12.071363    23B2g   12.071363    37Ag    12.106586  
      26B2u   12.159078    26B3u   12.159078    24B2g   12.449676  
      24B3g   12.449676    14Au    12.596553    35B1u   12.596553  
      25B3g   12.804785    25B2g   12.804785    36B1u   13.026071  
      15Au    13.026071    37B1u   13.129138    26B3g   13.405213  
      26B2g   13.405213    38Ag    13.594953    27B3u   13.879577  
      27B2u   13.879577    39Ag    13.948708    28B3u   13.998607  
      28B2u   13.998607    40Ag    14.107407    16B1g   14.107407  
      29B3u   14.233008    29B2u   14.233008    16Au    14.266299  
      38B1u   14.266299    41Ag    14.290793    17B1g   14.290793  
      27B3g   14.338671    27B2g   14.338671    18B1g   14.760624  
      42Ag    14.760624    28B3g   14.805989    28B2g   14.805989  
      39B1u   15.054274    40B1u   15.305298    17Au    15.305298  
      41B1u   15.610186    29B3g   16.092307    29B2g   16.092307  
      42B1u   16.175478    18Au    16.358353    43B1u   16.358353  
      30B2u   16.391378    30B3u   16.391378    19B1g   17.065140  
      43Ag    17.065140    44Ag    17.430278    30B2g   17.981394  
      30B3g   17.981394    19Au    18.303962    44B1u   18.303962  
      31B2u   18.934498    31B3u   18.934498    31B2g   20.108145  
      31B3g   20.108145    45Ag    21.220113    45B1u   21.620070  
      46Ag    48.637247    46B1u   54.582561  

    Final Occupation by Irrep:
             Ag   B1g   B2g   B3g    Au   B1u   B2u   B3u 
    DOCC [     2,    0,    0,    0,    0,    2,    1,    1 ]
    SOCC [     1,    0,    0,    0,    0,    0,    0,    0 ]

  Energy converged.

  @UHF Final Energy:  -108.41017009412428

   => Energetics <=

    Nuclear Repulsion Energy =             22.7419483265591111
    One-Electron Energy =                -186.3244685583953810
    Two-Electron Energy =                  55.1723501377119874
    Total Energy =                       -108.4101700941242825


  UHF NO Occupations:
  HONO-2 :    2 Ag 1.9994280
  HONO-1 :    2B1u 1.9910299
  HONO-0 :    3 Ag 1.0000000
  LUNO+0 :    3B1u 0.0089701
  LUNO+1 :    4 Ag 0.0005720
  LUNO+2 :    2B2u 0.0001904
  LUNO+3 :    2B3u 0.0001904



Properties will be evaluated at   0.000000,   0.000000,   0.000000 Bohr

Properties computed using the SCF density matrix

  Nuclear Dipole Moment: (a.u.)
     X:     0.0000      Y:     0.0000      Z:     0.0000

  Electronic Dipole Moment: (a.u.)
     X:     0.0000      Y:     0.0000      Z:     0.0000

  Dipole Moment: (a.u.)
     X:     0.0000      Y:     0.0000      Z:     0.0000     Total:     0.0000

  Dipole Moment: (Debye)
     X:     0.0000      Y:     0.0000      Z:     0.0000     Total:     0.0000


*** tstop() called on cqc05 at Fri Aug 21 03:45:19 2020
Module time:
	user time   =      66.94 seconds =       1.12 minutes
	system time =       2.23 seconds =       0.04 minutes
	total time  =         68 seconds =       1.13 minutes
Total time:
	user time   =      66.94 seconds =       1.12 minutes
	system time =       2.23 seconds =       0.04 minutes
	total time  =         68 seconds =       1.13 minutes

*** tstart() called on cqc05
*** at Fri Aug 21 03:45:19 2020


	Wfn Parameters:
	--------------------
	Wavefunction         = CCSD
	Number of irreps     = 8
	Number of MOs        = 254
	Number of active MOs = 252
	AO-Basis             = NONE
	Semicanonical        = false
	Reference            = UHF
	Print Level          = 1

	IRREP	# MOs	# FZDC	# DOCC	# SOCC	# VIRT	# FZVR
	-----	-----	------	------	------	------	------
	 Ag	   46	    1	    1	    1	    43	    0
	 B1g	   19	    0	    0	    0	    19	    0
	 B2g	   31	    0	    0	    0	    31	    0
	 B3g	   31	    0	    0	    0	    31	    0
	 Au	   19	    0	    0	    0	    19	    0
	 B1u	   46	    1	    1	    0	    44	    0
	 B2u	   31	    0	    1	    0	    30	    0
	 B3u	   31	    0	    1	    0	    30	    0
	Transforming integrals...
	IWL integrals will be deleted.
	(OO|OO)...
	Presorting SO-basis two-electron integrals.
	Sorting File: SO Ints (nn|nn) nbuckets = 1
	Transforming the one-electron integrals and constructing Fock matrices
	Starting AA/AB first half-transformation.
	Sorting AA/AB half-transformed integrals.
	Starting BB first half-transformation.
	Sorting BB half-transformed integrals.
	First half integral transformation complete.
	Starting AA second half-transformation.
	Starting AB second half-transformation.
	Starting BB second half-transformation.
	Two-electron integral transformation complete.
	(OO|OV)...
	Starting AA second half-transformation.
	Starting AB second half-transformation.
	Starting BB second half-transformation.
	Two-electron integral transformation complete.
	(OO|VV)...
	Starting AA second half-transformation.
	Starting AB second half-transformation.
	Starting BB second half-transformation.
	Two-electron integral transformation complete.
	(OV|OO)...
	Starting AA/AB first half-transformation.
	Sorting AA/AB half-transformed integrals.
	Starting BB first half-transformation.
	Sorting BB half-transformed integrals.
	First half integral transformation complete.
	Starting AA second half-transformation.
	Starting AB second half-transformation.
	Starting BB second half-transformation.
	Two-electron integral transformation complete.
	(OV|OV)...
	Starting AA second half-transformation.
	Starting AB second half-transformation.
	Starting BB second half-transformation.
	Two-electron integral transformation complete.
	(OV|VV)...
	Starting AA second half-transformation.
	Starting AB second half-transformation.
	Starting BB second half-transformation.
	Two-electron integral transformation complete.
	(VV|OO)...
	Starting AA/AB first half-transformation.
	Sorting AA/AB half-transformed integrals.
	Starting BB first half-transformation.
	Sorting BB half-transformed integrals.
	First half integral transformation complete.
	Starting AA second half-transformation.
	Starting AB second half-transformation.
	Starting BB second half-transformation.
	Two-electron integral transformation complete.
	(VV|OV)...
	Starting AA second half-transformation.
	Starting AB second half-transformation.
	Starting BB second half-transformation.
	Two-electron integral transformation complete.
	(VV|VV)...
	Starting AA second half-transformation.
	Starting AB second half-transformation.
	Starting BB second half-transformation.
	Two-electron integral transformation complete.
	Frozen core energy     =   -100.60800004398614

	Size of irrep 0 of <AB|CD> integrals:     15.928 (MW) /    127.425 (MB)
	Size of irrep 1 of <AB|CD> integrals:     12.348 (MW) /     98.786 (MB)
	Size of irrep 2 of <AB|CD> integrals:     14.531 (MW) /    116.251 (MB)
	Size of irrep 3 of <AB|CD> integrals:     14.531 (MW) /    116.251 (MB)
	Size of irrep 4 of <AB|CD> integrals:     12.341 (MW) /     98.729 (MB)
	Size of irrep 5 of <AB|CD> integrals:     16.917 (MW) /    135.334 (MB)
	Size of irrep 6 of <AB|CD> integrals:     14.539 (MW) /    116.312 (MB)
	Size of irrep 7 of <AB|CD> integrals:     14.539 (MW) /    116.312 (MB)
	Total:                                   115.675 (MW) /    925.399 (MB)

	Size of irrep 0 of <ab|cd> integrals:     16.273 (MW) /    130.185 (MB)
	Size of irrep 1 of <ab|cd> integrals:     12.482 (MW) /     99.857 (MB)
	Size of irrep 2 of <ab|cd> integrals:     14.769 (MW) /    118.149 (MB)
	Size of irrep 3 of <ab|cd> integrals:     14.769 (MW) /    118.149 (MB)
	Size of irrep 4 of <ab|cd> integrals:     12.475 (MW) /     99.800 (MB)
	Size of irrep 5 of <ab|cd> integrals:     17.281 (MW) /    138.245 (MB)
	Size of irrep 6 of <ab|cd> integrals:     14.769 (MW) /    118.149 (MB)
	Size of irrep 7 of <ab|cd> integrals:     14.769 (MW) /    118.149 (MB)
	Total:                                   117.586 (MW) /    940.684 (MB)

	Size of irrep 0 of <Ab|Cd> integrals:     68.426 (MW) /    547.408 (MB)
	Size of irrep 1 of <Ab|Cd> integrals:     49.660 (MW) /    397.282 (MB)
	Size of irrep 2 of <Ab|Cd> integrals:     58.599 (MW) /    468.792 (MB)
	Size of irrep 3 of <Ab|Cd> integrals:     58.599 (MW) /    468.792 (MB)
	Size of irrep 4 of <Ab|Cd> integrals:     49.632 (MW) /    397.056 (MB)
	Size of irrep 5 of <Ab|Cd> integrals:     68.393 (MW) /    547.143 (MB)
	Size of irrep 6 of <Ab|Cd> integrals:     58.614 (MW) /    468.915 (MB)
	Size of irrep 7 of <Ab|Cd> integrals:     58.614 (MW) /    468.915 (MB)
	Total:                                   470.538 (MW) /   3764.303 (MB)

	Size of irrep 0 of <IA|BC> integrals:      1.564 (MW) /     12.508 (MB)
	Size of irrep 1 of <IA|BC> integrals:      0.822 (MW) /      6.578 (MB)
	Size of irrep 2 of <IA|BC> integrals:      1.182 (MW) /      9.454 (MB)
	Size of irrep 3 of <IA|BC> integrals:      1.182 (MW) /      9.454 (MB)
	Size of irrep 4 of <IA|BC> integrals:      0.836 (MW) /      6.689 (MB)
	Size of irrep 5 of <IA|BC> integrals:      1.588 (MW) /     12.701 (MB)
	Size of irrep 6 of <IA|BC> integrals:      1.167 (MW) /      9.334 (MB)
	Size of irrep 7 of <IA|BC> integrals:      1.167 (MW) /      9.334 (MB)
	Total:                                     9.506 (MW) /     76.052 (MB)

	Size of irrep 0 of <ia|bc> integrals:      1.231 (MW) /      9.846 (MB)
	Size of irrep 1 of <ia|bc> integrals:      0.692 (MW) /      5.540 (MB)
	Size of irrep 2 of <ia|bc> integrals:      0.953 (MW) /      7.625 (MB)
	Size of irrep 3 of <ia|bc> integrals:      0.953 (MW) /      7.625 (MB)
	Size of irrep 4 of <ia|bc> integrals:      0.706 (MW) /      5.651 (MB)
	Size of irrep 5 of <ia|bc> integrals:      1.247 (MW) /      9.977 (MB)
	Size of irrep 6 of <ia|bc> integrals:      0.953 (MW) /      7.625 (MB)
	Size of irrep 7 of <ia|bc> integrals:      0.953 (MW) /      7.625 (MB)
	Total:                                     7.689 (MW) /     61.512 (MB)

	Size of irrep 0 of <Ia|Bc> integrals:      1.588 (MW) /     12.706 (MB)
	Size of irrep 1 of <Ia|Bc> integrals:      0.824 (MW) /      6.596 (MB)
	Size of irrep 2 of <Ia|Bc> integrals:      1.187 (MW) /      9.492 (MB)
	Size of irrep 3 of <Ia|Bc> integrals:      1.187 (MW) /      9.492 (MB)
	Size of irrep 4 of <Ia|Bc> integrals:      0.838 (MW) /      6.707 (MB)
	Size of irrep 5 of <Ia|Bc> integrals:      1.604 (MW) /     12.835 (MB)
	Size of irrep 6 of <Ia|Bc> integrals:      1.179 (MW) /      9.432 (MB)
	Size of irrep 7 of <Ia|Bc> integrals:      1.179 (MW) /      9.432 (MB)
	Total:                                     9.587 (MW) /     76.692 (MB)

	Size of irrep 0 of <iA|bC> integrals:      1.216 (MW) /      9.728 (MB)
	Size of irrep 1 of <iA|bC> integrals:      0.691 (MW) /      5.525 (MB)
	Size of irrep 2 of <iA|bC> integrals:      0.949 (MW) /      7.594 (MB)
	Size of irrep 3 of <iA|bC> integrals:      0.949 (MW) /      7.594 (MB)
	Size of irrep 4 of <iA|bC> integrals:      0.705 (MW) /      5.636 (MB)
	Size of irrep 5 of <iA|bC> integrals:      1.232 (MW) /      9.858 (MB)
	Size of irrep 6 of <iA|bC> integrals:      0.942 (MW) /      7.534 (MB)
	Size of irrep 7 of <iA|bC> integrals:      0.942 (MW) /      7.534 (MB)
	Total:                                     7.625 (MW) /     61.001 (MB)

	Size of irrep 0 of tIjAb amplitudes:       0.041 (MW) /      0.331 (MB)
	Size of irrep 1 of tIjAb amplitudes:       0.014 (MW) /      0.113 (MB)
	Size of irrep 2 of tIjAb amplitudes:       0.015 (MW) /      0.122 (MB)
	Size of irrep 3 of tIjAb amplitudes:       0.015 (MW) /      0.122 (MB)
	Size of irrep 4 of tIjAb amplitudes:       0.000 (MW) /      0.000 (MB)
	Size of irrep 5 of tIjAb amplitudes:       0.025 (MW) /      0.198 (MB)
	Size of irrep 6 of tIjAb amplitudes:       0.023 (MW) /      0.184 (MB)
	Size of irrep 7 of tIjAb amplitudes:       0.023 (MW) /      0.184 (MB)
	Total:                                     0.157 (MW) /      1.255 (MB)

	Nuclear Rep. energy          =     22.74194832655911
	SCF energy                   =   -108.41017009412428
	One-electron energy          =    -49.84192327937020
	Two-electron (AA) energy     =      4.86074344128495
	Two-electron (BB) energy     =      2.96932906177694
	Two-electron (AB) energy     =     11.46773239961139
	Two-electron energy          =     19.29780490267328
	Reference energy             =   -108.41017009412394

*** tstop() called on cqc05 at Fri Aug 21 03:46:35 2020
Module time:
	user time   =      43.56 seconds =       0.73 minutes
	system time =      27.25 seconds =       0.45 minutes
	total time  =         76 seconds =       1.27 minutes
Total time:
	user time   =     110.50 seconds =       1.84 minutes
	system time =      29.48 seconds =       0.49 minutes
	total time  =        144 seconds =       2.40 minutes

*** tstart() called on cqc05
*** at Fri Aug 21 03:46:35 2020

            **************************
            *                        *
            *        CCENERGY        *
            *                        *
            **************************

    Nuclear Rep. energy (wfn)     =   22.741948326559111
    SCF energy          (wfn)     = -108.410170094124283
    Reference energy    (file100) = -108.410170094123941

    Input parameters:
    -----------------
    Wave function   =     CCSD
    Reference wfn   =     UHF
    Brueckner       =     No
    Memory (Mbytes) =     250000.0
    Maxiter         =     50
    R_Convergence   =     1.0e-07
    E_Convergence   =     1.0e-06
    Restart         =     Yes
    DIIS            =     Yes
    AO Basis        =     NONE
    ABCD            =     NEW
    Cache Level     =     2
    Cache Type      =     LRU
    Print Level     =     1
    Num. of threads =     4
    # Amps to Print =     10
    Print MP2 Amps? =     No
    Analyze T2 Amps =     No
    Print Pair Ener =     No
    Local CC        =     No
    SCS-MP2         =     False
    SCSN-MP2        =     False
    SCS-CCSD        =     False

MP2 correlation energy -0.4272268653780832
                Solving CC Amplitude Equations
                ------------------------------
  Iter             Energy              RMS        T1Diag      D1Diag    New D1Diag    D2Diag
  ----     ---------------------    ---------   ----------  ----------  ----------   --------
     0        -0.427226865378083    0.000e+00    0.000000    0.000000    0.000000    0.000000
     1        -0.371393849978989    1.392e-01    0.029242    0.000000    0.000000    0.000000
     2        -0.399198549308724    5.510e-02    0.026503    0.000000    0.000000    0.000000
     3        -0.403647832954675    1.882e-02    0.032063    0.000000    0.000000    0.000000
     4        -0.404421153063306    5.108e-03    0.032834    0.000000    0.000000    0.000000
     5        -0.404428870788053    1.546e-03    0.033013    0.000000    0.000000    0.000000
     6        -0.404372961780349    4.334e-04    0.032986    0.000000    0.000000    0.000000
     7        -0.404405441285103    1.281e-04    0.032991    0.000000    0.000000    0.000000
     8        -0.404399813091748    4.838e-05    0.032989    0.000000    0.000000    0.000000
     9        -0.404398737095657    1.881e-05    0.032990    0.000000    0.000000    0.000000
    10        -0.404399229287702    6.747e-06    0.032990    0.000000    0.000000    0.000000
    11        -0.404399040180895    2.455e-06    0.032990    0.000000    0.000000    0.000000
    12        -0.404399136366310    7.522e-07    0.032990    0.000000    0.000000    0.000000
    13        -0.404399130685718    2.216e-07    0.032990    0.000000    0.000000    0.000000
    14        -0.404399136352449    7.280e-08    0.032990    0.000000    0.000000    0.000000
    14        -0.404399136352449    7.280e-08    0.032990    0.000000    0.000000    0.000000

    Iterations converged.


    CCSD corr. energy   =   -0.404399136352449
    PPL corr. energy    =    0.127843726843059
    OS PPL corr. energy =    0.107491219613134
    SS PPL corr. energy =    0.020352507229925
    Largest TIA Amplitudes:
              2 148         0.0211762114
              3 193         0.0179459178
              4 223         0.0179459178
              3 189         0.0126942506
              4 219         0.0126942506
              1   0        -0.0098612344
              3 191         0.0098269038
              4 221         0.0098269038
              3 187         0.0093609932
              4 217         0.0093609932

    Largest Tia Amplitudes:
              0   0         0.0570746040
              1 149        -0.0333578993
              1 152         0.0191203129
              2 194         0.0184083467
              3 224         0.0184083467
              1 154         0.0140601658
              2 190         0.0129459615
              3 220         0.0129459615
              1 146        -0.0101184950
              2 192         0.0098570414

    Largest TIJAB Amplitudes:
      4   3  93  62         0.0437538994
      3   1 148  93        -0.0262241566
      4   1 148  62        -0.0262241566
      4   3  44   6         0.0116073805
      4   2  62   6        -0.0104631447
      4   2  93  44        -0.0104631447
      3   2  62  44        -0.0104631447
      3   2  93   6         0.0104631447
      3   1 151  93         0.0099437193
      4   1 151  62         0.0099437193

    Largest Tijab Amplitudes:
      3   1  63   0        -0.0634564891
      2   1  94   0        -0.0634564891
      3   2  94  63         0.0572995838
      3   1  63   1         0.0150149387
      2   1  94   1         0.0150149387
      1   0 149   0        -0.0148167641
      3   1  63   5        -0.0127215946
      2   1  94   5        -0.0127215946
      3   2  94  65         0.0124141286
      3   2  96  63         0.0124141286

    Largest TIjAb Amplitudes:
      3   2  93  94        -0.1584812178
      4   3  62  63        -0.1584812178
      4   1  62   0        -0.1446381880
      3   1  93   0        -0.1446381880
      3   3  93  63        -0.0913182009
      4   2  62  94        -0.0913182009
      2   1  62  63        -0.0771521614
      2   1  93  94        -0.0771521614
      2   3  62   0        -0.0708550595
      2   2  93   0        -0.0708550595

    SCF energy       (wfn)                    = -108.410170094124283
    Reference energy (file100)                = -108.410170094123941

    Opposite-spin MP2 correlation energy      =   -0.318579471882633
    Same-spin MP2 correlation energy          =   -0.108647393495447
    MP2 correlation energy                    =   -0.427226865378083
      * MP2 total energy                      = -108.837396959502030

    Opposite-spin CCSD correlation energy     =   -0.324648191815490
    Same-spin CCSD correlation energy         =   -0.079750943858712
    CCSD correlation energy                   =   -0.404399136352449
      * CCSD total energy                     = -108.814569230476394


*** tstop() called on cqc05 at Fri Aug 21 03:47:37 2020
Module time:
	user time   =      27.23 seconds =       0.45 minutes
	system time =      30.85 seconds =       0.51 minutes
	total time  =         62 seconds =       1.03 minutes
Total time:
	user time   =     137.73 seconds =       2.30 minutes
	system time =      60.33 seconds =       1.01 minutes
	total time  =        206 seconds =       3.43 minutes

*** Psi4 exiting successfully. Buy a developer a beer!
