
    -----------------------------------------------------------------------
          Psi4: An Open-Source Ab Initio Electronic Structure Package
                               Psi4 1.2a1.dev939 

                         Git: Rev {HEAD} fa1ec19 dirty


    R. M. Parrish, L. A. Burns, D. G. A. Smith, A. C. Simmonett,
    A. E. DePrince III, E. G. Hohenstein, U. Bozkaya, A. Yu. Sokolov,
    R. Di Remigio, R. M. Richard, J. F. Gonthier, A. M. James,
    H. R. McAlexander, A. Kumar, M. Saitow, X. Wang, B. P. Pritchard,
    P. Verma, H. F. Schaefer III, K. Patkowski, R. A. King, E. F. Valeev,
    F. A. Evangelista, J. M. Turney, T. D. Crawford, and C. D. Sherrill,
    J. Chem. Theory Comput. 13(7) pp 3185--3197 (2017).
    (doi: 10.1021/acs.jctc.7b00174)

    -----------------------------------------------------------------------


    Psi4 started on: Friday, 30 October 2020 09:28PM

    Process ID: 318893
    PSIDATADIR: /home/fs71337/airmler/src/psi4_uhf/build/stage/usr/local/psi4/share/psi4
    Memory:     500.0 MiB
    Threads:    48
    
  ==> Input File <==

--------------------------------------------------------------------------
# Any line starting with the # character is a comment line
memory 250000 mb
molecule molecule{
1 2
N          0.0000000000        0.0000000000        0.5700849120
N          0.0000000000        0.0000000000       -0.5700849120
}

set {
  reference uhf
  basis aug-cc-pv(6+d)z
  scf_type OUT_OF_CORE
  freeze_core true
}

energy('ccsd')
--------------------------------------------------------------------------

  Memory set to 232.831 GiB by Python driver.

*** tstart() called on n412-050.vsc4.prov
*** at Fri Oct 30 21:28:44 2020

   => Loading Basis Set <=

    Name: AUG-CC-PV(6+D)Z
    Role: ORBITAL
    Keyword: BASIS
    atoms 1-2 entry N          line   363 file /home/fs71337/airmler/src/psi4_uhf/build/stage/usr/local/psi4/share/psi4/basis/aug-cc-pv_6pd_z.gbs 


         ---------------------------------------------------------
                                   SCF
            by Justin Turney, Rob Parrish, Andy Simmonett
                             and Daniel Smith
                              UHF Reference
                       48 Threads, 238418 MiB Core
         ---------------------------------------------------------

  ==> Geometry <==

    Molecular point group: d2h
    Full point group: D_inf_h

    Geometry (in Angstrom), charge = 1, multiplicity = 2:

       Center              X                  Y                   Z               Mass       
    ------------   -----------------  -----------------  -----------------  -----------------
           N          0.000000000000     0.000000000000     0.570084912000    14.003074004780
           N          0.000000000000     0.000000000000    -0.570084912000    14.003074004780

  Running in d2h symmetry.

  Rotational constants: A = ************  B =      1.85210  C =      1.85210 [cm^-1]
  Rotational constants: A = ************  B =  55524.50843  C =  55524.50843 [MHz]
  Nuclear repulsion =   22.741948326559111

  Charge       = 1
  Multiplicity = 2
  Electrons    = 13
  Nalpha       = 7
  Nbeta        = 6

  ==> Algorithm <==

  SCF Algorithm Type is OUT_OF_CORE.
  DIIS enabled.
  MOM disabled.
  Fractional occupation disabled.
  Guess Type is GWH.
  Energy threshold   = 1.00e-08
  Density threshold  = 1.00e-08
  Integral threshold = 0.00e+00

  ==> Primary Basis <==

  Basis Set: AUG-CC-PV(6+D)Z
    Blend: AUG-CC-PV(6+D)Z
    Number of shells: 70
    Number of basis function: 378
    Number of Cartesian functions: 588
    Spherical Harmonics?: true
    Max angular momentum: 6

  ==> Pre-Iterations <==

   -------------------------------------------------------
    Irrep   Nso     Nmo     Nalpha   Nbeta   Ndocc  Nsocc
   -------------------------------------------------------
     Ag        66      66       0       0       0       0
     B1g       31      31       0       0       0       0
     B2g       46      46       0       0       0       0
     B3g       46      46       0       0       0       0
     Au        31      31       0       0       0       0
     B1u       66      66       0       0       0       0
     B2u       46      46       0       0       0       0
     B3u       46      46       0       0       0       0
   -------------------------------------------------------
    Total     378     378       7       6       6       1
   -------------------------------------------------------

  ==> Integral Setup <==

  ==> DiskJK: Disk-Based J/K Matrices <==

    J tasked:                  Yes
    K tasked:                  Yes
    wK tasked:                  No
    Memory (MB):            178813
    Schwarz Cutoff:          1E-12

  Minimum eigenvalue in the overlap matrix is 1.3658345898E-06.
  Using Symmetric Orthogonalization.

  SCF Guess: Generalized Wolfsberg-Helmholtz.

  ==> Iterations <==

                        Total Energy        Delta E     RMS |[F,P]|

    Occupation by irrep:
             Ag   B1g   B2g   B3g    Au   B1u   B2u   B3u 
    DOCC [     2,    0,    0,    0,    0,    2,    1,    1 ]
    SOCC [     1,    0,    0,    0,    0,    0,    0,    0 ]

   @UHF iter   1:   -74.74350582475078   -7.47435e+01   2.73132e-01 
   @UHF iter   2:  -106.16467478241003   -3.14212e+01   6.26802e-02 DIIS
   @UHF iter   3:  -108.30311593447686   -2.13844e+00   1.44630e-02 DIIS
   @UHF iter   4:  -108.40688042601511   -1.03764e-01   1.72518e-03 DIIS
   @UHF iter   5:  -108.41016549273297   -3.28507e-03   3.59278e-04 DIIS
   @UHF iter   6:  -108.41033511920512   -1.69626e-04   5.26042e-05 DIIS
   @UHF iter   7:  -108.41033973322598   -4.61402e-06   1.38581e-05 DIIS
   @UHF iter   8:  -108.41034002233579   -2.89110e-07   2.09991e-06 DIIS
   @UHF iter   9:  -108.41034002836992   -6.03413e-09   4.82828e-07 DIIS
   @UHF iter  10:  -108.41034002872982   -3.59904e-10   8.50742e-08 DIIS
   @UHF iter  11:  -108.41034002873909   -9.26548e-12   1.08698e-08 DIIS
   @UHF iter  12:  -108.41034002873911   -2.84217e-14   2.00874e-09 DIIS

  ==> Post-Iterations <==

   @Spin Contamination Metric:   1.977148154E-02
   @S^2 Expected:                7.500000000E-01
   @S^2 Observed:                7.697714815E-01
   @S   Expected:                5.000000000E-01
   @S   Observed:                5.000000000E-01

    Orbital Energies (a.u.)
    -----------------------

    Alpha Occupied:                                                       

       1Ag   -16.194674     1B1u  -16.191700     2Ag    -1.897448  
       2B1u   -1.280534     3Ag    -1.139987     1B3u   -1.019092  
       1B2u   -1.019092  

    Alpha Virtual:                                                        

       1B2g   -0.267609     1B3g   -0.267609     4Ag    -0.117217  
       3B1u   -0.090225     2B2u   -0.086687     2B3u   -0.086687  
       5Ag    -0.047716     2B3g   -0.034716     2B2g   -0.034716  
       4B1u    0.009843     1B1g    0.035611     6Ag     0.035611  
       7Ag     0.073126     3B3u    0.083805     3B2u    0.083805  
       5B1u    0.113167     8Ag     0.121660     1Au     0.126219  
       6B1u    0.126219     4B2u    0.133572     4B3u    0.133572  
       3B3g    0.136004     3B2g    0.136004     7B1u    0.197472  
       4B3g    0.242740     4B2g    0.242740     9Ag     0.319071  
       5B3u    0.352963     5B2u    0.352963     8B1u    0.354881  
      10Ag     0.433048     2B1g    0.433048     6B3u    0.457118  
       6B2u    0.457118     9B1u    0.463021     2Au     0.463021  
      11Ag     0.484626     5B2g    0.503994     5B3g    0.503994  
       3B1g    0.519188    12Ag     0.519188    10B1u    0.530061  
       6B3g    0.540419     6B2g    0.540419    11B1u    0.574758  
       7B2u    0.619824     7B3u    0.619824    13Ag     0.620710  
       7B3g    0.776433     7B2g    0.776433     8B3u    0.790101  
       8B2u    0.790101    12B1u    0.866699     3Au     0.866699  
      13B1u    0.907744    14Ag     1.086444    14B1u    1.098619  
       8B3g    1.150077     8B2g    1.150077    15Ag     1.233117  
      16Ag     1.256662     4B1g    1.256662     9B2u    1.366006  
       9B3u    1.366006    17Ag     1.392621     5B1g    1.392621  
       9B2g    1.461217     9B3g    1.461217    10B2u    1.474641  
      10B3u    1.474641    15B1u    1.492730    16B1u    1.517921  
       4Au     1.517921    18Ag     1.522446     6B1g    1.522446  
      11B3u    1.529458    11B2u    1.529458     5Au     1.548180  
      17B1u    1.548180    12B2u    1.555279    12B3u    1.555279  
      19Ag     1.673960     6Au     1.717963    18B1u    1.717963  
      10B3g    1.748793    10B2g    1.748793    20Ag     1.890463  
      19B1u    1.945069     7B1g    1.995311    21Ag     1.995311  
      11B3g    1.998133    11B2g    1.998133    12B2g    2.008036  
      12B3g    2.008036    13B2u    2.029506    13B3u    2.029506  
      20B1u    2.061001    22Ag     2.110958    13B3g    2.170345  
      13B2g    2.170345    14B2u    2.561802    14B3u    2.561802  
      21B1u    2.800960     7Au     2.800960    22B1u    2.843752  
      15B2u    2.957473    15B3u    2.957473    23Ag     3.185147  
       8B1g    3.185147    14B3g    3.301736    14B2g    3.301736  
      24Ag     3.357878    15B3g    3.381598    15B2g    3.381598  
      25Ag     3.431841    26Ag     3.520021     9B1g    3.520021  
      16B3u    3.531411    16B2u    3.531411    23B1u    3.591623  
      16B2g    3.624690    16B3g    3.624690    24B1u    3.717249  
      25B1u    3.719248     8Au     3.719248    17B3u    3.723161  
      17B2u    3.723161    27Ag     3.736836    10B1g    3.736836  
      26B1u    3.737984     9Au     3.737984    17B3g    3.768650  
      17B2g    3.768650    28Ag     3.815474    29Ag     3.857840  
      11B1g    3.857840    18B3u    3.872637    18B2u    3.872637  
      19B2u    3.939292    19B3u    3.939292    27B1u    3.969441  
      10Au     3.969441    18B2g    4.048316    18B3g    4.048316  
      20B3u    4.094106    20B2u    4.094106    30Ag     4.216902  
      12B1g    4.216902    28B1u    4.230280    11Au     4.375854  
      29B1u    4.375854    21B3u    4.406359    21B2u    4.406359  
      31Ag     4.514933    19B3g    4.840858    19B2g    4.840858  
      32Ag     5.061537    30B1u    5.100469    12Au     5.100469  
      20B3g    5.229953    20B2g    5.229953    31B1u    5.407299  
      33Ag     5.464982    13B1g    5.464982    22B2u    5.485018  
      22B3u    5.485018    21B2g    5.716720    21B3g    5.716720  
      22B3g    5.963410    22B2g    5.963410    32B1u    6.093148  
      34Ag     6.104715    23B3u    6.602167    23B2u    6.602167  
      14B1g    6.621519    35Ag     6.621519    33B1u    6.639710  
      13Au     6.639710    14Au     7.070456    34B1u    7.070456  
      35B1u    7.138773    24B3u    7.243485    24B2u    7.243485  
      15B1g    7.270157    36Ag     7.270157    37Ag     7.635888  
      16B1g    7.635888    38Ag     7.664299    23B2g    7.781105  
      23B3g    7.781105    24B3g    7.814424    24B2g    7.814424  
      25B2u    7.824318    25B3u    7.824318    25B2g    7.889477  
      25B3g    7.889477    17B1g    7.906053    39Ag     7.906053  
      26B3u    7.940333    26B2u    7.940333    26B3g    8.020331  
      26B2g    8.020331    40Ag     8.050242    36B1u    8.122123  
      15Au     8.122123    27B2g    8.186540    27B3g    8.186540  
      37B1u    8.197806    41Ag     8.244738    18B1g    8.244738  
      27B3u    8.247592    27B2u    8.247592    28B3u    8.282530  
      28B2u    8.282530    16Au     8.300685    38B1u    8.300685  
      29B2u    8.361717    29B3u    8.361717    42Ag     8.435722  
      39B1u    8.786449    17Au     8.786449    28B2g    8.920123  
      28B3g    8.920123    30B2u    8.974701    30B3u    8.974701  
      40B1u    8.993725    31B3u    9.351537    31B2u    9.351537  
      41B1u    9.490158    42B1u    9.527596    18Au     9.527596  
      43Ag     9.696831    19B1g    9.696831    44Ag     9.869116  
      20B1g    9.869116    43B1u    9.960081    19Au     9.960081  
      45Ag    10.249923    32B3u   10.290019    32B2u   10.290019  
      29B3g   10.342145    29B2g   10.342145    46Ag    10.643454  
      21B1g   10.643454    30B3g   10.732699    30B2g   10.732699  
      44B1u   11.038998    20Au    11.038998    45B1u   11.177944  
      21Au    11.177944    31B3g   11.237035    31B2g   11.237035  
      46B1u   11.634587    47Ag    11.649862    32B3g   11.827183  
      32B2g   11.827183    33B3u   11.901184    33B2u   11.901184  
      33B3g   11.927174    33B2g   11.927174    48Ag    12.467311  
      47B1u   12.490806    49Ag    12.790917    22B1g   12.790917  
      48B1u   14.398144    22Au    14.398144    34B3u   14.467442  
      34B2u   14.467442    34B3g   15.026030    34B2g   15.026030  
      49B1u   15.646356    23B1g   16.369620    50Ag    16.369620  
      35B3u   16.582991    35B2u   16.582991    36B3u   16.592575  
      36B2u   16.592575    51Ag    16.764016    24B1g   16.764016  
      50B1u   16.962117    23Au    16.962117    52Ag    17.105706  
      25B1g   17.105706    53Ag    17.334030    35B2g   17.401402  
      35B3g   17.401402    51B1u   17.666585    54Ag    17.822062  
      37B3u   17.829614    37B2u   17.829614    38B3u   18.114490  
      38B2u   18.114490    52B1u   18.235918    24Au    18.235918  
      36B3g   18.240626    36B2g   18.240626    53B1u   18.367475  
      25Au    18.367475    37B2g   18.757480    37B3g   18.757480  
      54B1u   19.314827    39B3u   19.492247    39B2u   19.492247  
      38B3g   19.593496    38B2g   19.593496    40B2u   19.681505  
      40B3u   19.681505    55Ag    19.733446    26B1g   19.733446  
      39B2g   19.839723    39B3g   19.839723    56Ag    20.015056  
      57Ag    20.047609    27B1g   20.047609    41B2u   20.052034  
      41B3u   20.052034    26Au    20.204710    55B1u   20.204710  
      40B2g   20.393129    40B3g   20.393129    42B2u   20.446109  
      42B3u   20.446109    56B1u   21.135084    57B1u   21.159644  
      27Au    21.159644    58Ag    21.296163    59Ag    21.565929  
      28B1g   21.565929    60Ag    21.850929    41B3g   21.851823  
      41B2g   21.851823    42B3g   22.048651    42B2g   22.048651  
      58B1u   22.800221    43B3u   22.866734    43B2u   22.866734  
      29B1g   23.373746    61Ag    23.373746    44B3u   23.496844  
      44B2u   23.496844    28Au    23.572901    59B1u   23.572901  
      60B1u   23.621610    29Au    23.621610    43B3g   23.990608  
      43B2g   23.990608    62Ag    24.275768    30B1g   24.275768  
      44B2g   24.476840    44B3g   24.476840    61B1u   25.308708  
      63Ag    25.449676    62B1u   25.905699    30Au    25.905699  
      45B3u   26.589000    45B2u   26.589000    45B3g   27.260964  
      45B2g   27.260964    64Ag    27.967764    31B1g   27.967764  
      63B1u   28.238794    46B3u   29.212039    46B2u   29.212039  
      64B1u   29.350732    31Au    29.350732    65Ag    31.721568  
      46B3g   32.475154    46B2g   32.475154    65B1u   34.659858  
      66Ag    82.197179    66B1u   82.548047  

    Beta Occupied:                                                        

       1Ag   -16.174386     1B1u  -16.172553     2Ag    -1.826327  
       2B1u   -1.055453     1B3u   -1.004162     1B2u   -1.004162  

    Beta Virtual:                                                         

       3Ag    -0.514239     1B2g   -0.238330     1B3g   -0.238330  
       4Ag    -0.106114     3B1u   -0.088753     2B3u   -0.086225  
       2B2u   -0.086225     5Ag    -0.046534     2B3g   -0.033965  
       2B2g   -0.033965     4B1u    0.011801     6Ag     0.035615  
       1B1g    0.035615     7Ag     0.077575     3B3u    0.085372  
       3B2u    0.085372     5B1u    0.116783     1Au     0.126360  
       6B1u    0.126360     4B2u    0.134518     4B3u    0.134518  
       3B3g    0.137661     3B2g    0.137661     8Ag     0.140090  
       7B1u    0.200224     4B3g    0.243587     4B2g    0.243587  
       9Ag     0.327729     5B3u    0.352902     5B2u    0.352902  
       8B1u    0.407897    10Ag     0.432101     2B1g    0.432101  
       9B1u    0.464234     2Au     0.464234     6B3u    0.464588  
       6B2u    0.464588    11Ag     0.488609     5B2g    0.504079  
       5B3g    0.504079     3B1g    0.520468    12Ag     0.520468  
      10B1u    0.532926     6B3g    0.542577     6B2g    0.542577  
      11B1u    0.610440     7B2u    0.624545     7B3u    0.624545  
      13Ag     0.651950     7B3g    0.779624     7B2g    0.779624  
       8B3u    0.804541     8B2u    0.804541    12B1u    0.868556  
       3Au     0.868556    13B1u    0.959346    14B1u    1.102800  
      14Ag     1.109116     8B3g    1.157614     8B2g    1.157614  
      15Ag     1.241240    16Ag     1.256493     4B1g    1.256493  
       9B2u    1.364959     9B3u    1.364959    17Ag     1.392103  
       5B1g    1.392103     9B2g    1.462598     9B3g    1.462598  
      10B2u    1.479103    10B3u    1.479103    15B1u    1.495247  
      16B1u    1.519512     4Au     1.519512    18Ag     1.527226  
       6B1g    1.527226    11B3u    1.530878    11B2u    1.530878  
       5Au     1.548316    17B1u    1.548316    12B2u    1.587957  
      12B3u    1.587957    19Ag     1.693895    18B1u    1.724417  
       6Au     1.724417    10B3g    1.750051    10B2g    1.750051  
      20Ag     1.919881    19B1u    1.982054    21Ag     1.999479  
       7B1g    1.999479    11B3g    2.006009    11B2g    2.006009  
      12B2g    2.007910    12B3g    2.007910    13B2u    2.036085  
      13B3u    2.036085    20B1u    2.083538    22Ag     2.137603  
      13B3g    2.189037    13B2g    2.189037    14B2u    2.573720  
      14B3u    2.573720    21B1u    2.800960     7Au     2.800960  
      22B1u    2.857605    15B2u    2.957210    15B3u    2.957210  
      23Ag     3.185067     8B1g    3.185067    14B3g    3.316083  
      14B2g    3.316083    15B2g    3.381723    15B3g    3.381723  
      24Ag     3.390784    25Ag     3.448763    26Ag     3.527982  
       9B1g    3.527982    16B3u    3.530220    16B2u    3.530220  
      23B1u    3.611539    16B2g    3.629080    16B3g    3.629080  
      24B1u    3.721627     8Au     3.721627    25B1u    3.725362  
      17B3u    3.736984    17B2u    3.736984    26B1u    3.740012  
       9Au     3.740012    27Ag     3.741225    10B1g    3.741225  
      17B3g    3.779060    17B2g    3.779060    28Ag     3.837590  
      29Ag     3.858592    11B1g    3.858592    18B3u    3.877318  
      18B2u    3.877318    19B2u    3.959911    19B3u    3.959911  
      27B1u    3.985783    10Au     3.985783    18B2g    4.050406  
      18B3g    4.050406    20B3u    4.097370    20B2u    4.097370  
      30Ag     4.229231    12B1g    4.229231    28B1u    4.258775  
      29B1u    4.375321    11Au     4.375321    21B2u    4.423695  
      21B3u    4.423695    31Ag     4.539856    19B3g    4.857749  
      19B2g    4.857749    32Ag     5.086058    30B1u    5.101728  
      12Au     5.101728    20B3g    5.247644    20B2g    5.247644  
      31B1u    5.445108    33Ag     5.468556    13B1g    5.468556  
      22B2u    5.501274    22B3u    5.501274    21B3g    5.717244  
      21B2g    5.717244    22B3g    5.970146    22B2g    5.970146  
      32B1u    6.113374    34Ag     6.133797    23B2u    6.602553  
      23B3u    6.602553    14B1g    6.621321    35Ag     6.621321  
      33B1u    6.647524    13Au     6.647524    14Au     7.070516  
      34B1u    7.070516    35B1u    7.155690    24B3u    7.256977  
      24B2u    7.256977    15B1g    7.270378    36Ag     7.270378  
      37Ag     7.646248    16B1g    7.646248    38Ag     7.685181  
      23B2g    7.783439    23B3g    7.783439    25B2u    7.825020  
      25B3u    7.825020    24B3g    7.828744    24B2g    7.828744  
      25B2g    7.896132    25B3g    7.896132    39Ag     7.910999  
      17B1g    7.910999    26B3u    7.943138    26B2u    7.943138  
      26B3g    8.034389    26B2g    8.034389    40Ag     8.067437  
      36B1u    8.128275    15Au     8.128275    27B3g    8.186096  
      27B2g    8.186096    37B1u    8.207062    27B3u    8.255751  
      27B2u    8.255751    41Ag     8.258461    18B1g    8.258461  
      28B3u    8.300328    28B2u    8.300328    16Au     8.310209  
      38B1u    8.310209    29B2u    8.374686    29B3u    8.374686  
      42Ag     8.466180    39B1u    8.797932    17Au     8.797932  
      28B2g    8.928443    28B3g    8.928443    30B2u    8.979468  
      30B3u    8.979468    40B1u    9.019867    31B3u    9.370886  
      31B2u    9.370886    41B1u    9.508127    42B1u    9.527669  
      18Au     9.527669    43Ag     9.698800    19B1g    9.698800  
      44Ag     9.887263    20B1g    9.887263    43B1u    9.961718  
      19Au     9.961718    45Ag    10.266147    32B2u   10.297058  
      32B3u   10.297058    29B3g   10.359954    29B2g   10.359954  
      46Ag    10.647026    21B1g   10.647026    30B3g   10.736729  
      30B2g   10.736729    44B1u   11.043507    20Au    11.043507  
      45B1u   11.190401    21Au    11.190401    31B3g   11.250595  
      31B2g   11.250595    46B1u   11.656400    47Ag    11.664257  
      32B3g   11.840136    32B2g   11.840136    33B3u   11.923608  
      33B2u   11.923608    33B3g   11.929564    33B2g   11.929564  
      48Ag    12.503558    47B1u   12.506903    49Ag    12.799086  
      22B1g   12.799086    48B1u   14.405339    22Au    14.405339  
      34B3u   14.485198    34B2u   14.485198    34B3g   15.044147  
      34B2g   15.044147    49B1u   15.676960    23B1g   16.375092  
      50Ag    16.375092    35B3u   16.590341    35B2u   16.590341  
      36B3u   16.595994    36B2u   16.595994    51Ag    16.764571  
      24B1g   16.764571    50B1u   16.962646    23Au    16.962646  
      52Ag    17.115829    25B1g   17.115829    53Ag    17.350207  
      35B2g   17.404542    35B3g   17.404542    51B1u   17.682197  
      37B3u   17.844392    37B2u   17.844392    54Ag    17.846199  
      38B3u   18.119007    38B2u   18.119007    52B1u   18.254054  
      24Au    18.254054    36B3g   18.256080    36B2g   18.256080  
      53B1u   18.374214    25Au    18.374214    37B3g   18.769823  
      37B2g   18.769823    54B1u   19.333799    39B3u   19.514747  
      39B2u   19.514747    38B3g   19.600649    38B2g   19.600649  
      40B2u   19.682870    40B3u   19.682870    55Ag    19.740173  
      26B1g   19.740173    39B2g   19.841159    39B3g   19.841159  
      56Ag    20.031216    41B2u   20.063775    41B3u   20.063775  
      57Ag    20.067079    27B1g   20.067079    26Au    20.210196  
      55B1u   20.210196    40B2g   20.400050    40B3g   20.400050  
      42B2u   20.449392    42B3u   20.449392    56B1u   21.155074  
      57B1u   21.172111    27Au    21.172111    58Ag    21.309809  
      59Ag    21.576918    28B1g   21.576918    41B3g   21.856528  
      41B2g   21.856528    60Ag    21.875612    42B3g   22.066413  
      42B2g   22.066413    58B1u   22.813713    43B3u   22.882315  
      43B2u   22.882315    29B1g   23.376121    61Ag    23.376121  
      44B3u   23.506484    44B2u   23.506484    28Au    23.575022  
      59B1u   23.575022    60B1u   23.632721    29Au    23.632721  
      43B3g   24.008229    43B2g   24.008229    62Ag    24.289051  
      30B1g   24.289051    44B2g   24.484793    44B3g   24.484793  
      61B1u   25.325526    63Ag    25.466896    62B1u   25.915585  
      30Au    25.915585    45B3u   26.604415    45B2u   26.604415  
      45B3g   27.274242    45B2g   27.274242    64Ag    27.971816  
      31B1g   27.971816    63B1u   28.257688    46B3u   29.228224  
      46B2u   29.228224    64B1u   29.355958    31Au    29.355958  
      65Ag    31.743679    46B3g   32.488703    46B2g   32.488703  
      65B1u   34.676041    66Ag    82.201981    66B1u   82.553210  

    Final Occupation by Irrep:
             Ag   B1g   B2g   B3g    Au   B1u   B2u   B3u 
    DOCC [     2,    0,    0,    0,    0,    2,    1,    1 ]
    SOCC [     1,    0,    0,    0,    0,    0,    0,    0 ]

  Energy converged.

  @UHF Final Energy:  -108.41034002873911

   => Energetics <=

    Nuclear Repulsion Energy =             22.7419483265591111
    One-Electron Energy =                -186.3250069159147415
    Two-Electron Energy =                  55.1727185606165236
    PCM Polarization Energy =               0.0000000000000000
    Total Energy =                       -108.4103400287391139

    Alert: EFP and PCM quantities not currently incorporated into SCF psivars.
  UHF NO Occupations:
  HONO-2 :    2 Ag 1.9994277
  HONO-1 :    2B1u 1.9910285
  HONO-0 :    3 Ag 1.0000000
  LUNO+0 :    3B1u 0.0089715
  LUNO+1 :    4 Ag 0.0005723
  LUNO+2 :    2B3u 0.0001904
  LUNO+3 :    2B2u 0.0001904



Properties will be evaluated at   0.000000,   0.000000,   0.000000 Bohr

Properties computed using the SCF density matrix

  Nuclear Dipole Moment: (a.u.)
     X:     0.0000      Y:     0.0000      Z:     0.0000

  Electronic Dipole Moment: (a.u.)
     X:     0.0000      Y:     0.0000      Z:     0.0000

  Dipole Moment: (a.u.)
     X:     0.0000      Y:     0.0000      Z:     0.0000     Total:     0.0000

  Dipole Moment: (Debye)
     X:     0.0000      Y:     0.0000      Z:     0.0000     Total:     0.0000


*** tstop() called on n412-050.vsc4.prov at Fri Oct 30 21:44:16 2020
Module time:
	user time   =     964.25 seconds =      16.07 minutes
	system time =      41.54 seconds =       0.69 minutes
	total time  =        932 seconds =      15.53 minutes
Total time:
	user time   =     964.25 seconds =      16.07 minutes
	system time =      41.54 seconds =       0.69 minutes
	total time  =        932 seconds =      15.53 minutes

*** tstart() called on n412-050.vsc4.prov
*** at Fri Oct 30 21:44:16 2020


	Wfn Parameters:
	--------------------
	Wavefunction         = CCSD
	Number of irreps     = 8
	Number of MOs        = 378
	Number of active MOs = 376
	AO-Basis             = NONE
	Semicanonical        = false
	Reference            = UHF
	Print Level          = 1

	IRREP	# MOs	# FZDC	# DOCC	# SOCC	# VIRT	# FZVR
	-----	-----	------	------	------	------	------
	 Ag	   66	    1	    1	    1	    63	    0
	 B1g	   31	    0	    0	    0	    31	    0
	 B2g	   46	    0	    0	    0	    46	    0
	 B3g	   46	    0	    0	    0	    46	    0
	 Au	   31	    0	    0	    0	    31	    0
	 B1u	   66	    1	    1	    0	    64	    0
	 B2u	   46	    0	    1	    0	    45	    0
	 B3u	   46	    0	    1	    0	    45	    0
	Transforming integrals...
	IWL integrals will be deleted.
	(OO|OO)...
	Presorting SO-basis two-electron integrals.
	Sorting File: SO Ints (nn|nn) nbuckets = 1
	Transforming the one-electron integrals and constructing Fock matrices
	Starting AA/AB first half-transformation.
	Sorting AA/AB half-transformed integrals.
	Starting BB first half-transformation.
	Sorting BB half-transformed integrals.
	First half integral transformation complete.
	Starting AA second half-transformation.
	Starting AB second half-transformation.
	Starting BB second half-transformation.
	Two-electron integral transformation complete.
	(OO|OV)...
	Starting AA second half-transformation.
	Starting AB second half-transformation.
	Starting BB second half-transformation.
	Two-electron integral transformation complete.
	(OO|VV)...
	Starting AA second half-transformation.
	Starting AB second half-transformation.
	Starting BB second half-transformation.
	Two-electron integral transformation complete.
	(OV|OO)...
	Starting AA/AB first half-transformation.
	Sorting AA/AB half-transformed integrals.
	Starting BB first half-transformation.
	Sorting BB half-transformed integrals.
	First half integral transformation complete.
	Starting AA second half-transformation.
	Starting AB second half-transformation.
	Starting BB second half-transformation.
	Two-electron integral transformation complete.
	(OV|OV)...
	Starting AA second half-transformation.
	Starting AB second half-transformation.
	Starting BB second half-transformation.
	Two-electron integral transformation complete.
	(OV|VV)...
	Starting AA second half-transformation.
	Starting AB second half-transformation.
	Starting BB second half-transformation.
	Two-electron integral transformation complete.
	(VV|OO)...
	Starting AA/AB first half-transformation.
	Sorting AA/AB half-transformed integrals.
	Starting BB first half-transformation.
	Sorting BB half-transformed integrals.
	First half integral transformation complete.
	Starting AA second half-transformation.
	Starting AB second half-transformation.
	Starting BB second half-transformation.
	Two-electron integral transformation complete.
	(VV|OV)...
	Starting AA second half-transformation.
	Starting AB second half-transformation.
	Starting BB second half-transformation.
	Two-electron integral transformation complete.
	(VV|VV)...
	Starting AA second half-transformation.
	Starting AB second half-transformation.
	Starting BB second half-transformation.
	Two-electron integral transformation complete.
	Frozen core energy     =   -100.60804695319536

	Size of irrep 0 of <AB|CD> integrals:     80.085 (MW) /    640.677 (MB)
	Size of irrep 1 of <AB|CD> integrals:     65.254 (MW) /    522.033 (MB)
	Size of irrep 2 of <AB|CD> integrals:     73.943 (MW) /    591.542 (MB)
	Size of irrep 3 of <AB|CD> integrals:     73.943 (MW) /    591.542 (MB)
	Size of irrep 4 of <AB|CD> integrals:     65.238 (MW) /    521.903 (MB)
	Size of irrep 5 of <AB|CD> integrals:     83.412 (MW) /    667.294 (MB)
	Size of irrep 6 of <AB|CD> integrals:     73.960 (MW) /    591.680 (MB)
	Size of irrep 7 of <AB|CD> integrals:     73.960 (MW) /    591.680 (MB)
	Total:                                   589.794 (MW) /   4718.351 (MB)

	Size of irrep 0 of <ab|cd> integrals:     81.216 (MW) /    649.729 (MB)
	Size of irrep 1 of <ab|cd> integrals:     65.756 (MW) /    526.047 (MB)
	Size of irrep 2 of <ab|cd> integrals:     74.736 (MW) /    597.888 (MB)
	Size of irrep 3 of <ab|cd> integrals:     74.736 (MW) /    597.888 (MB)
	Size of irrep 4 of <ab|cd> integrals:     65.740 (MW) /    525.917 (MB)
	Size of irrep 5 of <ab|cd> integrals:     84.585 (MW) /    676.678 (MB)
	Size of irrep 6 of <ab|cd> integrals:     74.736 (MW) /    597.888 (MB)
	Size of irrep 7 of <ab|cd> integrals:     74.736 (MW) /    597.888 (MB)
	Total:                                   596.241 (MW) /   4769.925 (MB)

	Size of irrep 0 of <Ab|Cd> integrals:    336.062 (MW) /   2688.498 (MB)
	Size of irrep 1 of <Ab|Cd> integrals:    262.019 (MW) /   2096.152 (MB)
	Size of irrep 2 of <Ab|Cd> integrals:    297.356 (MW) /   2378.844 (MB)
	Size of irrep 3 of <Ab|Cd> integrals:    297.356 (MW) /   2378.844 (MB)
	Size of irrep 4 of <Ab|Cd> integrals:    261.954 (MW) /   2095.634 (MB)
	Size of irrep 5 of <Ab|Cd> integrals:    335.989 (MW) /   2687.911 (MB)
	Size of irrep 6 of <Ab|Cd> integrals:    297.390 (MW) /   2379.120 (MB)
	Size of irrep 7 of <Ab|Cd> integrals:    297.390 (MW) /   2379.120 (MB)
	Total:                                  2385.515 (MW) /  19084.124 (MB)

	Size of irrep 0 of <IA|BC> integrals:      5.115 (MW) /     40.923 (MB)
	Size of irrep 1 of <IA|BC> integrals:      2.957 (MW) /     23.652 (MB)
	Size of irrep 2 of <IA|BC> integrals:      3.990 (MW) /     31.919 (MB)
	Size of irrep 3 of <IA|BC> integrals:      3.990 (MW) /     31.919 (MB)
	Size of irrep 4 of <IA|BC> integrals:      2.988 (MW) /     23.908 (MB)
	Size of irrep 5 of <IA|BC> integrals:      5.169 (MW) /     41.354 (MB)
	Size of irrep 6 of <IA|BC> integrals:      3.956 (MW) /     31.648 (MB)
	Size of irrep 7 of <IA|BC> integrals:      3.956 (MW) /     31.648 (MB)
	Total:                                    32.122 (MW) /    256.972 (MB)

	Size of irrep 0 of <ia|bc> integrals:      4.010 (MW) /     32.083 (MB)
	Size of irrep 1 of <ia|bc> integrals:      2.465 (MW) /     19.721 (MB)
	Size of irrep 2 of <ia|bc> integrals:      3.216 (MW) /     25.728 (MB)
	Size of irrep 3 of <ia|bc> integrals:      3.216 (MW) /     25.728 (MB)
	Size of irrep 4 of <ia|bc> integrals:      2.497 (MW) /     19.978 (MB)
	Size of irrep 5 of <ia|bc> integrals:      4.047 (MW) /     32.373 (MB)
	Size of irrep 6 of <ia|bc> integrals:      3.216 (MW) /     25.728 (MB)
	Size of irrep 7 of <ia|bc> integrals:      3.216 (MW) /     25.728 (MB)
	Total:                                    25.883 (MW) /    207.065 (MB)

	Size of irrep 0 of <Ia|Bc> integrals:      5.170 (MW) /     41.357 (MB)
	Size of irrep 1 of <Ia|Bc> integrals:      2.962 (MW) /     23.698 (MB)
	Size of irrep 2 of <Ia|Bc> integrals:      4.001 (MW) /     32.005 (MB)
	Size of irrep 3 of <Ia|Bc> integrals:      4.001 (MW) /     32.005 (MB)
	Size of irrep 4 of <Ia|Bc> integrals:      2.994 (MW) /     23.954 (MB)
	Size of irrep 5 of <Ia|Bc> integrals:      5.206 (MW) /     41.646 (MB)
	Size of irrep 6 of <Ia|Bc> integrals:      3.984 (MW) /     31.869 (MB)
	Size of irrep 7 of <Ia|Bc> integrals:      3.984 (MW) /     31.869 (MB)
	Total:                                    32.300 (MW) /    258.402 (MB)

	Size of irrep 0 of <iA|bC> integrals:      3.978 (MW) /     31.824 (MB)
	Size of irrep 1 of <iA|bC> integrals:      2.460 (MW) /     19.683 (MB)
	Size of irrep 2 of <iA|bC> integrals:      3.207 (MW) /     25.659 (MB)
	Size of irrep 3 of <iA|bC> integrals:      3.207 (MW) /     25.659 (MB)
	Size of irrep 4 of <iA|bC> integrals:      2.492 (MW) /     19.940 (MB)
	Size of irrep 5 of <iA|bC> integrals:      4.014 (MW) /     32.114 (MB)
	Size of irrep 6 of <iA|bC> integrals:      3.190 (MW) /     25.523 (MB)
	Size of irrep 7 of <iA|bC> integrals:      3.190 (MW) /     25.523 (MB)
	Total:                                    25.741 (MW) /    205.925 (MB)

	Size of irrep 0 of tIjAb amplitudes:       0.092 (MW) /      0.733 (MB)
	Size of irrep 1 of tIjAb amplitudes:       0.032 (MW) /      0.259 (MB)
	Size of irrep 2 of tIjAb amplitudes:       0.034 (MW) /      0.276 (MB)
	Size of irrep 3 of tIjAb amplitudes:       0.034 (MW) /      0.276 (MB)
	Size of irrep 4 of tIjAb amplitudes:       0.000 (MW) /      0.000 (MB)
	Size of irrep 5 of tIjAb amplitudes:       0.055 (MW) /      0.440 (MB)
	Size of irrep 6 of tIjAb amplitudes:       0.052 (MW) /      0.414 (MB)
	Size of irrep 7 of tIjAb amplitudes:       0.052 (MW) /      0.414 (MB)
	Total:                                     0.351 (MW) /      2.812 (MB)

	Nuclear Rep. energy          =     22.74194832655911
	SCF energy                   =   -108.41034002873911
	One-electron energy          =    -49.84222607982402
	Two-electron (AA) energy     =      4.86078829492776
	Two-electron (BB) energy     =      2.96935027271826
	Two-electron (AB) energy     =     11.46784611007551
	Two-electron energy          =     19.29798467772154
	Reference energy             =   -108.41034002873872

*** tstop() called on n412-050.vsc4.prov at Fri Oct 30 21:57:52 2020
Module time:
	user time   =    4870.47 seconds =      81.17 minutes
	system time =     174.83 seconds =       2.91 minutes
	total time  =        816 seconds =      13.60 minutes
Total time:
	user time   =    5834.72 seconds =      97.25 minutes
	system time =     216.37 seconds =       3.61 minutes
	total time  =       1748 seconds =      29.13 minutes

*** tstart() called on n412-050.vsc4.prov
*** at Fri Oct 30 21:57:52 2020

            **************************
            *                        *
            *        CCENERGY        *
            *                        *
            **************************

    Nuclear Rep. energy (wfn)     =   22.741948326559111
    SCF energy          (wfn)     = -108.410340028739114
    Reference energy    (file100) = -108.410340028738716

    Input parameters:
    -----------------
    Wave function   =     CCSD
    Reference wfn   =     UHF
    Brueckner       =     No
    Memory (Mbytes) =     250000.0
    Maxiter         =     50
    R_Convergence   =     1.0e-07
    E_Convergence   =     1.0e-06
    Restart         =     Yes
    DIIS            =     Yes
    AO Basis        =     NONE
    ABCD            =     NEW
    Cache Level     =     2
    Cache Type      =     LRU
    Print Level     =     1
    Num. of threads =     48
    # Amps to Print =     10
    Print MP2 Amps? =     No
    Analyze T2 Amps =     No
    Print Pair Ener =     No
    Local CC        =     No
    SCS-MP2         =     False
    SCSN-MP2        =     False
    SCS-CCSD        =     False

MP2 correlation energy -0.4306339167255244
                Solving CC Amplitude Equations
                ------------------------------
  Iter             Energy              RMS        T1Diag      D1Diag    New D1Diag    D2Diag
  ----     ---------------------    ---------   ----------  ----------  ----------   --------
     0        -0.430633916725524    0.000e+00    0.000000    0.000000    0.000000    0.000000
     1        -0.373167456976584    1.397e-01    0.029347    0.000000    0.000000    0.000000
     2        -0.401273088613620    5.550e-02    0.026558    0.000000    0.000000    0.000000
     3        -0.405761476100574    1.881e-02    0.032130    0.000000    0.000000    0.000000
     4        -0.406486229437339    5.093e-03    0.032883    0.000000    0.000000    0.000000
     5        -0.406516049069274    1.563e-03    0.033074    0.000000    0.000000    0.000000
     6        -0.406457536152917    4.392e-04    0.033046    0.000000    0.000000    0.000000
     7        -0.406488819588460    1.285e-04    0.033050    0.000000    0.000000    0.000000
     8        -0.406484203734736    4.875e-05    0.033049    0.000000    0.000000    0.000000
     9        -0.406482737110709    1.917e-05    0.033049    0.000000    0.000000    0.000000
    10        -0.406483268250088    6.957e-06    0.033050    0.000000    0.000000    0.000000
    11        -0.406483062524573    2.567e-06    0.033050    0.000000    0.000000    0.000000
    12        -0.406483180504540    7.696e-07    0.033050    0.000000    0.000000    0.000000
    13        -0.406483171165457    2.263e-07    0.033050    0.000000    0.000000    0.000000
    14        -0.406483176967256    7.476e-08    0.033050    0.000000    0.000000    0.000000
    14        -0.406483176967256    7.476e-08    0.033050    0.000000    0.000000    0.000000

    Iterations converged.


    CCSD corr. energy   =   -0.406483176967256
    PPL corr. energy    =    0.129225368027587
    OS PPL corr. energy =    0.108797494551775
    SS PPL corr. energy =    0.020427873475812
    Largest TIA Amplitudes:
              2 222         0.0201099561
              3 287         0.0140529394
              4 332         0.0140529394
              3 286         0.0122132853
              4 331         0.0122132853
              3 282         0.0116325819
              4 327         0.0116325819
              1   0         0.0092270709
              2 225         0.0091737748
              3 281         0.0087648542

    Largest Tia Amplitudes:
              0   0         0.0572104613
              1 223        -0.0265323719
              1 226        -0.0234200349
              1 228         0.0218095241
              2 288         0.0140431432
              3 333         0.0140431432
              2 287         0.0129359609
              3 332         0.0129359609
              2 283         0.0117834432
              3 328         0.0117834432

    Largest TIJAB Amplitudes:
      4   3 140  94         0.0438218985
      3   1 222 140        -0.0236593968
      4   1 222  94        -0.0236593968
      3   1 225 140        -0.0137015516
      4   1 225  94        -0.0137015516
      3   1 227 140         0.0119520714
      4   1 227  94         0.0119520714
      4   3 140  96         0.0099351649
      4   3 142  94         0.0099351649
      4   3 140 100         0.0097085544

    Largest Tijab Amplitudes:
      3   1  95   0        -0.0634729049
      2   1 141   0        -0.0634729049
      3   2 141  95         0.0573273376
      3   1  95   1         0.0138728094
      2   1 141   1         0.0138728094
      3   2 141  97         0.0125439433
      3   2 143  95         0.0125439433
      1   0 223   0        -0.0119809784
      3   1  97   0        -0.0117613593
      2   1 143   0        -0.0117613593

    Largest TIjAb Amplitudes:
      3   2 140 141        -0.1582818363
      4   3  94  95        -0.1582818363
      4   1  94   0        -0.1445115304
      3   1 140   0        -0.1445115304
      3   3 140  95        -0.0912557628
      4   2  94 141        -0.0912557628
      2   1  94  95        -0.0770919633
      2   1 140 141        -0.0770919633
      2   3  94   0        -0.0707206691
      2   2 140   0        -0.0707206691

    SCF energy       (wfn)                    = -108.410340028739114
    Reference energy (file100)                = -108.410340028738716

    Opposite-spin MP2 correlation energy      =   -0.321757937472022
    Same-spin MP2 correlation energy          =   -0.108875979253501
    MP2 correlation energy                    =   -0.430633916725524
      * MP2 total energy                      = -108.840973945464242

    Opposite-spin CCSD correlation energy     =   -0.326532272667914
    Same-spin CCSD correlation energy         =   -0.079950902725664
    CCSD correlation energy                   =   -0.406483176967256
      * CCSD total energy                     = -108.816823205705973


*** tstop() called on n412-050.vsc4.prov at Fri Oct 30 22:10:31 2020
Module time:
	user time   =    6332.55 seconds =     105.54 minutes
	system time =     321.19 seconds =       5.35 minutes
	total time  =        759 seconds =      12.65 minutes
Total time:
	user time   =   12167.27 seconds =     202.79 minutes
	system time =     537.56 seconds =       8.96 minutes
	total time  =       2507 seconds =      41.78 minutes

*** Psi4 exiting successfully. Buy a developer a beer!
