
    -----------------------------------------------------------------------
          Psi4: An Open-Source Ab Initio Electronic Structure Package
                               Psi4 1.2a1.dev939 

                         Git: Rev {HEAD} fa1ec19 


    R. M. Parrish, L. A. Burns, D. G. A. Smith, A. C. Simmonett,
    A. E. DePrince III, E. G. Hohenstein, U. Bozkaya, A. Yu. Sokolov,
    R. Di Remigio, R. M. Richard, J. F. Gonthier, A. M. James,
    H. R. McAlexander, A. Kumar, M. Saitow, X. Wang, B. P. Pritchard,
    P. Verma, H. F. Schaefer III, K. Patkowski, R. A. King, E. F. Valeev,
    F. A. Evangelista, J. M. Turney, T. D. Crawford, and C. D. Sherrill,
    J. Chem. Theory Comput. 13(7) pp 3185--3197 (2017).
    (doi: 10.1021/acs.jctc.7b00174)

    -----------------------------------------------------------------------


    Psi4 started on: Friday, 26 April 2019 03:45PM

    Process ID:  26015
    PSIDATADIR: /home/grueneis/src/psi4/objdir/stage/usr/local/psi4/share/psi4
    Memory:     500.0 MiB
    Threads:    1
    
  ==> Input File <==

--------------------------------------------------------------------------
# Any line starting with the # character is a comment line

memory 32000 mb

molecule molecule {
0 1
Si        -0.0000000000        0.0000000000        1.1731981701
Si        -0.0000000000        0.0000000000       -1.1731981701
H          1.3875820969        0.0000000000        1.6832113841
H         -0.6937910485        1.2016813458        1.6832113841
H         -0.6937910485       -1.2016813458        1.6832113841
H          0.6937910485        1.2016813458       -1.6832113841
H          0.6937910485       -1.2016813458       -1.6832113841
H         -1.3875820969        0.0000000000       -1.6832113841
}

set {
  reference rhf
  basis aug-cc-pv(D+d)z
  scf_type OUT_OF_CORE
  freeze_core true
}

energy('ccsd')
--------------------------------------------------------------------------

  Memory set to  29.802 GiB by Python driver.

*** tstart() called on cqc01
*** at Fri Apr 26 15:45:39 2019

   => Loading Basis Set <=

    Name: AUG-CC-PV(D+D)Z
    Role: ORBITAL
    Keyword: BASIS
    atoms 1-2 entry SI         line   588 file /home/grueneis/src/psi4/objdir/stage/usr/local/psi4/share/psi4/basis/aug-cc-pv_dpd_z.gbs 
    atoms 3-8 entry H          line    56 file /home/grueneis/src/psi4/objdir/stage/usr/local/psi4/share/psi4/basis/aug-cc-pv_dpd_z.gbs 


         ---------------------------------------------------------
                                   SCF
            by Justin Turney, Rob Parrish, Andy Simmonett
                             and Daniel Smith
                              RHF Reference
                        1 Threads,  30517 MiB Core
         ---------------------------------------------------------

  ==> Geometry <==

    Molecular point group: c2h
    Full point group: D3d

    Geometry (in Angstrom), charge = 0, multiplicity = 1:

       Center              X                  Y                   Z               Mass       
    ------------   -----------------  -----------------  -----------------  -----------------
          SI          0.000000000000    -1.173198170100     0.000000000000    27.976926532460
          SI         -0.000000000000     1.173198170100     0.000000000000    27.976926532460
           H          0.693791048458    -1.683211384100     1.201681345786     1.007825032070
           H         -1.387582096967    -1.683211384100     0.000000000000     1.007825032070
           H          0.693791048458    -1.683211384100    -1.201681345786     1.007825032070
           H         -0.693791048458     1.683211384100     1.201681345786     1.007825032070
           H          1.387582096967     1.683211384100     0.000000000000     1.007825032070
           H         -0.693791048458     1.683211384100    -1.201681345786     1.007825032070

  Running in c2h symmetry.

  Rotational constants: A =      1.44791  B =      0.16863  C =      0.16863 [cm^-1]
  Rotational constants: A =  43407.36558  B =   5055.40181  C =   5055.40181 [MHz]
  Nuclear repulsion =   90.826037651047713

  Charge       = 0
  Multiplicity = 1
  Electrons    = 34
  Nalpha       = 17
  Nbeta        = 17

  ==> Algorithm <==

  SCF Algorithm Type is OUT_OF_CORE.
  DIIS enabled.
  MOM disabled.
  Fractional occupation disabled.
  Guess Type is SAD.
  Energy threshold   = 1.00e-08
  Density threshold  = 1.00e-08
  Integral threshold = 0.00e+00

  ==> Primary Basis <==

  Basis Set: AUG-CC-PV(D+D)Z
    Blend: AUG-CC-PV(D+D)Z
    Number of shells: 54
    Number of basis function: 118
    Number of Cartesian functions: 124
    Spherical Harmonics?: true
    Max angular momentum: 2

  ==> Pre-Iterations <==

   -------------------------------------------------------
    Irrep   Nso     Nmo     Nalpha   Nbeta   Ndocc  Nsocc
   -------------------------------------------------------
     Ag        38      38       0       0       0       0
     Bg        21      21       0       0       0       0
     Au        21      21       0       0       0       0
     Bu        38      38       0       0       0       0
   -------------------------------------------------------
    Total     118     118      17      17      17       0
   -------------------------------------------------------

  ==> Integral Setup <==

  ==> DiskJK: Disk-Based J/K Matrices <==

    J tasked:                  Yes
    K tasked:                  Yes
    wK tasked:                  No
    Memory (MB):             22888
    Schwarz Cutoff:          1E-12

  Minimum eigenvalue in the overlap matrix is 2.5163315014E-04.
  Using Symmetric Orthogonalization.

  SCF Guess: Superposition of Atomic Densities via on-the-fly atomic UHF.

  ==> Iterations <==

                        Total Energy        Delta E     RMS |[F,P]|

   @RHF iter   0:  -581.22862578031447   -5.81229e+02   3.39231e-02 
   @RHF iter   1:  -581.31511101749356   -8.64852e-02   2.63106e-03 
   @RHF iter   2:  -581.34862427997859   -3.35133e-02   8.12623e-04 DIIS
   @RHF iter   3:  -581.35258479884737   -3.96052e-03   1.52444e-04 DIIS
   @RHF iter   4:  -581.35269541697585   -1.10618e-04   3.51888e-05 DIIS
   @RHF iter   5:  -581.35270462160111   -9.20463e-06   5.68936e-06 DIIS
   @RHF iter   6:  -581.35270486592788   -2.44327e-07   9.05107e-07 DIIS
   @RHF iter   7:  -581.35270487210425   -6.17638e-09   1.99153e-07 DIIS
   @RHF iter   8:  -581.35270487242474   -3.20483e-10   3.36397e-08 DIIS
   @RHF iter   9:  -581.35270487243383   -9.09495e-12   3.29701e-09 DIIS

  ==> Post-Iterations <==

    Orbital Energies (a.u.)
    -----------------------

    Doubly Occupied:                                                      

       1Ag   -68.776081     1Bu   -68.776080     2Ag    -6.125270  
       2Bu    -6.125155     3Ag    -4.231431     1Au    -4.231155  
       3Bu    -4.231155     1Bg    -4.231077     4Ag    -4.231077  
       4Bu    -4.230730     5Ag    -0.758767     5Bu    -0.680538  
       6Bu    -0.500385     2Au    -0.500385     6Ag    -0.473407  
       2Bg    -0.473407     7Ag    -0.403725  

    Virtual:                                                              

       8Ag     0.039355     7Bu     0.041564     3Au     0.064328  
       8Bu     0.064328     3Bg     0.071714     9Ag     0.071714  
      10Ag     0.074330     4Bg     0.089313    11Ag     0.089313  
       4Au     0.102883     9Bu     0.102883    10Bu     0.103239  
      11Bu     0.140996     5Au     0.158573    12Bu     0.158573  
      12Ag     0.165544     5Bg     0.196236    13Ag     0.196236  
      13Bu     0.217184     6Au     0.239730    14Bu     0.239730  
      14Ag     0.245208    15Bu     0.293030     6Bg     0.326053  
      15Ag     0.326053    16Ag     0.348649    16Bu     0.362661  
       7Au     0.367504    17Bu     0.367504    17Ag     0.403634  
       7Bg     0.403634     8Bg     0.408554    18Ag     0.408554  
       8Au     0.422205     9Au     0.442645    18Bu     0.442645  
      19Ag     0.468957     9Bg     0.468986    10Bg     0.541006  
      20Ag     0.541006    19Bu     0.542736    10Au     0.549847  
      20Bu     0.549847    11Bg     0.584903    21Ag     0.584903  
      21Bu     0.594168    11Au     0.610671    22Bu     0.610671  
      12Au     0.680012    23Bu     0.680012    22Ag     0.682862  
      23Ag     0.698341    24Bu     0.715225    12Bg     0.759676  
      24Ag     0.759676    25Ag     0.783235    13Au     0.799679  
      25Bu     0.799679    26Ag     0.810600    27Ag     0.882209  
      13Bg     0.882209    26Bu     0.958108    28Ag     0.985775  
      14Bg     0.985775    27Bu     0.990600    14Au     0.990600  
      28Bu     1.184246    29Bu     1.279414    29Ag     1.387264  
      15Bg     1.387264    30Ag     1.404638    30Bu     1.445974  
      15Au     1.445974    16Au     1.771547    16Bg     1.806196  
      17Bg     1.907622    31Ag     1.907622    31Bu     1.909848  
      17Au     1.909848    32Bu     2.009161    32Ag     2.017529  
      33Ag     2.123744    18Bg     2.123744    18Au     2.128272  
      33Bu     2.128272    34Ag     2.180563    34Bu     2.236102  
      35Ag     2.286685    19Bg     2.286685    35Bu     2.382705  
      19Au     2.382705    20Au     3.363886    36Bu     3.363886  
      20Bg     3.441720    36Ag     3.441720    37Ag     3.464410  
      21Au     3.490054    37Bu     3.490054    21Bg     3.537462  
      38Ag     3.537462    38Bu     3.539290  

    Final Occupation by Irrep:
             Ag    Bg    Au    Bu 
    DOCC [     7,    2,    2,    6 ]

  Energy converged.

  @RHF Final Energy:  -581.35270487243383

   => Energetics <=

    Nuclear Repulsion Energy =             90.8260376510477130
    One-Electron Energy =                -986.3978390089987442
    Two-Electron Energy =                 314.2190964855171273
    Total Energy =                       -581.3527048724338329



Properties will be evaluated at   0.000000,   0.000000,   0.000000 Bohr

Properties computed using the SCF density matrix

  Nuclear Dipole Moment: (a.u.)
     X:     0.0000      Y:    -0.0000      Z:     0.0000

  Electronic Dipole Moment: (a.u.)
     X:     0.0000      Y:     0.0000      Z:     0.0000

  Dipole Moment: (a.u.)
     X:     0.0000      Y:    -0.0000      Z:     0.0000     Total:     0.0000

  Dipole Moment: (Debye)
     X:     0.0000      Y:    -0.0000      Z:     0.0000     Total:     0.0000


*** tstop() called on cqc01 at Fri Apr 26 15:45:45 2019
Module time:
	user time   =       4.11 seconds =       0.07 minutes
	system time =       1.74 seconds =       0.03 minutes
	total time  =          6 seconds =       0.10 minutes
Total time:
	user time   =       4.11 seconds =       0.07 minutes
	system time =       1.74 seconds =       0.03 minutes
	total time  =          6 seconds =       0.10 minutes

*** tstart() called on cqc01
*** at Fri Apr 26 15:45:45 2019


	Wfn Parameters:
	--------------------
	Wavefunction         = CCSD
	Number of irreps     = 4
	Number of MOs        = 118
	Number of active MOs = 108
	AO-Basis             = NONE
	Semicanonical        = false
	Reference            = RHF
	Print Level          = 1

	IRREP	# MOs	# FZDC	# DOCC	# SOCC	# VIRT	# FZVR
	-----	-----	------	------	------	------	------
	 Ag	   38	    4	    3	    0	    31	    0
	 Bg	   21	    1	    1	    0	    19	    0
	 Au	   21	    1	    1	    0	    19	    0
	 Bu	   38	    4	    2	    0	    32	    0
	Transforming integrals...
	IWL integrals will be deleted.
	(OO|OO)...
	Presorting SO-basis two-electron integrals.
	Sorting File: SO Ints (nn|nn) nbuckets = 1
	Transforming the one-electron integrals and constructing Fock matrices
	Starting first half-transformation.
	Sorting half-transformed integrals.
	First half integral transformation complete.
	Starting second half-transformation.
	Two-electron integral transformation complete.
	(OO|OV)...
	Starting second half-transformation.
	Two-electron integral transformation complete.
	(OO|VV)...
	Starting second half-transformation.
	Two-electron integral transformation complete.
	(OV|OO)...
	Starting first half-transformation.
	Sorting half-transformed integrals.
	First half integral transformation complete.
	Starting second half-transformation.
	Two-electron integral transformation complete.
	(OV|OV)...
	Starting second half-transformation.
	Two-electron integral transformation complete.
	(OV|VV)...
	Starting second half-transformation.
	Two-electron integral transformation complete.
	(VV|OO)...
	Starting first half-transformation.
	Sorting half-transformed integrals.
	First half integral transformation complete.
	Starting second half-transformation.
	Two-electron integral transformation complete.
	(VV|OV)...
	Starting second half-transformation.
	Two-electron integral transformation complete.
	(VV|VV)...
	Starting second half-transformation.
	Two-electron integral transformation complete.
	Frozen core energy     =   -642.41108123120466

	Size of irrep 0 of <ab|cd> integrals:      7.328 (MW) /     58.623 (MB)
	Size of irrep 1 of <ab|cd> integrals:      5.731 (MW) /     45.850 (MB)
	Size of irrep 2 of <ab|cd> integrals:      5.731 (MW) /     45.850 (MB)
	Size of irrep 3 of <ab|cd> integrals:      7.322 (MW) /     58.579 (MB)
	Total:                                    26.113 (MW) /    208.902 (MB)

	Size of irrep 0 of <ia|bc> integrals:      0.528 (MW) /      4.223 (MB)
	Size of irrep 1 of <ia|bc> integrals:      0.378 (MW) /      3.026 (MB)
	Size of irrep 2 of <ia|bc> integrals:      0.378 (MW) /      3.026 (MB)
	Size of irrep 3 of <ia|bc> integrals:      0.530 (MW) /      4.243 (MB)
	Total:                                     1.815 (MW) /     14.518 (MB)

	Size of irrep 0 of tijab amplitudes:       0.041 (MW) /      0.325 (MB)
	Size of irrep 1 of tijab amplitudes:       0.024 (MW) /      0.192 (MB)
	Size of irrep 2 of tijab amplitudes:       0.024 (MW) /      0.192 (MB)
	Size of irrep 3 of tijab amplitudes:       0.038 (MW) /      0.303 (MB)
	Total:                                     0.126 (MW) /      1.011 (MB)

	Nuclear Rep. energy          =     90.82603765104771
	SCF energy                   =   -581.35270487243383
	One-electron energy          =    -51.95409450384938
	Two-electron energy          =     22.18643321157299
	Reference energy             =   -581.35270487243338

*** tstop() called on cqc01 at Fri Apr 26 15:46:01 2019
Module time:
	user time   =       1.88 seconds =       0.03 minutes
	system time =       1.01 seconds =       0.02 minutes
	total time  =         16 seconds =       0.27 minutes
Total time:
	user time   =       5.99 seconds =       0.10 minutes
	system time =       2.76 seconds =       0.05 minutes
	total time  =         22 seconds =       0.37 minutes

*** tstart() called on cqc01
*** at Fri Apr 26 15:46:01 2019

            **************************
            *                        *
            *        CCENERGY        *
            *                        *
            **************************

    Nuclear Rep. energy (wfn)     =   90.826037651047713
    SCF energy          (wfn)     = -581.352704872433833
    Reference energy    (file100) = -581.352704872433378

    Input parameters:
    -----------------
    Wave function   =     CCSD
    Reference wfn   =     RHF
    Brueckner       =     No
    Memory (Mbytes) =     32000.0
    Maxiter         =     50
    R_Convergence   =     1.0e-07
    E_Convergence   =     1.0e-06
    Restart         =     Yes
    DIIS            =     Yes
    AO Basis        =     NONE
    ABCD            =     NEW
    Cache Level     =     2
    Cache Type      =     LOW
    Print Level     =     1
    Num. of threads =     1
    # Amps to Print =     10
    Print MP2 Amps? =     No
    Analyze T2 Amps =     No
    Print Pair Ener =     No
    Local CC        =     No
    SCS-MP2         =     False
    SCSN-MP2        =     False
    SCS-CCSD        =     False

MP2 correlation energy -0.2235507981607021
                Solving CC Amplitude Equations
                ------------------------------
  Iter             Energy              RMS        T1Diag      D1Diag    New D1Diag    D2Diag
  ----     ---------------------    ---------   ----------  ----------  ----------   --------
     0        -0.223550798160698    0.000e+00    0.000000    0.000000    0.000000    0.127986
     1        -0.310196783706386    1.871e-01    0.014344    0.029694    0.029694    0.179038
     2        -0.279413161813920    3.956e-02    0.012489    0.025966    0.025966    0.162434
     3        -0.277282173342810    6.071e-03    0.012640    0.026052    0.026052    0.161014
     4        -0.277016112464384    1.637e-03    0.012669    0.026111    0.026111    0.160798
     5        -0.276873233512663    5.029e-04    0.012724    0.026247    0.026247    0.160658
     6        -0.276882911640470    1.471e-04    0.012751    0.026318    0.026318    0.160649
     7        -0.276896361927874    5.480e-05    0.012763    0.026350    0.026350    0.160656
     8        -0.276897028364699    1.887e-05    0.012769    0.026364    0.026364    0.160658
     9        -0.276897174274294    4.703e-06    0.012770    0.026367    0.026367    0.160659
    10        -0.276897258426299    1.189e-06    0.012770    0.026367    0.026367    0.160659
    11        -0.276897301573003    3.547e-07    0.012770    0.026367    0.026367    0.160659
    12        -0.276897307583474    1.097e-07    0.012770    0.026368    0.026368    0.160659
    13        -0.276897306742459    4.038e-08    0.012770    0.026368    0.026368    0.160659
    13        -0.276897306742459    4.038e-08    0.012770    0.026368    0.026368    0.160659

    Iterations converged.


    CCSD corr. energy   =   -0.276897306742459
    PPL corr. energy    =    0.075435468942144
    OS PPL corr. energy =    0.069168008602693
    SS PPL corr. energy =    0.006267460339451
    Largest TIA Amplitudes:
              4  52         0.0172629615
              6  74         0.0172629501
              2   6         0.0145991050
              2   2         0.0120362369
              4  51        -0.0107772470
              6  71        -0.0107772383
              2   4        -0.0106297894
              3  33         0.0092218313
              1   5         0.0092218269
              5  77         0.0075807822

    Largest TIjAb Amplitudes:
      2   2  74  74        -0.0351383109
      2   2  52  52        -0.0351383103
      4   4  52  52        -0.0250043747
      6   6  74  74        -0.0250043743
      2   2  73  73        -0.0235459297
      3   3  52  52        -0.0227859915
      1   1  74  74        -0.0227859908
      2   2  75  75        -0.0220792643
      2   2  71  74         0.0199983658
      2   2  74  71         0.0199983658

    SCF energy       (wfn)                    = -581.352704872433833
    Reference energy (file100)                = -581.352704872433378

    Opposite-spin MP2 correlation energy      =   -0.193615740846657
    Same-spin MP2 correlation energy          =   -0.029935057314041
    MP2 correlation energy                    =   -0.223550798160702
      * MP2 total energy                      = -581.576255670594037

    Opposite-spin CCSD correlation energy     =   -0.243582611531708
    Same-spin CCSD correlation energy         =   -0.033314695089920
    CCSD correlation energy                   =   -0.276897306742459
      * CCSD total energy                     = -581.629602179175890


*** tstop() called on cqc01 at Fri Apr 26 15:46:16 2019
Module time:
	user time   =       3.11 seconds =       0.05 minutes
	system time =       5.92 seconds =       0.10 minutes
	total time  =         15 seconds =       0.25 minutes
Total time:
	user time   =       9.10 seconds =       0.15 minutes
	system time =       8.68 seconds =       0.14 minutes
	total time  =         37 seconds =       0.62 minutes

*** Psi4 exiting successfully. Buy a developer a beer!
