
    -----------------------------------------------------------------------
          Psi4: An Open-Source Ab Initio Electronic Structure Package
                               Psi4 1.2a1.dev939 

                         Git: Rev {HEAD} fa1ec19 


    R. M. Parrish, L. A. Burns, D. G. A. Smith, A. C. Simmonett,
    A. E. DePrince III, E. G. Hohenstein, U. Bozkaya, A. Yu. Sokolov,
    R. Di Remigio, R. M. Richard, J. F. Gonthier, A. M. James,
    H. R. McAlexander, A. Kumar, M. Saitow, X. Wang, B. P. Pritchard,
    P. Verma, H. F. Schaefer III, K. Patkowski, R. A. King, E. F. Valeev,
    F. A. Evangelista, J. M. Turney, T. D. Crawford, and C. D. Sherrill,
    J. Chem. Theory Comput. 13(7) pp 3185--3197 (2017).
    (doi: 10.1021/acs.jctc.7b00174)

    -----------------------------------------------------------------------


    Psi4 started on: Friday, 26 April 2019 07:16PM

    Process ID:   2113
    PSIDATADIR: /home/grueneis/src/psi4/objdir/stage/usr/local/psi4/share/psi4
    Memory:     500.0 MiB
    Threads:    1
    
  ==> Input File <==

--------------------------------------------------------------------------
# Any line starting with the # character is a comment line

memory 32000 mb

molecule molecule {
0 1
Si        -0.0000000000        0.0000000000        1.1731981701
Si        -0.0000000000        0.0000000000       -1.1731981701
H          1.3875820969        0.0000000000        1.6832113841
H         -0.6937910485        1.2016813458        1.6832113841
H         -0.6937910485       -1.2016813458        1.6832113841
H          0.6937910485        1.2016813458       -1.6832113841
H          0.6937910485       -1.2016813458       -1.6832113841
H         -1.3875820969        0.0000000000       -1.6832113841
}

set {
  reference rhf
  basis aug-cc-pv(T+d)z
  scf_type OUT_OF_CORE
  freeze_core true
}

energy('ccsd')
--------------------------------------------------------------------------

  Memory set to  29.802 GiB by Python driver.

*** tstart() called on cqc01
*** at Fri Apr 26 19:16:35 2019

   => Loading Basis Set <=

    Name: AUG-CC-PV(T+D)Z
    Role: ORBITAL
    Keyword: BASIS
    atoms 1-2 entry SI         line   760 file /home/grueneis/src/psi4/objdir/stage/usr/local/psi4/share/psi4/basis/aug-cc-pv_tpd_z.gbs 
    atoms 3-8 entry H          line    56 file /home/grueneis/src/psi4/objdir/stage/usr/local/psi4/share/psi4/basis/aug-cc-pv_tpd_z.gbs 


         ---------------------------------------------------------
                                   SCF
            by Justin Turney, Rob Parrish, Andy Simmonett
                             and Daniel Smith
                              RHF Reference
                        1 Threads,  30517 MiB Core
         ---------------------------------------------------------

  ==> Geometry <==

    Molecular point group: c2h
    Full point group: D3d

    Geometry (in Angstrom), charge = 0, multiplicity = 1:

       Center              X                  Y                   Z               Mass       
    ------------   -----------------  -----------------  -----------------  -----------------
          SI          0.000000000000    -1.173198170100     0.000000000000    27.976926532460
          SI         -0.000000000000     1.173198170100     0.000000000000    27.976926532460
           H          0.693791048458    -1.683211384100     1.201681345786     1.007825032070
           H         -1.387582096967    -1.683211384100     0.000000000000     1.007825032070
           H          0.693791048458    -1.683211384100    -1.201681345786     1.007825032070
           H         -0.693791048458     1.683211384100     1.201681345786     1.007825032070
           H          1.387582096967     1.683211384100     0.000000000000     1.007825032070
           H         -0.693791048458     1.683211384100    -1.201681345786     1.007825032070

  Running in c2h symmetry.

  Rotational constants: A =      1.44791  B =      0.16863  C =      0.16863 [cm^-1]
  Rotational constants: A =  43407.36558  B =   5055.40181  C =   5055.40181 [MHz]
  Nuclear repulsion =   90.826037651047713

  Charge       = 0
  Multiplicity = 1
  Electrons    = 34
  Nalpha       = 17
  Nbeta        = 17

  ==> Algorithm <==

  SCF Algorithm Type is OUT_OF_CORE.
  DIIS enabled.
  MOM disabled.
  Fractional occupation disabled.
  Guess Type is SAD.
  Energy threshold   = 1.00e-08
  Density threshold  = 1.00e-08
  Integral threshold = 0.00e+00

  ==> Primary Basis <==

  Basis Set: AUG-CC-PV(T+D)Z
    Blend: AUG-CC-PV(T+D)Z
    Number of shells: 88
    Number of basis function: 248
    Number of Cartesian functions: 280
    Spherical Harmonics?: true
    Max angular momentum: 3

  ==> Pre-Iterations <==

   -------------------------------------------------------
    Irrep   Nso     Nmo     Nalpha   Nbeta   Ndocc  Nsocc
   -------------------------------------------------------
     Ag        75      75       0       0       0       0
     Bg        49      49       0       0       0       0
     Au        49      49       0       0       0       0
     Bu        75      75       0       0       0       0
   -------------------------------------------------------
    Total     248     248      17      17      17       0
   -------------------------------------------------------

  ==> Integral Setup <==

  ==> DiskJK: Disk-Based J/K Matrices <==

    J tasked:                  Yes
    K tasked:                  Yes
    wK tasked:                  No
    Memory (MB):             22888
    Schwarz Cutoff:          1E-12

  Minimum eigenvalue in the overlap matrix is 1.6477783548E-05.
  Using Symmetric Orthogonalization.

  SCF Guess: Superposition of Atomic Densities via on-the-fly atomic UHF.

  ==> Iterations <==

                        Total Energy        Delta E     RMS |[F,P]|

   @RHF iter   0:  -581.21786662121951   -5.81218e+02   1.63946e-02 
   @RHF iter   1:  -581.32241203639774   -1.04545e-01   1.83113e-03 
   @RHF iter   2:  -581.37065226876166   -4.82402e-02   5.75442e-04 DIIS
   @RHF iter   3:  -581.37586587598491   -5.21361e-03   1.78174e-04 DIIS
   @RHF iter   4:  -581.37668094315336   -8.15067e-04   2.35579e-05 DIIS
   @RHF iter   5:  -581.37669703657389   -1.60934e-05   4.30825e-06 DIIS
   @RHF iter   6:  -581.37669758648553   -5.49912e-07   7.57853e-07 DIIS
   @RHF iter   7:  -581.37669760462484   -1.81393e-08   1.45441e-07 DIIS
   @RHF iter   8:  -581.37669760539086   -7.66022e-10   2.84835e-08 DIIS
   @RHF iter   9:  -581.37669760541519   -2.43290e-11   3.47955e-09 DIIS

  ==> Post-Iterations <==

    Orbital Energies (a.u.)
    -----------------------

    Doubly Occupied:                                                      

       1Ag   -68.770134     1Bu   -68.770132     2Ag    -6.120186  
       2Bu    -6.120038     3Ag    -4.226362     3Bu    -4.226108  
       1Au    -4.226108     4Ag    -4.226029     1Bg    -4.226029  
       4Bu    -4.225646     5Ag    -0.757168     5Bu    -0.679489  
       2Au    -0.500761     6Bu    -0.500761     2Bg    -0.474416  
       6Ag    -0.474416     7Ag    -0.403699  

    Virtual:                                                              

       8Ag     0.032607     7Bu     0.038134     3Au     0.054548  
       8Bu     0.054548     9Ag     0.062797     3Bg     0.062797  
      10Ag     0.065356     4Bg     0.069649    11Ag     0.069649  
       4Au     0.086149     9Bu     0.086149    10Bu     0.088325  
      11Bu     0.127801     5Au     0.138203    12Bu     0.138203  
      12Ag     0.138584    13Ag     0.151819     5Bg     0.151819  
      13Bu     0.172585     6Au     0.172585    14Ag     0.185751  
      14Bu     0.186835     6Bg     0.218766    15Ag     0.218766  
      15Bu     0.231619     7Au     0.248802    16Bu     0.248802  
      17Bu     0.262347    16Ag     0.277818    18Bu     0.290724  
       8Au     0.290724     9Au     0.291384     7Bg     0.292480  
      17Ag     0.292480    18Ag     0.300556     8Bg     0.309647  
      19Ag     0.309647     9Bg     0.327064    19Bu     0.338367  
      10Au     0.338367    10Bg     0.345152    20Ag     0.345152  
      20Bu     0.416638    21Bu     0.428362    21Ag     0.432089  
      11Bg     0.432089    22Ag     0.435535    11Au     0.441727  
      22Bu     0.441727    23Ag     0.500452    23Bu     0.513598  
      24Ag     0.528873    12Bg     0.528873    12Au     0.544344  
      24Bu     0.544344    25Ag     0.558094    25Bu     0.559424  
      13Bg     0.596700    26Ag     0.596700    13Au     0.603291  
      26Bu     0.610491    14Au     0.610491    27Ag     0.617497  
      14Bg     0.652928    28Ag     0.652928    15Au     0.662503  
      27Bu     0.662503    15Bg     0.669215    29Ag     0.669215  
      28Bu     0.681841    16Au     0.681841    30Ag     0.687248  
      16Bg     0.690665    29Bu     0.719134    17Au     0.767673  
      30Bu     0.767673    31Bu     0.782331    31Ag     0.800614  
      17Bg     0.800614    18Au     0.909184    32Bu     0.923246  
      19Au     0.972921    33Bu     0.972921    18Bg     0.979596  
      32Ag     0.979596    33Ag     0.997467    19Bg     1.007974  
      34Ag     1.007974    35Ag     1.014833    20Bg     1.038577  
      34Bu     1.043703    20Au     1.077181    35Bu     1.077181  
      21Bg     1.083584    36Ag     1.083584    36Bu     1.127763  
      21Au     1.127763    22Bg     1.147867    37Ag     1.147867  
      38Ag     1.175497    37Bu     1.183803    23Bg     1.188194  
      39Ag     1.188194    38Bu     1.223167    22Au     1.223167  
      23Au     1.275728    39Bu     1.275728    40Bu     1.281263  
      40Ag     1.284829    24Au     1.299874    41Ag     1.318396  
      24Bg     1.318396    42Ag     1.329564    41Bu     1.334735  
      25Au     1.334735    25Bg     1.337237    26Au     1.352923  
      27Au     1.358641    42Bu     1.358641    43Ag     1.390389  
      26Bg     1.390389    28Au     1.435957    43Bu     1.435957  
      44Ag     1.443229    27Bg     1.443229    28Bg     1.458127  
      45Ag     1.459584    44Bu     1.463991    45Bu     1.503968  
      46Bu     1.504135    29Au     1.504135    47Bu     1.566946  
      30Au     1.566946    48Bu     1.569466    29Bg     1.569854  
      46Ag     1.569854    47Ag     1.582181    49Bu     1.747864  
      48Ag     1.802323    30Bg     1.838160    49Ag     1.838160  
      31Au     1.898901    50Ag     1.947907    50Bu     1.958318  
      32Au     1.958318    51Ag     1.965861    31Bg     1.965861  
      51Bu     1.992739    32Bg     2.074504    52Ag     2.086596  
      33Bg     2.086596    33Au     2.100032    52Bu     2.100032  
      53Bu     2.104958    34Bg     2.199745    53Ag     2.199745  
      34Au     2.203966    54Bu     2.203966    54Ag     2.222358  
      35Bg     3.046704    55Ag     3.046704    35Au     3.095601  
      55Bu     3.095601    56Ag     3.108776    56Bu     3.368644  
      57Ag     3.434895    36Au     3.592079    57Bu     3.592079  
      36Bg     3.610709    58Ag     3.610709    58Bu     3.630273  
      37Bg     3.954763    59Ag     3.954763    38Bg     3.970786  
      37Au     3.991165    38Au     4.049668    59Bu     4.049668  
      60Ag     4.055357    60Bu     4.077433    61Ag     4.099964  
      39Bg     4.099964    61Bu     4.102230    39Au     4.102230  
      62Ag     4.132742    40Bg     4.132742    62Bu     4.153945  
      40Au     4.153945    63Bu     4.181069    41Au     4.190250  
      64Bu     4.190250    63Ag     4.199406    42Au     4.206140  
      41Bg     4.210066    64Ag     4.210066    42Bg     4.305788  
      65Bu     4.345704    65Ag     4.364860    43Au     4.432478  
      43Bg     4.455010    66Ag     4.455010    44Au     4.478054  
      66Bu     4.478054    67Ag     4.528318    45Au     4.560484  
      67Bu     4.560484    44Bg     4.592496    45Bg     4.596362  
      68Ag     4.596362    68Bu     4.712915    69Bu     4.741205  
      46Au     4.741205    69Ag     4.747774    46Bg     4.747774  
      70Ag     4.938228    70Bu     4.993800    47Au     5.018380  
      71Bu     5.018380    47Bg     5.052798    71Ag     5.052798  
      72Ag     5.170218    73Ag     5.176842    48Bg     5.176842  
      72Bu     5.177140    48Au     5.177140    73Bu     5.479645  
      49Au     6.118703    74Bu     6.118703    49Bg     6.209750  
      74Ag     6.209750    75Ag     8.121969    75Bu     8.621347  

    Final Occupation by Irrep:
             Ag    Bg    Au    Bu 
    DOCC [     7,    2,    2,    6 ]

  Energy converged.

  @RHF Final Energy:  -581.37669760541519

   => Energetics <=

    Nuclear Repulsion Energy =             90.8260376510477130
    One-Electron Energy =                -986.5505017805696752
    Two-Electron Energy =                 314.3477665241067598
    Total Energy =                       -581.3766976054151883



Properties will be evaluated at   0.000000,   0.000000,   0.000000 Bohr

Properties computed using the SCF density matrix

  Nuclear Dipole Moment: (a.u.)
     X:     0.0000      Y:    -0.0000      Z:     0.0000

  Electronic Dipole Moment: (a.u.)
     X:     0.0000      Y:     0.0000      Z:     0.0000

  Dipole Moment: (a.u.)
     X:     0.0000      Y:    -0.0000      Z:     0.0000     Total:     0.0000

  Dipole Moment: (Debye)
     X:     0.0000      Y:    -0.0000      Z:     0.0000     Total:     0.0000


*** tstop() called on cqc01 at Fri Apr 26 19:17:55 2019
Module time:
	user time   =      43.82 seconds =       0.73 minutes
	system time =       5.76 seconds =       0.10 minutes
	total time  =         80 seconds =       1.33 minutes
Total time:
	user time   =      43.82 seconds =       0.73 minutes
	system time =       5.76 seconds =       0.10 minutes
	total time  =         80 seconds =       1.33 minutes

*** tstart() called on cqc01
*** at Fri Apr 26 19:17:55 2019


	Wfn Parameters:
	--------------------
	Wavefunction         = CCSD
	Number of irreps     = 4
	Number of MOs        = 248
	Number of active MOs = 238
	AO-Basis             = NONE
	Semicanonical        = false
	Reference            = RHF
	Print Level          = 1

	IRREP	# MOs	# FZDC	# DOCC	# SOCC	# VIRT	# FZVR
	-----	-----	------	------	------	------	------
	 Ag	   75	    4	    3	    0	    68	    0
	 Bg	   49	    1	    1	    0	    47	    0
	 Au	   49	    1	    1	    0	    47	    0
	 Bu	   75	    4	    2	    0	    69	    0
	Transforming integrals...
	IWL integrals will be deleted.
	(OO|OO)...
	Presorting SO-basis two-electron integrals.
	Sorting File: SO Ints (nn|nn) nbuckets = 1
	Transforming the one-electron integrals and constructing Fock matrices
	Starting first half-transformation.
	Sorting half-transformed integrals.
	First half integral transformation complete.
	Starting second half-transformation.
	Two-electron integral transformation complete.
	(OO|OV)...
	Starting second half-transformation.
	Two-electron integral transformation complete.
	(OO|VV)...
	Starting second half-transformation.
	Two-electron integral transformation complete.
	(OV|OO)...
	Starting first half-transformation.
	Sorting half-transformed integrals.
	First half integral transformation complete.
	Starting second half-transformation.
	Two-electron integral transformation complete.
	(OV|OV)...
	Starting second half-transformation.
	Two-electron integral transformation complete.
	(OV|VV)...
	Starting second half-transformation.
	Two-electron integral transformation complete.
	(VV|OO)...
	Starting first half-transformation.
	Sorting half-transformed integrals.
	First half integral transformation complete.
	Starting second half-transformation.
	Two-electron integral transformation complete.
	(VV|OV)...
	Starting second half-transformation.
	Two-electron integral transformation complete.
	(VV|VV)...
	Starting second half-transformation.
	Two-electron integral transformation complete.
	Frozen core energy     =   -642.41993510165548

	Size of irrep 0 of <ab|cd> integrals:    190.523 (MW) /   1524.182 (MB)
	Size of irrep 1 of <ab|cd> integrals:    165.843 (MW) /   1326.743 (MB)
	Size of irrep 2 of <ab|cd> integrals:    165.843 (MW) /   1326.743 (MB)
	Size of irrep 3 of <ab|cd> integrals:    190.495 (MW) /   1523.962 (MB)
	Total:                                   712.704 (MW) /   5701.630 (MB)

	Size of irrep 0 of <ia|bc> integrals:      6.018 (MW) /     48.145 (MB)
	Size of irrep 1 of <ia|bc> integrals:      4.791 (MW) /     38.325 (MB)
	Size of irrep 2 of <ia|bc> integrals:      4.791 (MW) /     38.325 (MB)
	Size of irrep 3 of <ia|bc> integrals:      6.031 (MW) /     48.252 (MB)
	Total:                                    21.631 (MW) /    173.047 (MB)

	Size of irrep 0 of tijab amplitudes:       0.207 (MW) /      1.656 (MB)
	Size of irrep 1 of tijab amplitudes:       0.129 (MW) /      1.030 (MB)
	Size of irrep 2 of tijab amplitudes:       0.129 (MW) /      1.030 (MB)
	Size of irrep 3 of tijab amplitudes:       0.193 (MW) /      1.546 (MB)
	Total:                                     0.658 (MW) /      5.263 (MB)

	Nuclear Rep. energy          =     90.82603765104771
	SCF energy                   =   -581.37669760541519
	One-electron energy          =    -51.98417969995989
	Two-electron energy          =     22.20137954514892
	Reference energy             =   -581.37669760541871

*** tstop() called on cqc01 at Fri Apr 26 19:23:39 2019
Module time:
	user time   =      62.22 seconds =       1.04 minutes
	system time =      41.40 seconds =       0.69 minutes
	total time  =        344 seconds =       5.73 minutes
Total time:
	user time   =     106.04 seconds =       1.77 minutes
	system time =      47.16 seconds =       0.79 minutes
	total time  =        424 seconds =       7.07 minutes

*** tstart() called on cqc01
*** at Fri Apr 26 19:23:39 2019

            **************************
            *                        *
            *        CCENERGY        *
            *                        *
            **************************

    Nuclear Rep. energy (wfn)     =   90.826037651047713
    SCF energy          (wfn)     = -581.376697605415188
    Reference energy    (file100) = -581.376697605418713

    Input parameters:
    -----------------
    Wave function   =     CCSD
    Reference wfn   =     RHF
    Brueckner       =     No
    Memory (Mbytes) =     32000.0
    Maxiter         =     50
    R_Convergence   =     1.0e-07
    E_Convergence   =     1.0e-06
    Restart         =     Yes
    DIIS            =     Yes
    AO Basis        =     NONE
    ABCD            =     NEW
    Cache Level     =     2
    Cache Type      =     LOW
    Print Level     =     1
    Num. of threads =     1
    # Amps to Print =     10
    Print MP2 Amps? =     No
    Analyze T2 Amps =     No
    Print Pair Ener =     No
    Local CC        =     No
    SCS-MP2         =     False
    SCSN-MP2        =     False
    SCS-CCSD        =     False

MP2 correlation energy -0.2691759822317847
                Solving CC Amplitude Equations
                ------------------------------
  Iter             Energy              RMS        T1Diag      D1Diag    New D1Diag    D2Diag
  ----     ---------------------    ---------   ----------  ----------  ----------   --------
     0        -0.269175982231755    0.000e+00    0.000000    0.000000    0.000000    0.136624
     1        -0.350513286815818    2.144e-01    0.014368    0.026624    0.026624    0.185520
     2        -0.322272521305257    3.852e-02    0.012269    0.022399    0.022399    0.169970
     3        -0.319186886274163    7.280e-03    0.012623    0.023468    0.023468    0.167729
     4        -0.318847101413086    1.940e-03    0.012637    0.023466    0.023466    0.167457
     5        -0.318704600167141    5.752e-04    0.012697    0.023594    0.023594    0.167310
     6        -0.318706903567795    1.765e-04    0.012733    0.023664    0.023664    0.167291
     7        -0.318722165780046    6.765e-05    0.012750    0.023695    0.023695    0.167297
     8        -0.318723854523331    2.314e-05    0.012756    0.023708    0.023708    0.167298
     9        -0.318723514771070    6.342e-06    0.012758    0.023711    0.023711    0.167299
    10        -0.318723622770879    1.483e-06    0.012758    0.023711    0.023711    0.167299
    11        -0.318723656342449    4.466e-07    0.012758    0.023711    0.023711    0.167299
    12        -0.318723668240507    1.589e-07    0.012758    0.023711    0.023711    0.167299
    13        -0.318723668014988    5.192e-08    0.012758    0.023711    0.023711    0.167299
    13        -0.318723668014988    5.192e-08    0.012758    0.023711    0.023711    0.167299

    Iterations converged.


    CCSD corr. energy   =   -0.318723668014988
    PPL corr. energy    =    0.096229080288675
    OS PPL corr. energy =    0.088522677673546
    SS PPL corr. energy =    0.007706402615127
    Largest TIA Amplitudes:
              6 167        -0.0183013859
              4 117        -0.0183013414
              2   4        -0.0117530277
              2  10         0.0097271419
              6 164         0.0096616518
              4 116         0.0096616356
              2   6        -0.0095452673
              3  70         0.0084230220
              1   5         0.0084230200
              2   2         0.0083807256

    Largest TIjAb Amplitudes:
      2   2 167 167        -0.0359657682
      2   2 117 117        -0.0359657614
      2   2 172 172        -0.0276273790
      2   2 167 173         0.0241061015
      2   2 173 167         0.0241061015
      2   2 117 120         0.0241060983
      2   2 120 117         0.0241060983
      6   6 167 167        -0.0239797506
      4   4 117 117        -0.0239797462
      2   2 166 172         0.0220531676

    SCF energy       (wfn)                    = -581.376697605415188
    Reference energy (file100)                = -581.376697605418713

    Opposite-spin MP2 correlation energy      =   -0.234620878965837
    Same-spin MP2 correlation energy          =   -0.034555103265918
    MP2 correlation energy                    =   -0.269175982231785
      * MP2 total energy                      = -581.645873587650499

    Opposite-spin CCSD correlation energy     =   -0.280935930966747
    Same-spin CCSD correlation energy         =   -0.037787735744585
    CCSD correlation energy                   =   -0.318723668014988
      * CCSD total energy                     = -581.695421273433681


*** tstop() called on cqc01 at Fri Apr 26 19:25:55 2019
Module time:
	user time   =      21.37 seconds =       0.36 minutes
	system time =      28.59 seconds =       0.48 minutes
	total time  =        136 seconds =       2.27 minutes
Total time:
	user time   =     127.41 seconds =       2.12 minutes
	system time =      75.76 seconds =       1.26 minutes
	total time  =        560 seconds =       9.33 minutes

*** Psi4 exiting successfully. Buy a developer a beer!
