
    -----------------------------------------------------------------------
          Psi4: An Open-Source Ab Initio Electronic Structure Package
                               Psi4 1.4a3.dev88 

                         Git: Rev {master} 262e345 


    D. G. A. Smith, L. A. Burns, A. C. Simmonett, R. M. Parrish,
    M. C. Schieber, R. Galvelis, P. Kraus, H. Kruse, R. Di Remigio,
    A. Alenaizan, A. M. James, S. Lehtola, J. P. Misiewicz, M. Scheurer,
    R. A. Shaw, J. B. Schriber, Y. Xie, Z. L. Glick, D. A. Sirianni,
    J. S. O'Brien, J. M. Waldrop, A. Kumar, E. G. Hohenstein,
    B. P. Pritchard, B. R. Brooks, H. F. Schaefer III, A. Yu. Sokolov,
    K. Patkowski, A. E. DePrince III, U. Bozkaya, R. A. King,
    F. A. Evangelista, J. M. Turney, T. D. Crawford, C. D. Sherrill,
    J. Chem. Phys. 152(18) 184108 (2020). https://doi.org/10.1063/5.0006002

                            Additional Code Authors
    E. T. Seidl, C. L. Janssen, E. F. Valeev, M. L. Leininger,
    J. F. Gonthier, R. M. Richard, H. R. McAlexander, M. Saitow, X. Wang,
    P. Verma, and M. H. Lechner

             Previous Authors, Complete List of Code Contributors,
                       and Citations for Specific Modules
    https://github.com/psi4/psi4/blob/master/codemeta.json
    https://github.com/psi4/psi4/graphs/contributors
    http://psicode.org/psi4manual/master/introduction.html#citing-psifour

    -----------------------------------------------------------------------


    Psi4 started on: Tuesday, 26 January 2021 06:16PM

    Process ID: 402095
    Host:       n412-039.vsc4.prov
    PSIDATADIR: /home/fs71337/gallo4/psi4/eri-6/psi4/build/stage/share/psi4
    Memory:     500.0 MiB
    Threads:    48
    
  ==> Input File <==

--------------------------------------------------------------------------
# Any line starting with the # character is a comment line
memory 250000 mb
molecule molecule{
0 1
O          0.0000000000        0.0000000000       -0.4883910965
C          0.0000000000        0.0000000000        0.6505673556
}

set {
  reference rhf
  basis aug-cc-pV(d+d)Z
  scf_type OUT_OF_CORE
  freeze_core true
}

energy('ccsd(t)')
--------------------------------------------------------------------------

  Memory set to 232.831 GiB by Python driver.

Scratch directory: /binfl/lv71337/airmler/temp/

*** tstart() called on n412-039.vsc4.prov
*** at Tue Jan 26 18:16:26 2021

   => Loading Basis Set <=

    Name: AUG-CC-PV(D+D)Z
    Role: ORBITAL
    Keyword: BASIS
    atoms 1 entry O          line   282 file /home/fs71337/gallo4/psi4/eri-6/psi4/build/stage/share/psi4/basis/aug-cc-pv_dpd_z.gbs 
    atoms 2 entry C          line   210 file /home/fs71337/gallo4/psi4/eri-6/psi4/build/stage/share/psi4/basis/aug-cc-pv_dpd_z.gbs 


         ---------------------------------------------------------
                                   SCF
               by Justin Turney, Rob Parrish, Andy Simmonett
                          and Daniel G. A. Smith
                              RHF Reference
                       48 Threads, 238418 MiB Core
         ---------------------------------------------------------

  ==> Geometry <==

    Molecular point group: c2v
    Full point group: C_inf_v

    Geometry (in Angstrom), charge = 0, multiplicity = 1:

       Center              X                  Y                   Z               Mass       
    ------------   -----------------  -----------------  -----------------  -----------------
         O            0.000000000000     0.000000000000    -0.488213720632    15.994914619570
         C            0.000000000000     0.000000000000     0.650744731468    12.000000000000

  Running in c2v symmetry.

  Rotational constants: A = ************  B =      1.89538  C =      1.89538 [cm^-1]
  Rotational constants: A = ************  B =  56822.11710  C =  56822.11710 [MHz]
  Nuclear repulsion =   22.301521241031057

  Charge       = 0
  Multiplicity = 1
  Electrons    = 14
  Nalpha       = 7
  Nbeta        = 7

  ==> Algorithm <==

  SCF Algorithm Type is OUT_OF_CORE.
  DIIS enabled.
  MOM disabled.
  Fractional occupation disabled.
  Guess Type is SAD.
  Energy threshold   = 1.00e-08
  Density threshold  = 1.00e-08
  Integral threshold = 1.00e-12

  ==> Primary Basis <==

  Basis Set: AUG-CC-PV(D+D)Z
    Blend: AUG-CC-PV(D+D)Z
    Number of shells: 18
    Number of basis function: 46
    Number of Cartesian functions: 50
    Spherical Harmonics?: true
    Max angular momentum: 2

  ==> Integral Setup <==

  ==> DiskJK: Disk-Based J/K Matrices <==

    J tasked:                  Yes
    K tasked:                  Yes
    wK tasked:                  No
    Memory [MiB]:           178813
    Schwarz Cutoff:          1E-12

  Minimum eigenvalue in the overlap matrix is 2.5151214290E-03.
  Reciprocal condition number of the overlap matrix is 6.0490869505E-04.
    Using symmetric orthogonalization.

  ==> Pre-Iterations <==

  SCF Guess: Superposition of Atomic Densities via on-the-fly atomic UHF (no occupation information).


 WARNING: Atomic UHF is not converging! Try casting from a smaller basis or call Rob at CCMST.

 WARNING: Atomic UHF is not converging! Try casting from a smaller basis or call Rob at CCMST.
   -------------------------
    Irrep   Nso     Nmo    
   -------------------------
     A1        22      22 
     A2         4       4 
     B1        10      10 
     B2        10      10 
   -------------------------
    Total      46      46
   -------------------------

  ==> Iterations <==

                        Total Energy        Delta E     RMS |[F,P]|

   @RHF iter SAD:   -92.09303938095758   -9.20930e+01   0.00000e+00 
   @RHF iter   1:  -108.65596300996378   -1.65629e+01   1.11897e-01 DIIS
   @RHF iter   2:  -109.09661538511935   -4.40652e-01   8.26283e-02 DIIS
   @RHF iter   3:  -112.52312133403611   -3.42651e+00   2.67494e-02 DIIS
   @RHF iter   4:  -112.74095391476530   -2.17833e-01   4.95304e-03 DIIS
   @RHF iter   5:  -112.75301556381862   -1.20616e-02   7.87234e-04 DIIS
   @RHF iter   6:  -112.75340750938523   -3.91946e-04   4.59270e-04 DIIS
   @RHF iter   7:  -112.75348598042450   -7.84710e-05   7.79431e-05 DIIS
   @RHF iter   8:  -112.75348871277949   -2.73235e-06   9.96003e-06 DIIS
   @RHF iter   9:  -112.75348879213013   -7.93506e-08   3.82697e-06 DIIS
   @RHF iter  10:  -112.75348880144416   -9.31404e-09   8.69283e-07 DIIS
   @RHF iter  11:  -112.75348880286371   -1.41955e-09   3.83560e-07 DIIS
   @RHF iter  12:  -112.75348880299860   -1.34889e-10   5.42866e-08 DIIS
   @RHF iter  13:  -112.75348880300045   -1.84741e-12   2.58875e-09 DIIS
  Energy and wave function converged.


  ==> Post-Iterations <==

    Orbital Energies [Eh]
    ---------------------

    Doubly Occupied:                                                      

       1A1   -20.678816     2A1   -11.378270     3A1    -1.522478  
       4A1    -0.807385     1B1    -0.636407     1B2    -0.636407  
       5A1    -0.555917  

    Virtual:                                                              

       2B2     0.078109     2B1     0.078109     6A1     0.081548  
       7A1     0.105335     3B2     0.167968     3B1     0.167968  
       8A1     0.225130     4B2     0.247833     4B1     0.247833  
       9A1     0.335053    10A1     0.433581     1A2     0.433581  
      11A1     0.520904     5B1     0.600929     5B2     0.600929  
      12A1     0.697182     6B2     0.747434     6B1     0.747434  
      13A1     0.931666    14A1     1.053849     2A2     1.053924  
      15A1     1.053924     7B2     1.205156     7B1     1.205156  
      16A1     1.427722     3A2     1.651124    17A1     1.651124  
       8B1     1.665402     8B2     1.665402     9B2     1.963141  
       9B1     1.963141    18A1     2.127527    19A1     2.216785  
      20A1     2.976433     4A2     3.550563    21A1     3.550563  
      10B2     3.670527    10B1     3.670527    22A1     4.023520  

    Final Occupation by Irrep:
             A1    A2    B1    B2 
    DOCC [     5,    0,    1,    1 ]

  @RHF Final Energy:  -112.75348880300045

   => Energetics <=

    Nuclear Repulsion Energy =             22.3015212410310575
    One-Electron Energy =                -197.6786578724041021
    Two-Electron Energy =                  62.6236478283725972
    Total Energy =                       -112.7534888030004510

Computation Completed


Properties will be evaluated at   0.000000,   0.000000,   0.000000 [a0]

Properties computed using the SCF density matrix

  Nuclear Dipole Moment: [e a0]
     X:     0.0000      Y:     0.0000      Z:    -0.0023

  Electronic Dipole Moment: [e a0]
     X:     0.0000      Y:     0.0000      Z:     0.1252

  Dipole Moment: [e a0]
     X:     0.0000      Y:     0.0000      Z:     0.1228     Total:     0.1228

  Dipole Moment: [D]
     X:     0.0000      Y:     0.0000      Z:     0.3122     Total:     0.3122


*** tstop() called on n412-039.vsc4.prov at Tue Jan 26 18:16:27 2021
Module time:
	user time   =      18.88 seconds =       0.31 minutes
	system time =       0.98 seconds =       0.02 minutes
	total time  =          1 seconds =       0.02 minutes
Total time:
	user time   =      18.88 seconds =       0.31 minutes
	system time =       0.98 seconds =       0.02 minutes
	total time  =          1 seconds =       0.02 minutes

*** tstart() called on n412-039.vsc4.prov
*** at Tue Jan 26 18:16:27 2021


	Wfn Parameters:
	--------------------
	Wavefunction         = CCSD_T
	Number of irreps     = 4
	Number of MOs        = 46
	Number of active MOs = 44
	AO-Basis             = NONE
	Semicanonical        = false
	Reference            = RHF
	Print Level          = 1

	IRREP	# MOs	# FZDC	# DOCC	# SOCC	# VIRT	# FZVR
	-----	-----	------	------	------	------	------
	 A1	   22	    2	    3	    0	    17	    0
	 A2	   4	    0	    0	    0	    4	    0
	 B1	   10	    0	    1	    0	    9	    0
	 B2	   10	    0	    1	    0	    9	    0
	Transforming integrals...
	IWL integrals will be deleted.
	(OO|OO)...
	Presorting SO-basis two-electron integrals.
	Sorting File: SO Ints (nn|nn) nbuckets = 1
	Constructing frozen core operators
	Starting first half-transformation.
	Sorting half-transformed integrals.
	First half integral transformation complete.
	Starting second half-transformation.
	Two-electron integral transformation complete.
	(OO|OV)...
	Starting second half-transformation.
	Two-electron integral transformation complete.
	(OO|VV)...
	Starting second half-transformation.
	Two-electron integral transformation complete.
	(OV|OO)...
	Starting first half-transformation.
	Sorting half-transformed integrals.
	First half integral transformation complete.
	Starting second half-transformation.
	Two-electron integral transformation complete.
	(OV|OV)...
	Starting second half-transformation.
	Two-electron integral transformation complete.
	(OV|VV)...
	Starting second half-transformation.
	Two-electron integral transformation complete.
	(VV|OO)...
	Starting first half-transformation.
	Sorting half-transformed integrals.
	First half integral transformation complete.
	Starting second half-transformation.
	Two-electron integral transformation complete.
	(VV|OV)...
	Starting second half-transformation.
	Two-electron integral transformation complete.
	(VV|VV)...
	Starting second half-transformation.
	Two-electron integral transformation complete.
	Frozen core energy     =   -102.61674004751427

	Size of irrep 0 of <ab|cd> integrals:      0.218 (MW) /      1.745 (MB)
	Size of irrep 1 of <ab|cd> integrals:      0.089 (MW) /      0.710 (MB)
	Size of irrep 2 of <ab|cd> integrals:      0.143 (MW) /      1.143 (MB)
	Size of irrep 3 of <ab|cd> integrals:      0.143 (MW) /      1.143 (MB)
	Total:                                     0.593 (MW) /      4.741 (MB)

	Size of irrep 0 of <ia|bc> integrals:      0.032 (MW) /      0.258 (MB)
	Size of irrep 1 of <ia|bc> integrals:      0.009 (MW) /      0.072 (MB)
	Size of irrep 2 of <ia|bc> integrals:      0.018 (MW) /      0.145 (MB)
	Size of irrep 3 of <ia|bc> integrals:      0.018 (MW) /      0.145 (MB)
	Total:                                     0.077 (MW) /      0.620 (MB)

	Size of irrep 0 of tijab amplitudes:       0.005 (MW) /      0.041 (MB)
	Size of irrep 1 of tijab amplitudes:       0.001 (MW) /      0.005 (MB)
	Size of irrep 2 of tijab amplitudes:       0.002 (MW) /      0.018 (MB)
	Size of irrep 3 of tijab amplitudes:       0.002 (MW) /      0.018 (MB)
	Total:                                     0.010 (MW) /      0.082 (MB)

	Nuclear Rep. energy          =     22.30152124103106
	SCF energy                   =   -112.75348880300045
	One-electron energy          =    -56.55934926622682
	Two-electron energy          =     24.12107926970963
	Reference energy             =   -112.75348880300041

*** tstop() called on n412-039.vsc4.prov at Tue Jan 26 18:16:28 2021
Module time:
	user time   =       0.08 seconds =       0.00 minutes
	system time =       0.15 seconds =       0.00 minutes
	total time  =          1 seconds =       0.02 minutes
Total time:
	user time   =      18.96 seconds =       0.32 minutes
	system time =       1.13 seconds =       0.02 minutes
	total time  =          2 seconds =       0.03 minutes
            **************************
            *                        *
            *        CCENERGY        *
            *                        *
            **************************

    Nuclear Rep. energy (wfn)     =   22.301521241031057
    SCF energy          (wfn)     = -112.753488803000451
    Reference energy    (file100) = -112.753488803000408

    Input parameters:
    -----------------
    Wave function   =     CCSD_T
    Reference wfn   =     RHF
    Brueckner       =     No
    Memory (Mbytes) =     250000.0
    Maxiter         =     50
    R_Convergence   =     1.0e-07
    E_Convergence   =     1.0e-06
    Restart         =     Yes
    DIIS            =     Yes
    AO Basis        =     NONE
    ABCD            =     NEW
    Cache Level     =     2
    Cache Type      =     LOW
    Print Level     =     1
    Num. of threads =     48
    # Amps to Print =     10
    Print MP2 Amps? =     No
    Analyze T2 Amps =     No
    Print Pair Ener =     No
    Local CC        =     No
    SCS-MP2         =     False
    SCSN-MP2        =     False
    SCS-CCSD        =     False

MP2 correlation energy -0.3012234440761744
                Solving CC Amplitude Equations
                ------------------------------
  Iter             Energy              RMS        T1Diag      D1Diag    New D1Diag    D2Diag
  ----     ---------------------    ---------   ----------  ----------  ----------   --------
     0        -0.301223444076174    0.000e+00    0.000000    0.000000    0.000000    0.144534
     1        -0.293489728271324    7.128e-02    0.017062    0.036191    0.036191    0.146443
     2        -0.304620873547311    2.795e-02    0.015643    0.032478    0.032478    0.155377
     3        -0.307953201475284    1.164e-02    0.019022    0.039541    0.039541    0.162875
     4        -0.307715636557937    2.183e-03    0.019366    0.040134    0.040134    0.163078
     5        -0.307817012698782    8.325e-04    0.019559    0.040525    0.040525    0.163007
     6        -0.307818510760396    1.742e-04    0.019592    0.040594    0.040594    0.162909
     7        -0.307818765111009    4.026e-05    0.019597    0.040605    0.040605    0.162890
     8        -0.307819079664569    1.330e-05    0.019600    0.040611    0.040611    0.162885
     9        -0.307818848250654    3.721e-06    0.019601    0.040612    0.040612    0.162885
    10        -0.307818719441494    9.621e-07    0.019601    0.040612    0.040612    0.162885
    11        -0.307818743744857    2.983e-07    0.019601    0.040612    0.040612    0.162885
    12        -0.307818728402547    1.031e-07    0.019601    0.040612    0.040612    0.162885
    13        -0.307818732585467    3.066e-08    0.019601    0.040612    0.040612    0.162885

    Iterations converged.


    Largest TIA Amplitudes:
              3  22        -0.0311557426
              4  31        -0.0311557426
              3  21        -0.0183357267
              4  30        -0.0183357267
              4  36         0.0123022998
              3  27         0.0123022998
              2   3         0.0113664562
              3  25         0.0110024555
              4  34         0.0110024555
              2   0        -0.0106046876

    Largest TIjAb Amplitudes:
      2   2  22  22        -0.0457967361
      2   2  31  31        -0.0457967360
      4   4  31  31        -0.0446656836
      3   3  22  22        -0.0446656836
      3   4  22  31        -0.0300387646
      4   3  31  22        -0.0300387646
      2   2   8   8        -0.0293231774
      4   4  30  31        -0.0287989454
      4   4  31  30        -0.0287989454
      3   3  21  22        -0.0287989454

    SCF energy       (wfn)                    = -112.753488803000451
    Reference energy (file100)                = -112.753488803000408

    Opposite-spin MP2 correlation energy      =   -0.221618392446199
    Same-spin MP2 correlation energy          =   -0.079605051629975
    Singles MP2 correlation energy            =   -0.000000000000000
    MP2 correlation energy                    =   -0.301223444076174
      * MP2 total energy                      = -113.054712247076580

    Opposite-spin CCSD correlation energy     =   -0.240460803000982
    Same-spin CCSD correlation energy         =   -0.067357929584485
    Singles CCSD correlation energy           =    0.000000000000000
    CCSD correlation energy                   =   -0.307818732585467
      * CCSD total energy                     = -113.061307535585868

            **************************
            *                        *
            *        CCTRIPLES       *
            *                        *
            **************************


    Wave function   =    CCSD_T
    Reference wfn   =      RHF

    Nuclear Rep. energy (wfn)                =   22.301521241031057
    SCF energy          (wfn)                = -112.753488803000451
    Reference energy    (file100)            = -112.753488803000408
    CCSD energy         (file100)            =   -0.307818732585467
    Total CCSD energy   (file100)            = -113.061307535585868

    Number of ijk index combinations:               35
    Memory available in words        :     31250000000
    ~Words needed per explicit thread:           19652
    Number of threads for explicit ijk threading:   48

    (T) energy                                =   -0.012683159700356
      * CCSD(T) total energy                  = -113.073990695286227


    Psi4 stopped on: Tuesday, 26 January 2021 06:16PM
    Psi4 wall time for execution: 0:00:05.20

*** Psi4 exiting successfully. Buy a developer a beer!
