
    -----------------------------------------------------------------------
          Psi4: An Open-Source Ab Initio Electronic Structure Package
                               Psi4 1.4a3.dev88 

                         Git: Rev {master} 262e345 


    D. G. A. Smith, L. A. Burns, A. C. Simmonett, R. M. Parrish,
    M. C. Schieber, R. Galvelis, P. Kraus, H. Kruse, R. Di Remigio,
    A. Alenaizan, A. M. James, S. Lehtola, J. P. Misiewicz, M. Scheurer,
    R. A. Shaw, J. B. Schriber, Y. Xie, Z. L. Glick, D. A. Sirianni,
    J. S. O'Brien, J. M. Waldrop, A. Kumar, E. G. Hohenstein,
    B. P. Pritchard, B. R. Brooks, H. F. Schaefer III, A. Yu. Sokolov,
    K. Patkowski, A. E. DePrince III, U. Bozkaya, R. A. King,
    F. A. Evangelista, J. M. Turney, T. D. Crawford, C. D. Sherrill,
    J. Chem. Phys. 152(18) 184108 (2020). https://doi.org/10.1063/5.0006002

                            Additional Code Authors
    E. T. Seidl, C. L. Janssen, E. F. Valeev, M. L. Leininger,
    J. F. Gonthier, R. M. Richard, H. R. McAlexander, M. Saitow, X. Wang,
    P. Verma, and M. H. Lechner

             Previous Authors, Complete List of Code Contributors,
                       and Citations for Specific Modules
    https://github.com/psi4/psi4/blob/master/codemeta.json
    https://github.com/psi4/psi4/graphs/contributors
    http://psicode.org/psi4manual/master/introduction.html#citing-psifour

    -----------------------------------------------------------------------


    Psi4 started on: Tuesday, 26 January 2021 06:09PM

    Process ID: 403119
    Host:       n412-040.vsc4.prov
    PSIDATADIR: /home/fs71337/gallo4/psi4/eri-6/psi4/build/stage/share/psi4
    Memory:     500.0 MiB
    Threads:    48
    
  ==> Input File <==

--------------------------------------------------------------------------
# Any line starting with the # character is a comment line
memory 250000 mb
molecule molecule{
0 1
O          0.0000000000        0.0000000000       -0.4883910965
C          0.0000000000        0.0000000000        0.6505673556
}

set {
  reference rhf
  basis aug-cc-pV(t+d)Z
  scf_type OUT_OF_CORE
  freeze_core true
}

energy('ccsd(t)')
--------------------------------------------------------------------------

  Memory set to 232.831 GiB by Python driver.

Scratch directory: /binfl/lv71337/airmler/temp/

*** tstart() called on n412-040.vsc4.prov
*** at Tue Jan 26 18:09:00 2021

   => Loading Basis Set <=

    Name: AUG-CC-PV(T+D)Z
    Role: ORBITAL
    Keyword: BASIS
    atoms 1 entry O          line   359 file /home/fs71337/gallo4/psi4/eri-6/psi4/build/stage/share/psi4/basis/aug-cc-pv_tpd_z.gbs 
    atoms 2 entry C          line   267 file /home/fs71337/gallo4/psi4/eri-6/psi4/build/stage/share/psi4/basis/aug-cc-pv_tpd_z.gbs 


         ---------------------------------------------------------
                                   SCF
               by Justin Turney, Rob Parrish, Andy Simmonett
                          and Daniel G. A. Smith
                              RHF Reference
                       48 Threads, 238418 MiB Core
         ---------------------------------------------------------

  ==> Geometry <==

    Molecular point group: c2v
    Full point group: C_inf_v

    Geometry (in Angstrom), charge = 0, multiplicity = 1:

       Center              X                  Y                   Z               Mass       
    ------------   -----------------  -----------------  -----------------  -----------------
         O            0.000000000000     0.000000000000    -0.488213720632    15.994914619570
         C            0.000000000000     0.000000000000     0.650744731468    12.000000000000

  Running in c2v symmetry.

  Rotational constants: A = ************  B =      1.89538  C =      1.89538 [cm^-1]
  Rotational constants: A = ************  B =  56822.11710  C =  56822.11710 [MHz]
  Nuclear repulsion =   22.301521241031057

  Charge       = 0
  Multiplicity = 1
  Electrons    = 14
  Nalpha       = 7
  Nbeta        = 7

  ==> Algorithm <==

  SCF Algorithm Type is OUT_OF_CORE.
  DIIS enabled.
  MOM disabled.
  Fractional occupation disabled.
  Guess Type is SAD.
  Energy threshold   = 1.00e-08
  Density threshold  = 1.00e-08
  Integral threshold = 1.00e-12

  ==> Primary Basis <==

  Basis Set: AUG-CC-PV(T+D)Z
    Blend: AUG-CC-PV(T+D)Z
    Number of shells: 28
    Number of basis function: 92
    Number of Cartesian functions: 110
    Spherical Harmonics?: true
    Max angular momentum: 3

  ==> Integral Setup <==

  ==> DiskJK: Disk-Based J/K Matrices <==

    J tasked:                  Yes
    K tasked:                  Yes
    wK tasked:                  No
    Memory [MiB]:           178813
    Schwarz Cutoff:          1E-12

  Minimum eigenvalue in the overlap matrix is 4.8080839659E-04.
  Reciprocal condition number of the overlap matrix is 9.6221372865E-05.
    Using symmetric orthogonalization.

  ==> Pre-Iterations <==

  SCF Guess: Superposition of Atomic Densities via on-the-fly atomic UHF (no occupation information).


 WARNING: Atomic UHF is not converging! Try casting from a smaller basis or call Rob at CCMST.

 WARNING: Atomic UHF is not converging! Try casting from a smaller basis or call Rob at CCMST.
   -------------------------
    Irrep   Nso     Nmo    
   -------------------------
     A1        38      38 
     A2        10      10 
     B1        22      22 
     B2        22      22 
   -------------------------
    Total      92      92
   -------------------------

  ==> Iterations <==

                        Total Energy        Delta E     RMS |[F,P]|

   @RHF iter SAD:   -83.18877818723504   -8.31888e+01   0.00000e+00 
   @RHF iter   1:  -107.97288303711527   -2.47841e+01   8.15582e-02 DIIS
   @RHF iter   2:  -109.10348583855873   -1.13060e+00   4.69080e-02 DIIS
   @RHF iter   3:  -112.02506589199430   -2.92158e+00   2.67837e-02 DIIS
   @RHF iter   4:  -112.75472168362421   -7.29656e-01   3.91781e-03 DIIS
   @RHF iter   5:  -112.77875433154676   -2.40326e-02   8.76981e-04 DIIS
   @RHF iter   6:  -112.77967539135285   -9.21060e-04   3.72988e-04 DIIS
   @RHF iter   7:  -112.77987839630987   -2.03005e-04   7.45755e-05 DIIS
   @RHF iter   8:  -112.77988829316482   -9.89685e-06   1.18312e-05 DIIS
   @RHF iter   9:  -112.77988874256241   -4.49398e-07   3.43779e-06 DIIS
   @RHF iter  10:  -112.77988880250348   -5.99411e-08   1.11358e-06 DIIS
   @RHF iter  11:  -112.77988881071950   -8.21602e-09   3.85367e-07 DIIS
   @RHF iter  12:  -112.77988881101767   -2.98172e-10   2.55377e-08 DIIS
   @RHF iter  13:  -112.77988881101955   -1.87583e-12   3.29436e-09 DIIS
  Energy and wave function converged.


  ==> Post-Iterations <==

    Orbital Energies [Eh]
    ---------------------

    Doubly Occupied:                                                      

       1A1   -20.668604     2A1   -11.366733     3A1    -1.515673  
       4A1    -0.803994     1B2    -0.635893     1B1    -0.635893  
       5A1    -0.556154  

    Virtual:                                                              

       6A1     0.069452     2B2     0.069711     2B1     0.069711  
       7A1     0.087602     3B2     0.150998     3B1     0.150998  
       8A1     0.185238     4B2     0.198106     4B1     0.198106  
       9A1     0.268922     1A2     0.296040    10A1     0.296040  
      11A1     0.392106     5B2     0.413099     5B1     0.413099  
      12A1     0.499909     6B1     0.508120     6B2     0.508120  
      13A1     0.669886     2A2     0.724926    14A1     0.724926  
      15A1     0.783473     7B2     0.841303     7B1     0.841303  
      16A1     1.004258     3A2     1.046771    17A1     1.046771  
       8B1     1.071973     8B2     1.071973     9B2     1.086585  
       9B1     1.086585    10B2     1.220485    10B1     1.220485  
      18A1     1.250425     4A2     1.274477    19A1     1.274477  
      20A1     1.381413    11B2     1.486042    11B1     1.486042  
      21A1     1.527895    12B1     2.141751    12B2     2.141751  
       5A2     2.178777    22A1     2.178777    13B2     2.321213  
      13B1     2.321213    23A1     2.354913    24A1     2.432233  
      14B1     2.563334    14B2     2.563334    25A1     2.577990  
       6A2     2.577990    26A1     2.673623    15B1     2.972304  
      15B2     2.972304    27A1     3.392754     7A2     3.392754  
      16B1     3.418477    16B2     3.418477    28A1     3.473699  
      17B1     3.619390    17B2     3.619390    29A1     3.734122  
       8A2     3.734122    18B2     3.978361    18B1     3.978361  
      30A1     4.011062    31A1     4.372317    19B1     5.204531  
      19B2     5.204531    32A1     5.309406    20B1     6.466889  
      20B2     6.466889    33A1     6.743020     9A2     6.743020  
      34A1     7.026091    10A2     7.026091    21B1     7.086366  
      21B2     7.086366    35A1     7.188746    22B1     7.430391  
      22B2     7.430391    36A1     7.596380    37A1    12.460430  
      38A1    15.031902  

    Final Occupation by Irrep:
             A1    A2    B1    B2 
    DOCC [     5,    0,    1,    1 ]

  @RHF Final Energy:  -112.77988881101955

   => Energetics <=

    Nuclear Repulsion Energy =             22.3015212410310575
    One-Electron Energy =                -197.7969323020538752
    Two-Electron Energy =                  62.7155222500032750
    Total Energy =                       -112.7798888110195463

Computation Completed


Properties will be evaluated at   0.000000,   0.000000,   0.000000 [a0]

Properties computed using the SCF density matrix

  Nuclear Dipole Moment: [e a0]
     X:     0.0000      Y:     0.0000      Z:    -0.0023

  Electronic Dipole Moment: [e a0]
     X:     0.0000      Y:     0.0000      Z:     0.1283

  Dipole Moment: [e a0]
     X:     0.0000      Y:     0.0000      Z:     0.1260     Total:     0.1260

  Dipole Moment: [D]
     X:     0.0000      Y:     0.0000      Z:     0.3202     Total:     0.3202


*** tstop() called on n412-040.vsc4.prov at Tue Jan 26 18:09:04 2021
Module time:
	user time   =      32.05 seconds =       0.53 minutes
	system time =       1.12 seconds =       0.02 minutes
	total time  =          4 seconds =       0.07 minutes
Total time:
	user time   =      32.05 seconds =       0.53 minutes
	system time =       1.12 seconds =       0.02 minutes
	total time  =          4 seconds =       0.07 minutes

*** tstart() called on n412-040.vsc4.prov
*** at Tue Jan 26 18:09:04 2021


	Wfn Parameters:
	--------------------
	Wavefunction         = CCSD_T
	Number of irreps     = 4
	Number of MOs        = 92
	Number of active MOs = 90
	AO-Basis             = NONE
	Semicanonical        = false
	Reference            = RHF
	Print Level          = 1

	IRREP	# MOs	# FZDC	# DOCC	# SOCC	# VIRT	# FZVR
	-----	-----	------	------	------	------	------
	 A1	   38	    2	    3	    0	    33	    0
	 A2	   10	    0	    0	    0	    10	    0
	 B1	   22	    0	    1	    0	    21	    0
	 B2	   22	    0	    1	    0	    21	    0
	Transforming integrals...
	IWL integrals will be deleted.
	(OO|OO)...
	Presorting SO-basis two-electron integrals.
	Sorting File: SO Ints (nn|nn) nbuckets = 1
	Constructing frozen core operators
	Starting first half-transformation.
	Sorting half-transformed integrals.
	First half integral transformation complete.
	Starting second half-transformation.
	Two-electron integral transformation complete.
	(OO|OV)...
	Starting second half-transformation.
	Two-electron integral transformation complete.
	(OO|VV)...
	Starting second half-transformation.
	Two-electron integral transformation complete.
	(OV|OO)...
	Starting first half-transformation.
	Sorting half-transformed integrals.
	First half integral transformation complete.
	Starting second half-transformation.
	Two-electron integral transformation complete.
	(OV|OV)...
	Starting second half-transformation.
	Two-electron integral transformation complete.
	(OV|VV)...
	Starting second half-transformation.
	Two-electron integral transformation complete.
	(VV|OO)...
	Starting first half-transformation.
	Sorting half-transformed integrals.
	First half integral transformation complete.
	Starting second half-transformation.
	Two-electron integral transformation complete.
	(VV|OV)...
	Starting second half-transformation.
	Two-electron integral transformation complete.
	(VV|VV)...
	Starting second half-transformation.
	Two-electron integral transformation complete.
	Frozen core energy     =   -102.61747598792769

	Size of irrep 0 of <ab|cd> integrals:      4.289 (MW) /     34.312 (MB)
	Size of irrep 1 of <ab|cd> integrals:      2.378 (MW) /     19.022 (MB)
	Size of irrep 2 of <ab|cd> integrals:      3.262 (MW) /     26.093 (MB)
	Size of irrep 3 of <ab|cd> integrals:      3.262 (MW) /     26.093 (MB)
	Total:                                    13.190 (MW) /    105.521 (MB)

	Size of irrep 0 of <ia|bc> integrals:      0.292 (MW) /      2.336 (MB)
	Size of irrep 1 of <ia|bc> integrals:      0.111 (MW) /      0.888 (MB)
	Size of irrep 2 of <ia|bc> integrals:      0.191 (MW) /      1.531 (MB)
	Size of irrep 3 of <ia|bc> integrals:      0.191 (MW) /      1.531 (MB)
	Total:                                     0.786 (MW) /      6.287 (MB)

	Size of irrep 0 of tijab amplitudes:       0.023 (MW) /      0.182 (MB)
	Size of irrep 1 of tijab amplitudes:       0.003 (MW) /      0.025 (MB)
	Size of irrep 2 of tijab amplitudes:       0.011 (MW) /      0.087 (MB)
	Size of irrep 3 of tijab amplitudes:       0.011 (MW) /      0.087 (MB)
	Total:                                     0.048 (MW) /      0.380 (MB)

	Nuclear Rep. energy          =     22.30152124103106
	SCF energy                   =   -112.77988881101955
	One-electron energy          =    -56.63265564486952
	Two-electron energy          =     24.16872158074663
	Reference energy             =   -112.77988881101952

*** tstop() called on n412-040.vsc4.prov at Tue Jan 26 18:09:09 2021
Module time:
	user time   =       1.02 seconds =       0.02 minutes
	system time =       0.59 seconds =       0.01 minutes
	total time  =          5 seconds =       0.08 minutes
Total time:
	user time   =      33.07 seconds =       0.55 minutes
	system time =       1.71 seconds =       0.03 minutes
	total time  =          9 seconds =       0.15 minutes
            **************************
            *                        *
            *        CCENERGY        *
            *                        *
            **************************

    Nuclear Rep. energy (wfn)     =   22.301521241031057
    SCF energy          (wfn)     = -112.779888811019546
    Reference energy    (file100) = -112.779888811019518

    Input parameters:
    -----------------
    Wave function   =     CCSD_T
    Reference wfn   =     RHF
    Brueckner       =     No
    Memory (Mbytes) =     250000.0
    Maxiter         =     50
    R_Convergence   =     1.0e-07
    E_Convergence   =     1.0e-06
    Restart         =     Yes
    DIIS            =     Yes
    AO Basis        =     NONE
    ABCD            =     NEW
    Cache Level     =     2
    Cache Type      =     LOW
    Print Level     =     1
    Num. of threads =     48
    # Amps to Print =     10
    Print MP2 Amps? =     No
    Analyze T2 Amps =     No
    Print Pair Ener =     No
    Local CC        =     No
    SCS-MP2         =     False
    SCSN-MP2        =     False
    SCS-CCSD        =     False

MP2 correlation energy -0.3625223282494880
                Solving CC Amplitude Equations
                ------------------------------
  Iter             Energy              RMS        T1Diag      D1Diag    New D1Diag    D2Diag
  ----     ---------------------    ---------   ----------  ----------  ----------   --------
     0        -0.362522328249488    0.000e+00    0.000000    0.000000    0.000000    0.147739
     1        -0.349033621376444    7.048e-02    0.016629    0.035306    0.035306    0.147149
     2        -0.361277220994541    2.872e-02    0.014948    0.031194    0.031194    0.155208
     3        -0.364705527709413    1.141e-02    0.018224    0.038171    0.038171    0.162341
     4        -0.364303121864657    2.271e-03    0.018553    0.038736    0.038736    0.162806
     5        -0.364396611840987    9.005e-04    0.018777    0.039202    0.039202    0.162792
     6        -0.364400713675481    1.903e-04    0.018818    0.039288    0.039288    0.162690
     7        -0.364400386125083    5.005e-05    0.018827    0.039307    0.039307    0.162663
     8        -0.364401039294103    1.402e-05    0.018830    0.039314    0.039314    0.162658
     9        -0.364400871347150    3.836e-06    0.018831    0.039316    0.039316    0.162657
    10        -0.364400663130478    1.148e-06    0.018831    0.039316    0.039316    0.162657
    11        -0.364400716900239    3.719e-07    0.018831    0.039316    0.039316    0.162657
    12        -0.364400690256165    1.406e-07    0.018831    0.039316    0.039316    0.162657
    13        -0.364400693095101    3.913e-08    0.018831    0.039316    0.039316    0.162657

    Iterations converged.


    Largest TIA Amplitudes:
              4  65        -0.0303113447
              3  44        -0.0303113445
              4  68        -0.0140939939
              3  47        -0.0140939939
              4  64        -0.0127000109
              3  43        -0.0127000108
              2   3         0.0094945322
              3  50         0.0091278664
              4  71         0.0091278664
              2   9         0.0081431136

    Largest TIjAb Amplitudes:
      2   2  65  65        -0.0453837820
      2   2  44  44        -0.0453837819
      3   3  44  44        -0.0435551145
      4   4  65  65        -0.0435551145
      3   4  44  65        -0.0293657294
      4   3  65  44        -0.0293657294
      2   2   9   9        -0.0240116813
      4   4  64  65        -0.0231767441
      4   4  65  64        -0.0231767441
      3   3  43  44        -0.0231767440

    SCF energy       (wfn)                    = -112.779888811019546
    Reference energy (file100)                = -112.779888811019518

    Opposite-spin MP2 correlation energy      =   -0.270893348438753
    Same-spin MP2 correlation energy          =   -0.091628979810735
    Singles MP2 correlation energy            =   -0.000000000000000
    MP2 correlation energy                    =   -0.362522328249488
      * MP2 total energy                      = -113.142411139269001

    Opposite-spin CCSD correlation energy     =   -0.286030392033289
    Same-spin CCSD correlation energy         =   -0.078370301061811
    Singles CCSD correlation energy           =    0.000000000000000
    CCSD correlation energy                   =   -0.364400693095101
      * CCSD total energy                     = -113.144289504114624

            **************************
            *                        *
            *        CCTRIPLES       *
            *                        *
            **************************


    Wave function   =    CCSD_T
    Reference wfn   =      RHF

    Nuclear Rep. energy (wfn)                =   22.301521241031057
    SCF energy          (wfn)                = -112.779888811019546
    Reference energy    (file100)            = -112.779888811019518
    CCSD energy         (file100)            =   -0.364400693095101
    Total CCSD energy   (file100)            = -113.144289504114624

    Number of ijk index combinations:               35
    Memory available in words        :     31250000000
    ~Words needed per explicit thread:          143748
    Number of threads for explicit ijk threading:   48

    (T) energy                                =   -0.017885120232443
      * CCSD(T) total energy                  = -113.162174624347060


    Psi4 stopped on: Tuesday, 26 January 2021 06:09PM
    Psi4 wall time for execution: 0:00:13.90

*** Psi4 exiting successfully. Buy a developer a beer!
