
    -----------------------------------------------------------------------
          Psi4: An Open-Source Ab Initio Electronic Structure Package
                               Psi4 1.4a3.dev88 

                         Git: Rev {master} 262e345 


    D. G. A. Smith, L. A. Burns, A. C. Simmonett, R. M. Parrish,
    M. C. Schieber, R. Galvelis, P. Kraus, H. Kruse, R. Di Remigio,
    A. Alenaizan, A. M. James, S. Lehtola, J. P. Misiewicz, M. Scheurer,
    R. A. Shaw, J. B. Schriber, Y. Xie, Z. L. Glick, D. A. Sirianni,
    J. S. O'Brien, J. M. Waldrop, A. Kumar, E. G. Hohenstein,
    B. P. Pritchard, B. R. Brooks, H. F. Schaefer III, A. Yu. Sokolov,
    K. Patkowski, A. E. DePrince III, U. Bozkaya, R. A. King,
    F. A. Evangelista, J. M. Turney, T. D. Crawford, C. D. Sherrill,
    J. Chem. Phys. 152(18) 184108 (2020). https://doi.org/10.1063/5.0006002

                            Additional Code Authors
    E. T. Seidl, C. L. Janssen, E. F. Valeev, M. L. Leininger,
    J. F. Gonthier, R. M. Richard, H. R. McAlexander, M. Saitow, X. Wang,
    P. Verma, and M. H. Lechner

             Previous Authors, Complete List of Code Contributors,
                       and Citations for Specific Modules
    https://github.com/psi4/psi4/blob/master/codemeta.json
    https://github.com/psi4/psi4/graphs/contributors
    http://psicode.org/psi4manual/master/introduction.html#citing-psifour

    -----------------------------------------------------------------------


    Psi4 started on: Thursday, 21 January 2021 10:58AM

    Process ID: 405760
    Host:       n412-045.vsc4.prov
    PSIDATADIR: /home/fs71337/gallo4/psi4/psi4/build/stage/share/psi4
    Memory:     500.0 MiB
    Threads:    48
    
  ==> Input File <==

--------------------------------------------------------------------------
# Any line starting with the # character is a comment line
memory 250000 mb
molecule molecule{
0 1
O          0.0000000000        0.0000000000       -0.4883910965
C          0.0000000000        0.0000000000        0.6505673556
}

set {
  reference rhf
  basis aug-cc-pV(5+d)Z
  scf_type OUT_OF_CORE
  freeze_core true
}

energy('ccsd(t)')
--------------------------------------------------------------------------

  Memory set to 232.831 GiB by Python driver.

Scratch directory: /binfl/lv71337/airmler/temp/

*** tstart() called on n412-045.vsc4.prov
*** at Thu Jan 21 10:58:39 2021

   => Loading Basis Set <=

    Name: AUG-CC-PV(5+D)Z
    Role: ORBITAL
    Keyword: BASIS
    atoms 1 entry O          line   568 file /home/fs71337/gallo4/psi4/psi4/build/stage/share/psi4/basis/aug-cc-pv_5pd_z.gbs 
    atoms 2 entry C          line   414 file /home/fs71337/gallo4/psi4/psi4/build/stage/share/psi4/basis/aug-cc-pv_5pd_z.gbs 


         ---------------------------------------------------------
                                   SCF
               by Justin Turney, Rob Parrish, Andy Simmonett
                          and Daniel G. A. Smith
                              RHF Reference
                       48 Threads, 238418 MiB Core
         ---------------------------------------------------------

  ==> Geometry <==

    Molecular point group: c2v
    Full point group: C_inf_v

    Geometry (in Angstrom), charge = 0, multiplicity = 1:

       Center              X                  Y                   Z               Mass       
    ------------   -----------------  -----------------  -----------------  -----------------
         O            0.000000000000     0.000000000000    -0.488213720632    15.994914619570
         C            0.000000000000     0.000000000000     0.650744731468    12.000000000000

  Running in c2v symmetry.

  Rotational constants: A = ************  B =      1.89538  C =      1.89538 [cm^-1]
  Rotational constants: A = ************  B =  56822.11710  C =  56822.11710 [MHz]
  Nuclear repulsion =   22.301521241031057

  Charge       = 0
  Multiplicity = 1
  Electrons    = 14
  Nalpha       = 7
  Nbeta        = 7

  ==> Algorithm <==

  SCF Algorithm Type is OUT_OF_CORE.
  DIIS enabled.
  MOM disabled.
  Fractional occupation disabled.
  Guess Type is SAD.
  Energy threshold   = 1.00e-08
  Density threshold  = 1.00e-08
  Integral threshold = 1.00e-12

  ==> Primary Basis <==

  Basis Set: AUG-CC-PV(5+D)Z
    Blend: AUG-CC-PV(5+D)Z
    Number of shells: 54
    Number of basis function: 254
    Number of Cartesian functions: 364
    Spherical Harmonics?: true
    Max angular momentum: 5

  ==> Integral Setup <==

  ==> DiskJK: Disk-Based J/K Matrices <==

    J tasked:                  Yes
    K tasked:                  Yes
    wK tasked:                  No
    Memory [MiB]:           178813
    Schwarz Cutoff:          1E-12

  Minimum eigenvalue in the overlap matrix is 1.2366995041E-05.
  Reciprocal condition number of the overlap matrix is 1.8958288033E-06.
    Using symmetric orthogonalization.

  ==> Pre-Iterations <==

  SCF Guess: Superposition of Atomic Densities via on-the-fly atomic UHF (no occupation information).


 WARNING: Atomic UHF is not converging! Try casting from a smaller basis or call Rob at CCMST.

 WARNING: Atomic UHF is not converging! Try casting from a smaller basis or call Rob at CCMST.
   -------------------------
    Irrep   Nso     Nmo    
   -------------------------
     A1        92      92 
     A2        38      38 
     B1        62      62 
     B2        62      62 
   -------------------------
    Total     254     254
   -------------------------

  ==> Iterations <==

                        Total Energy        Delta E     RMS |[F,P]|

   @RHF iter SAD:    36.56795420827248    3.65680e+01   0.00000e+00 
   @RHF iter   1:  -106.18712142313711   -1.42755e+02   3.91119e-02 DIIS
   @RHF iter   2:  -102.74401668471100    3.44310e+00   2.32889e-02 DIIS
   @RHF iter   3:  -110.34439481800695   -7.60038e+00   1.94649e-02 DIIS
   @RHF iter   4:  -112.41283846983501   -2.06844e+00   7.15474e-03 DIIS
   @RHF iter   5:  -112.75604380296132   -3.43205e-01   1.98947e-03 DIIS
   @RHF iter   6:  -112.78846949700724   -3.24257e-02   1.99752e-04 DIIS
   @RHF iter   7:  -112.78892084865501   -4.51352e-04   8.53421e-05 DIIS
   @RHF iter   8:  -112.78899505794152   -7.42093e-05   2.61490e-05 DIIS
   @RHF iter   9:  -112.78900091131291   -5.85337e-06   2.28090e-06 DIIS
   @RHF iter  10:  -112.78900097818445   -6.68715e-08   3.32601e-07 DIIS
   @RHF iter  11:  -112.78900097947913   -1.29468e-09   4.87043e-08 DIIS
   @RHF iter  12:  -112.78900097952247   -4.33431e-11   9.35163e-09 DIIS
  Energy and wave function converged.


  ==> Post-Iterations <==

    Orbital Energies [Eh]
    ---------------------

    Doubly Occupied:                                                      

       1A1   -20.664956     2A1   -11.364949     3A1    -1.514099  
       4A1    -0.803600     1B2    -0.635706     1B1    -0.635706  
       5A1    -0.556136  

    Virtual:                                                              

       6A1     0.050272     2B2     0.053313     2B1     0.053313  
       7A1     0.060885     3B1     0.122147     3B2     0.122147  
       8A1     0.129291     4B2     0.140763     4B1     0.140763  
       9A1     0.196895     1A2     0.203939    10A1     0.203939  
      11A1     0.254444     5B2     0.269129     5B1     0.269129  
      12A1     0.279162     6B1     0.300572     6B2     0.300572  
      13A1     0.443176    14A1     0.462687     2A2     0.462687  
       7B2     0.508956     7B1     0.508956    15A1     0.520779  
       8B2     0.550582     8B1     0.550582    16A1     0.604917  
       3A2     0.604917     9B2     0.610083     9B1     0.610083  
      17A1     0.629779    10B2     0.644956    10B1     0.644956  
      18A1     0.649908    19A1     0.686190    20A1     0.705706  
       4A2     0.705706    11B2     0.844165    11B1     0.844165  
      21A1     1.043472    12B2     1.069817    12B1     1.069817  
      22A1     1.139729    23A1     1.175048     5A2     1.175048  
      13B2     1.183817    13B1     1.183817    24A1     1.206454  
      14B2     1.238452    14B1     1.238452    25A1     1.267520  
      26A1     1.369300     6A2     1.369300    15B2     1.459945  
      15B1     1.459945    27A1     1.472662     7A2     1.554371  
      28A1     1.554371    16B2     1.621334    16B1     1.621334  
      29A1     1.656641     8A2     1.656641    17B2     1.707494  
      17B1     1.707494    30A1     1.712627    31A1     1.744548  
       9A2     1.744548    18B2     1.763300    18B1     1.763300  
      19B2     1.799937    19B1     1.799937    32A1     1.980416  
      33A1     2.256214    10A2     2.256214    20B2     2.267309  
      20B1     2.267309    34A1     2.275122    35A1     2.340538  
      21B2     2.533313    21B1     2.533313    36A1     2.686279  
      37A1     2.712003    11A2     2.712003    22B2     2.813767  
      22B1     2.813767    23B2     2.876235    23B1     2.876235  
      38A1     3.015652    39A1     3.038927    12A2     3.038927  
      24B2     3.159312    24B1     3.159312    13A2     3.163627  
      40A1     3.163627    25B2     3.220136    25B1     3.220136  
      41A1     3.318744    42A1     3.435283    26B2     3.467969  
      26B1     3.467969    43A1     3.587603    14A2     3.587603  
      27B2     3.635506    27B1     3.635506    44A1     3.741936  
      15A2     3.741936    28B2     3.897534    28B1     3.897534  
      45A1     3.953740    29B1     4.012535    29B2     4.012535  
      46A1     4.031520    16A2     4.031520    17A2     4.052126  
      47A1     4.052126    30B1     4.073325    30B2     4.073325  
      31B2     4.209036    31B1     4.209036    48A1     4.264547  
      49A1     4.485472    18A2     4.485472    50A1     4.561433  
      32B2     4.655647    32B1     4.655647    33B2     4.656164  
      33B1     4.656164    51A1     4.714452    19A2     4.714452  
      52A1     4.973870    34B1     5.034200    34B2     5.034200  
      53A1     5.326187    35B2     5.759945    35B1     5.759945  
      54A1     5.808070    20A2     5.808070    55A1     5.926419  
      36B2     6.216217    36B1     6.216217    56A1     6.500705  
      37B1     6.583308    37B2     6.583308    57A1     6.725243  
      21A2     6.725243    58A1     7.093613    22A2     7.093613  
      38B1     7.187347    38B2     7.187347    59A1     7.234889  
      23A2     7.234889    39B1     7.316142    39B2     7.316142  
      40B2     7.346072    40B1     7.346072    60A1     7.378394  
      41B1     7.576380    41B2     7.576380    61A1     7.637144  
      24A2     7.637144    62A1     7.724116    42B2     7.995115  
      42B1     7.995115    63A1     8.011432    25A2     8.011432  
      64A1     8.120469    43B2     8.751617    43B1     8.751617  
      44B2     8.896815    44B1     8.896815    65A1     8.987524  
      66A1     9.078253    26A2     9.078253    45B2     9.192249  
      45B1     9.192249    67A1     9.415140    27A2     9.415140  
      46B2     9.475130    46B1     9.475130    68A1     9.687561  
      47B1     9.764358    47B2     9.764358    69A1     9.896820  
      28A2     9.896820    70A1     9.977973    48B1    10.167488  
      48B2    10.167488    71A1    10.324976    29A2    10.324976  
      49B1    10.577220    49B2    10.577220    50B1    10.586899  
      50B2    10.586899    72A1    10.880824    30A2    10.880824  
      73A1    11.100778    74A1    11.549586    51B2    11.733472  
      51B1    11.733472    75A1    11.780056    31A2    11.780056  
      76A1    12.560590    52B2    12.656788    52B1    12.656788  
      77A1    12.917626    32A2    12.917626    78A1    13.688878  
      53B2    14.484753    53B1    14.484753    79A1    15.991191  
      54B1    16.198964    54B2    16.198964    80A1    16.433562  
      33A2    16.433562    55B1    16.707908    55B2    16.707908  
      56B1    16.879718    56B2    16.879718    81A1    17.077672  
      34A2    17.077672    82A1    17.301118    57B1    17.589374  
      57B2    17.589374    83A1    18.347443    84A1    19.068287  
      35A2    19.068287    58B1    19.291813    58B2    19.291813  
      59B1    19.341224    59B2    19.341224    85A1    19.623315  
      36A2    19.623315    60B1    19.838551    60B2    19.838551  
      86A1    19.932878    87A1    20.039335    37A2    20.039335  
      61B1    21.948150    61B2    21.948150    88A1    22.787833  
      38A2    22.787833    89A1    23.093411    62B1    23.823084  
      62B2    23.823084    90A1    24.512193    91A1    39.581630  
      92A1    65.411192  

    Final Occupation by Irrep:
             A1    A2    B1    B2 
    DOCC [     5,    0,    1,    1 ]

  @RHF Final Energy:  -112.78900097952247

   => Energetics <=

    Nuclear Repulsion Energy =             22.3015212410310575
    One-Electron Energy =                -197.8307378401085828
    Two-Electron Energy =                  62.7402156195550589
    Total Energy =                       -112.7890009795224699

Computation Completed


Properties will be evaluated at   0.000000,   0.000000,   0.000000 [a0]

Properties computed using the SCF density matrix

  Nuclear Dipole Moment: [e a0]
     X:     0.0000      Y:     0.0000      Z:    -0.0023

  Electronic Dipole Moment: [e a0]
     X:     0.0000      Y:     0.0000      Z:     0.1275

  Dipole Moment: [e a0]
     X:     0.0000      Y:     0.0000      Z:     0.1252     Total:     0.1252

  Dipole Moment: [D]
     X:     0.0000      Y:     0.0000      Z:     0.3182     Total:     0.3182


*** tstop() called on n412-045.vsc4.prov at Thu Jan 21 11:01:15 2021
Module time:
	user time   =     203.40 seconds =       3.39 minutes
	system time =      13.20 seconds =       0.22 minutes
	total time  =        156 seconds =       2.60 minutes
Total time:
	user time   =     203.40 seconds =       3.39 minutes
	system time =      13.20 seconds =       0.22 minutes
	total time  =        156 seconds =       2.60 minutes

*** tstart() called on n412-045.vsc4.prov
*** at Thu Jan 21 11:01:15 2021


	Wfn Parameters:
	--------------------
	Wavefunction         = CCSD_T
	Number of irreps     = 4
	Number of MOs        = 254
	Number of active MOs = 252
	AO-Basis             = NONE
	Semicanonical        = false
	Reference            = RHF
	Print Level          = 1

	IRREP	# MOs	# FZDC	# DOCC	# SOCC	# VIRT	# FZVR
	-----	-----	------	------	------	------	------
	 A1	   92	    2	    3	    0	    87	    0
	 A2	   38	    0	    0	    0	    38	    0
	 B1	   62	    0	    1	    0	    61	    0
	 B2	   62	    0	    1	    0	    61	    0
	Transforming integrals...
	IWL integrals will be deleted.
	(OO|OO)...
	Presorting SO-basis two-electron integrals.
	Sorting File: SO Ints (nn|nn) nbuckets = 1
	Constructing frozen core operators
	Starting first half-transformation.
	Sorting half-transformed integrals.
	First half integral transformation complete.
	Starting second half-transformation.
	Two-electron integral transformation complete.
	(OO|OV)...
	Starting second half-transformation.
	Two-electron integral transformation complete.
	(OO|VV)...
	Starting second half-transformation.
	Two-electron integral transformation complete.
	(OV|OO)...
	Starting first half-transformation.
	Sorting half-transformed integrals.
	First half integral transformation complete.
	Starting second half-transformation.
	Two-electron integral transformation complete.
	(OV|OV)...
	Starting second half-transformation.
	Two-electron integral transformation complete.
	(OV|VV)...
	Starting second half-transformation.
	Two-electron integral transformation complete.
	(VV|OO)...
	Starting first half-transformation.
	Sorting half-transformed integrals.
	First half integral transformation complete.
	Starting second half-transformation.
	Two-electron integral transformation complete.
	(VV|OV)...
	Starting second half-transformation.
	Two-electron integral transformation complete.
	(VV|VV)...
	Starting second half-transformation.
	Two-electron integral transformation complete.
	Frozen core energy     =   -102.61972967907441

	Size of irrep 0 of <ab|cd> integrals:    270.767 (MW) /   2166.136 (MB)
	Size of irrep 1 of <ab|cd> integrals:    197.515 (MW) /   1580.119 (MB)
	Size of irrep 2 of <ab|cd> integrals:    232.562 (MW) /   1860.500 (MB)
	Size of irrep 3 of <ab|cd> integrals:    232.562 (MW) /   1860.500 (MB)
	Total:                                   933.407 (MW) /   7467.256 (MB)

	Size of irrep 0 of <ia|bc> integrals:      6.302 (MW) /     50.418 (MB)
	Size of irrep 1 of <ia|bc> integrals:      3.317 (MW) /     26.534 (MB)
	Size of irrep 2 of <ia|bc> integrals:      4.697 (MW) /     37.576 (MB)
	Size of irrep 3 of <ia|bc> integrals:      4.697 (MW) /     37.576 (MB)
	Total:                                    19.013 (MW) /    152.104 (MB)

	Size of irrep 0 of tijab amplitudes:       0.181 (MW) /      1.448 (MB)
	Size of irrep 1 of tijab amplitudes:       0.028 (MW) /      0.225 (MB)
	Size of irrep 2 of tijab amplitudes:       0.091 (MW) /      0.732 (MB)
	Size of irrep 3 of tijab amplitudes:       0.091 (MW) /      0.732 (MB)
	Total:                                     0.392 (MW) /      3.137 (MB)

	Nuclear Rep. energy          =     22.30152124103106
	SCF energy                   =   -112.78900097952247
	One-electron energy          =    -56.65109073773181
	Two-electron energy          =     24.18029819625058
	Reference energy             =   -112.78900097952459

*** tstop() called on n412-045.vsc4.prov at Thu Jan 21 11:03:55 2021
Module time:
	user time   =      49.62 seconds =       0.83 minutes
	system time =      36.31 seconds =       0.61 minutes
	total time  =        160 seconds =       2.67 minutes
Total time:
	user time   =     253.02 seconds =       4.22 minutes
	system time =      49.51 seconds =       0.83 minutes
	total time  =        316 seconds =       5.27 minutes
            **************************
            *                        *
            *        CCENERGY        *
            *                        *
            **************************

    Nuclear Rep. energy (wfn)     =   22.301521241031057
    SCF energy          (wfn)     = -112.789000979522470
    Reference energy    (file100) = -112.789000979524587

    Input parameters:
    -----------------
    Wave function   =     CCSD_T
    Reference wfn   =     RHF
    Brueckner       =     No
    Memory (Mbytes) =     250000.0
    Maxiter         =     50
    R_Convergence   =     1.0e-07
    E_Convergence   =     1.0e-06
    Restart         =     Yes
    DIIS            =     Yes
    AO Basis        =     NONE
    ABCD            =     NEW
    Cache Level     =     2
    Cache Type      =     LOW
    Print Level     =     1
    Num. of threads =     48
    # Amps to Print =     10
    Print MP2 Amps? =     No
    Analyze T2 Amps =     No
    Print Pair Ener =     No
    Local CC        =     No
    SCS-MP2         =     False
    SCSN-MP2        =     False
    SCS-CCSD        =     False

MP2 correlation energy -0.3949081884212237
                Solving CC Amplitude Equations
                ------------------------------
  Iter             Energy              RMS        T1Diag      D1Diag    New D1Diag    D2Diag
  ----     ---------------------    ---------   ----------  ----------  ----------   --------
     0        -0.394908188421224    0.000e+00    0.000000    0.000000    0.000000    0.149133
     1        -0.374761440390847    6.999e-02    0.016398    0.034759    0.034759    0.145805
     2        -0.387445473505215    2.936e-02    0.014567    0.030360    0.030360    0.153730
     3        -0.390957176998272    1.125e-02    0.017724    0.037109    0.037109    0.160899
     4        -0.390501616469242    2.340e-03    0.018036    0.037629    0.037629    0.161457
     5        -0.390579281852946    9.028e-04    0.018254    0.038082    0.038082    0.161443
     6        -0.390588878847387    1.889e-04    0.018297    0.038171    0.038171    0.161362
     7        -0.390587408243390    5.752e-05    0.018307    0.038193    0.038193    0.161328
     8        -0.390588005490700    1.440e-05    0.018310    0.038201    0.038201    0.161323
     9        -0.390587985487791    4.083e-06    0.018311    0.038202    0.038202    0.161322
    10        -0.390587715175708    1.349e-06    0.018311    0.038203    0.038203    0.161322
    11        -0.390587787563653    4.178e-07    0.018311    0.038202    0.038202    0.161322
    12        -0.390587751942790    1.701e-07    0.018311    0.038203    0.038203    0.161322
    13        -0.390587750765814    4.259e-08    0.018311    0.038203    0.038203    0.161322

    Iterations converged.


    Largest TIA Amplitudes:
              4 187        -0.0217072072
              3 126        -0.0217071825
              4 190        -0.0181044651
              3 129        -0.0181044480
              4 188        -0.0176547062
              3 127        -0.0176546766
              3 132         0.0088718585
              4 193         0.0088718515
              2  13         0.0085507294
              3 136         0.0084992611

    Largest TIjAb Amplitudes:
      3   3 127 127        -0.0317691494
      4   4 188 188        -0.0317691258
      3   3 126 127        -0.0246917135
      3   3 127 126        -0.0246917135
      4   4 187 188        -0.0246916968
      4   4 188 187        -0.0246916968
      2   2 187 187        -0.0239204208
      2   2 126 126        -0.0239204107
      2   2 187 188        -0.0234486119
      2   2 188 187        -0.0234486119

    SCF energy       (wfn)                    = -112.789000979522470
    Reference energy (file100)                = -112.789000979524587

    Opposite-spin MP2 correlation energy      =   -0.299487444968831
    Same-spin MP2 correlation energy          =   -0.095420743452392
    Singles MP2 correlation energy            =   -0.000000000000000
    MP2 correlation energy                    =   -0.394908188421224
      * MP2 total energy                      = -113.183909167945814

    Opposite-spin CCSD correlation energy     =   -0.308935290345886
    Same-spin CCSD correlation energy         =   -0.081652460419972
    Singles CCSD correlation energy           =    0.000000000000000
    CCSD correlation energy                   =   -0.390587750765814
      * CCSD total energy                     = -113.179588730290405

            **************************
            *                        *
            *        CCTRIPLES       *
            *                        *
            **************************


    Wave function   =    CCSD_T
    Reference wfn   =      RHF

    Nuclear Rep. energy (wfn)                =   22.301521241031057
    SCF energy          (wfn)                = -112.789000979522470
    Reference energy    (file100)            = -112.789000979524587
    CCSD energy         (file100)            =   -0.390587750765814
    Total CCSD energy   (file100)            = -113.179588730290405

    Number of ijk index combinations:               35
    Memory available in words        :     31250000000
    ~Words needed per explicit thread:         2634012
    Number of threads for explicit ijk threading:   48

    (T) energy                                =   -0.019548818874630
      * CCSD(T) total energy                  = -113.199137549165030


    Psi4 stopped on: Thursday, 21 January 2021 11:05AM
    Psi4 wall time for execution: 0:07:01.43

*** Psi4 exiting successfully. Buy a developer a beer!
