
    -----------------------------------------------------------------------
          Psi4: An Open-Source Ab Initio Electronic Structure Package
                               Psi4 1.2a1.dev939 

                         Git: Rev {HEAD} fa1ec19 


    R. M. Parrish, L. A. Burns, D. G. A. Smith, A. C. Simmonett,
    A. E. DePrince III, E. G. Hohenstein, U. Bozkaya, A. Yu. Sokolov,
    R. Di Remigio, R. M. Richard, J. F. Gonthier, A. M. James,
    H. R. McAlexander, A. Kumar, M. Saitow, X. Wang, B. P. Pritchard,
    P. Verma, H. F. Schaefer III, K. Patkowski, R. A. King, E. F. Valeev,
    F. A. Evangelista, J. M. Turney, T. D. Crawford, and C. D. Sherrill,
    J. Chem. Theory Comput. 13(7) pp 3185--3197 (2017).
    (doi: 10.1021/acs.jctc.7b00174)

    -----------------------------------------------------------------------


    Psi4 started on: Friday, 26 April 2019 03:38PM

    Process ID:   8231
    PSIDATADIR: /home/grueneis/src/psi4/objdir/stage/usr/local/psi4/share/psi4
    Memory:     500.0 MiB
    Threads:    1
    
  ==> Input File <==

--------------------------------------------------------------------------
# Any line starting with the # character is a comment line

memory 32000 mb

molecule molecule {
0 1
N         -0.0000000000        0.0000000000        0.0674754640
H          0.9380664748        0.0000000000       -0.3125545110
H         -0.4690332374        0.8123893976       -0.3125545110
H         -0.4690332374       -0.8123893976       -0.3125545110
}

set {
  reference rhf
  basis aug-cc-pv(D+d)z
  scf_type OUT_OF_CORE
  freeze_core true
}

energy('ccsd')
--------------------------------------------------------------------------

  Memory set to  29.802 GiB by Python driver.

*** tstart() called on cqc01
*** at Fri Apr 26 15:38:00 2019

   => Loading Basis Set <=

    Name: AUG-CC-PV(D+D)Z
    Role: ORBITAL
    Keyword: BASIS
    atoms 1   entry N          line   234 file /home/grueneis/src/psi4/objdir/stage/usr/local/psi4/share/psi4/basis/aug-cc-pv_dpd_z.gbs 
    atoms 2-4 entry H          line    56 file /home/grueneis/src/psi4/objdir/stage/usr/local/psi4/share/psi4/basis/aug-cc-pv_dpd_z.gbs 


         ---------------------------------------------------------
                                   SCF
            by Justin Turney, Rob Parrish, Andy Simmonett
                             and Daniel Smith
                              RHF Reference
                        1 Threads,  30517 MiB Core
         ---------------------------------------------------------

  ==> Geometry <==

    Molecular point group: cs
    Full point group: C3v

    Geometry (in Angstrom), charge = 0, multiplicity = 1:

       Center              X                  Y                   Z               Mass       
    ------------   -----------------  -----------------  -----------------  -----------------
           N         -0.000000000000    -0.067483502289     0.000000000000    14.003074004780
           H         -0.469033237393     0.312546472711     0.812389397611     1.007825032070
           H         -0.469033237393     0.312546472711    -0.812389397611     1.007825032070
           H          0.938066474787     0.312546472711     0.000000000000     1.007825032070

  Running in cs symmetry.

  Rotational constants: A =      9.97846  B =      9.97846  C =      6.33611 [cm^-1]
  Rotational constants: A = 299146.83757  B = 299146.83757  C = 189951.86851 [MHz]
  Nuclear repulsion =   11.956698945857237

  Charge       = 0
  Multiplicity = 1
  Electrons    = 10
  Nalpha       = 5
  Nbeta        = 5

  ==> Algorithm <==

  SCF Algorithm Type is OUT_OF_CORE.
  DIIS enabled.
  MOM disabled.
  Fractional occupation disabled.
  Guess Type is SAD.
  Energy threshold   = 1.00e-08
  Density threshold  = 1.00e-08
  Integral threshold = 0.00e+00

  ==> Primary Basis <==

  Basis Set: AUG-CC-PV(D+D)Z
    Blend: AUG-CC-PV(D+D)Z
    Number of shells: 24
    Number of basis function: 50
    Number of Cartesian functions: 52
    Spherical Harmonics?: true
    Max angular momentum: 2

  ==> Pre-Iterations <==

   -------------------------------------------------------
    Irrep   Nso     Nmo     Nalpha   Nbeta   Ndocc  Nsocc
   -------------------------------------------------------
     A'        32      32       0       0       0       0
     A"        18      18       0       0       0       0
   -------------------------------------------------------
    Total      50      50       5       5       5       0
   -------------------------------------------------------

  ==> Integral Setup <==

  ==> DiskJK: Disk-Based J/K Matrices <==

    J tasked:                  Yes
    K tasked:                  Yes
    wK tasked:                  No
    Memory (MB):             22888
    Schwarz Cutoff:          1E-12

  Minimum eigenvalue in the overlap matrix is 2.1460256536E-03.
  Using Symmetric Orthogonalization.

  SCF Guess: Superposition of Atomic Densities via on-the-fly atomic UHF.

  ==> Iterations <==

                        Total Energy        Delta E     RMS |[F,P]|

   @RHF iter   0:   -56.19560179201273   -5.61956e+01   5.17493e-02 
   @RHF iter   1:   -56.18314717919360    1.24546e-02   5.76698e-03 
   @RHF iter   2:   -56.20123460058078   -1.80874e-02   2.61479e-03 DIIS
   @RHF iter   3:   -56.20516815982916   -3.93356e-03   4.82275e-04 DIIS
   @RHF iter   4:   -56.20538951835945   -2.21359e-04   9.03182e-05 DIIS
   @RHF iter   5:   -56.20540222580887   -1.27074e-05   1.90092e-05 DIIS
   @RHF iter   6:   -56.20540311736457   -8.91556e-07   4.29425e-06 DIIS
   @RHF iter   7:   -56.20540317482974   -5.74652e-08   8.39477e-07 DIIS
   @RHF iter   8:   -56.20540317669362   -1.86388e-09   8.54515e-08 DIIS
   @RHF iter   9:   -56.20540317670459   -1.09708e-11   1.09115e-08 DIIS
   @RHF iter  10:   -56.20540317670489   -2.98428e-13   1.38446e-09 DIIS

  ==> Post-Iterations <==

    Orbital Energies (a.u.)
    -----------------------

    Doubly Occupied:                                                      

       1Ap   -15.551575     2Ap    -1.144118     1App   -0.628872  
       3Ap    -0.628872     4Ap    -0.428710  

    Virtual:                                                              

       5Ap     0.035862     2App    0.059839     6Ap     0.059839  
       7Ap     0.150149     8Ap     0.197346     3App    0.201764  
       9Ap     0.201764     4App    0.293990    10Ap     0.293990  
      11Ap     0.339428     5App    0.343719    12Ap     0.343719  
      13Ap     0.473296     6App    0.527182     7App    0.533828  
      14Ap     0.533828    15Ap     0.616151     8App    0.639226  
      16Ap     0.639226     9App    0.711821    17Ap     0.711821  
      18Ap     0.837901    10App    0.917824    19Ap     0.917824  
      20Ap     1.139588    11App    1.218411    21Ap     1.218411  
      22Ap     1.362677    23Ap     1.814014    12App    1.814014  
      13App    1.944866    14App    2.065167    24Ap     2.065167  
      25Ap     2.094438    26Ap     2.334159    15App    2.334159  
      27Ap     2.374369    16App    2.413891    28Ap     2.413891  
      29Ap     2.653376    30Ap     2.908726    17App    2.908726  
      31Ap     3.122766    18App    3.529270    32Ap     3.529270  

    Final Occupation by Irrep:
             Ap   App 
    DOCC [     4,    1 ]

  Energy converged.

  @RHF Final Energy:   -56.20540317670489

   => Energetics <=

    Nuclear Repulsion Energy =             11.9566989458572372
    One-Electron Energy =                 -99.5599111621895503
    Two-Electron Energy =                  31.3978090396274183
    Total Energy =                        -56.2054031767048912



Properties will be evaluated at   0.000000,   0.000000,   0.000000 Bohr

Properties computed using the SCF density matrix

  Nuclear Dipole Moment: (a.u.)
     X:    -0.0000      Y:     0.8792      Z:     0.0000

  Electronic Dipole Moment: (a.u.)
     X:     0.0000      Y:    -0.2417      Z:     0.0000

  Dipole Moment: (a.u.)
     X:     0.0000      Y:     0.6375      Z:     0.0000     Total:     0.6375

  Dipole Moment: (Debye)
     X:     0.0000      Y:     1.6203      Z:     0.0000     Total:     1.6203


*** tstop() called on cqc01 at Fri Apr 26 15:38:01 2019
Module time:
	user time   =       0.60 seconds =       0.01 minutes
	system time =       0.54 seconds =       0.01 minutes
	total time  =          1 seconds =       0.02 minutes
Total time:
	user time   =       0.60 seconds =       0.01 minutes
	system time =       0.54 seconds =       0.01 minutes
	total time  =          1 seconds =       0.02 minutes

*** tstart() called on cqc01
*** at Fri Apr 26 15:38:01 2019


	Wfn Parameters:
	--------------------
	Wavefunction         = CCSD
	Number of irreps     = 2
	Number of MOs        = 50
	Number of active MOs = 49
	AO-Basis             = NONE
	Semicanonical        = false
	Reference            = RHF
	Print Level          = 1

	IRREP	# MOs	# FZDC	# DOCC	# SOCC	# VIRT	# FZVR
	-----	-----	------	------	------	------	------
	 Ap	   32	    1	    3	    0	    28	    0
	 App	   18	    0	    1	    0	    17	    0
	Transforming integrals...
	IWL integrals will be deleted.
	(OO|OO)...
	Presorting SO-basis two-electron integrals.
	Sorting File: SO Ints (nn|nn) nbuckets = 1
	Transforming the one-electron integrals and constructing Fock matrices
	Starting first half-transformation.
	Sorting half-transformed integrals.
	First half integral transformation complete.
	Starting second half-transformation.
	Two-electron integral transformation complete.
	(OO|OV)...
	Starting second half-transformation.
	Two-electron integral transformation complete.
	(OO|VV)...
	Starting second half-transformation.
	Two-electron integral transformation complete.
	(OV|OO)...
	Starting first half-transformation.
	Sorting half-transformed integrals.
	First half integral transformation complete.
	Starting second half-transformation.
	Two-electron integral transformation complete.
	(OV|OV)...
	Starting second half-transformation.
	Two-electron integral transformation complete.
	(OV|VV)...
	Starting second half-transformation.
	Two-electron integral transformation complete.
	(VV|OO)...
	Starting first half-transformation.
	Sorting half-transformed integrals.
	First half integral transformation complete.
	Starting second half-transformation.
	Two-electron integral transformation complete.
	(VV|OV)...
	Starting second half-transformation.
	Two-electron integral transformation complete.
	(VV|VV)...
	Starting second half-transformation.
	Two-electron integral transformation complete.
	Frozen core energy     =    -47.86909111910951

	Size of irrep 0 of <ab|cd> integrals:      1.151 (MW) /      9.211 (MB)
	Size of irrep 1 of <ab|cd> integrals:      0.906 (MW) /      7.250 (MB)
	Total:                                     2.058 (MW) /     16.461 (MB)

	Size of irrep 0 of <ia|bc> integrals:      0.108 (MW) /      0.867 (MB)
	Size of irrep 1 of <ia|bc> integrals:      0.075 (MW) /      0.602 (MB)
	Total:                                     0.184 (MW) /      1.469 (MB)

	Size of irrep 0 of tijab amplitudes:       0.011 (MW) /      0.086 (MB)
	Size of irrep 1 of tijab amplitudes:       0.006 (MW) /      0.046 (MB)
	Total:                                     0.016 (MW) /      0.132 (MB)

	Nuclear Rep. energy          =     11.95669894585724
	SCF energy                   =    -56.20540317670489
	One-electron energy          =    -34.92487866783243
	Two-electron energy          =     14.63186766437991
	Reference energy             =    -56.20540317670479

*** tstop() called on cqc01 at Fri Apr 26 15:38:03 2019
Module time:
	user time   =       0.21 seconds =       0.00 minutes
	system time =       0.20 seconds =       0.00 minutes
	total time  =          2 seconds =       0.03 minutes
Total time:
	user time   =       0.81 seconds =       0.01 minutes
	system time =       0.74 seconds =       0.01 minutes
	total time  =          3 seconds =       0.05 minutes

*** tstart() called on cqc01
*** at Fri Apr 26 15:38:03 2019

            **************************
            *                        *
            *        CCENERGY        *
            *                        *
            **************************

    Nuclear Rep. energy (wfn)     =   11.956698945857237
    SCF energy          (wfn)     =  -56.205403176704891
    Reference energy    (file100) =  -56.205403176704792

    Input parameters:
    -----------------
    Wave function   =     CCSD
    Reference wfn   =     RHF
    Brueckner       =     No
    Memory (Mbytes) =     32000.0
    Maxiter         =     50
    R_Convergence   =     1.0e-07
    E_Convergence   =     1.0e-06
    Restart         =     Yes
    DIIS            =     Yes
    AO Basis        =     NONE
    ABCD            =     NEW
    Cache Level     =     2
    Cache Type      =     LOW
    Print Level     =     1
    Num. of threads =     1
    # Amps to Print =     10
    Print MP2 Amps? =     No
    Analyze T2 Amps =     No
    Print Pair Ener =     No
    Local CC        =     No
    SCS-MP2         =     False
    SCSN-MP2        =     False
    SCS-CCSD        =     False

MP2 correlation energy -0.1993378533883582
                Solving CC Amplitude Equations
                ------------------------------
  Iter             Energy              RMS        T1Diag      D1Diag    New D1Diag    D2Diag
  ----     ---------------------    ---------   ----------  ----------  ----------   --------
     0        -0.199337853388358    0.000e+00    0.000000    0.000000    0.000000    0.118484
     1        -0.230376835678986    1.809e-01    0.014676    0.033612    0.033612    0.142721
     2        -0.216369340346684    2.509e-02    0.010009    0.023266    0.023266    0.135314
     3        -0.214657702682757    5.463e-03    0.010037    0.024036    0.024036    0.133411
     4        -0.214448186369064    1.552e-03    0.009754    0.023347    0.023347    0.133143
     5        -0.214365211085826    3.802e-04    0.009697    0.023225    0.023225    0.133011
     6        -0.214358278685218    9.434e-05    0.009686    0.023195    0.023195    0.132988
     7        -0.214360009923914    3.390e-05    0.009683    0.023184    0.023184    0.132985
     8        -0.214359656418659    1.346e-05    0.009682    0.023181    0.023181    0.132984
     9        -0.214359261701310    5.001e-06    0.009682    0.023180    0.023180    0.132984
    10        -0.214359337330885    1.923e-06    0.009682    0.023181    0.023181    0.132984
    11        -0.214359392913025    6.548e-07    0.009682    0.023181    0.023181    0.132984
    12        -0.214359391391659    1.912e-07    0.009682    0.023181    0.023181    0.132984
    13        -0.214359391404583    5.654e-08    0.009682    0.023181    0.023181    0.132984
    13        -0.214359391404583    5.654e-08    0.009682    0.023181    0.023181    0.132984

    Iterations converged.


    CCSD corr. energy   =   -0.214359391404583
    PPL corr. energy    =    0.047661304127732
    OS PPL corr. energy =    0.040434765803311
    SS PPL corr. energy =    0.007226538324421
    Largest TIA Amplitudes:
              2   2         0.0171580512
              2   8        -0.0122863305
              1  23         0.0069019002
              3  42         0.0069019002
              2   6         0.0053470582
              2   3        -0.0039236785
              2   0        -0.0037342675
              1  12         0.0035554951
              3  35         0.0035554951
              0   3         0.0035077118

    Largest TIjAb Amplitudes:
      2   2  17  17        -0.0371356607
      1   1   5   5        -0.0321147746
      3   3  30  30        -0.0321147746
      1   1  12  12        -0.0314592917
      3   3  35  35        -0.0314592917
      2   2   8   8        -0.0301477263
      2   2  13  13        -0.0263675841
      1   1   5  12        -0.0260584617
      1   1  12   5        -0.0260584617
      3   3  30  35        -0.0260584617

    SCF energy       (wfn)                    =  -56.205403176704891
    Reference energy (file100)                =  -56.205403176704792

    Opposite-spin MP2 correlation energy      =   -0.153220234637374
    Same-spin MP2 correlation energy          =   -0.046117618750984
    MP2 correlation energy                    =   -0.199337853388358
      * MP2 total energy                      =  -56.404741030093149

    Opposite-spin CCSD correlation energy     =   -0.172350359665445
    Same-spin CCSD correlation energy         =   -0.042009031684320
    CCSD correlation energy                   =   -0.214359391404583
      * CCSD total energy                     =  -56.419762568109377


*** tstop() called on cqc01 at Fri Apr 26 15:38:23 2019
Module time:
	user time   =       0.96 seconds =       0.02 minutes
	system time =       2.65 seconds =       0.04 minutes
	total time  =         20 seconds =       0.33 minutes
Total time:
	user time   =       1.77 seconds =       0.03 minutes
	system time =       3.39 seconds =       0.06 minutes
	total time  =         23 seconds =       0.38 minutes

*** Psi4 exiting successfully. Buy a developer a beer!
