
    -----------------------------------------------------------------------
          Psi4: An Open-Source Ab Initio Electronic Structure Package
                               Psi4 1.2a1.dev939 

                         Git: Rev {HEAD} fa1ec19 


    R. M. Parrish, L. A. Burns, D. G. A. Smith, A. C. Simmonett,
    A. E. DePrince III, E. G. Hohenstein, U. Bozkaya, A. Yu. Sokolov,
    R. Di Remigio, R. M. Richard, J. F. Gonthier, A. M. James,
    H. R. McAlexander, A. Kumar, M. Saitow, X. Wang, B. P. Pritchard,
    P. Verma, H. F. Schaefer III, K. Patkowski, R. A. King, E. F. Valeev,
    F. A. Evangelista, J. M. Turney, T. D. Crawford, and C. D. Sherrill,
    J. Chem. Theory Comput. 13(7) pp 3185--3197 (2017).
    (doi: 10.1021/acs.jctc.7b00174)

    -----------------------------------------------------------------------


    Psi4 started on: Sunday, 28 April 2019 03:11PM

    Process ID:    389
    PSIDATADIR: /home/grueneis/src/psi4/objdir/stage/usr/local/psi4/share/psi4
    Memory:     500.0 MiB
    Threads:    1
    
  ==> Input File <==

--------------------------------------------------------------------------
# Any line starting with the # character is a comment line

memory 32000 mb

molecule molecule {
0 1
N         -0.0000000000        0.0000000000        0.0674754640
H          0.9380664748        0.0000000000       -0.3125545110
H         -0.4690332374        0.8123893976       -0.3125545110
H         -0.4690332374       -0.8123893976       -0.3125545110
}

set {
  reference rhf
  basis aug-cc-pv(Q+d)z
  scf_type OUT_OF_CORE
  freeze_core true
}

energy('ccsd')
--------------------------------------------------------------------------

  Memory set to  29.802 GiB by Python driver.

*** tstart() called on cqc01
*** at Sun Apr 28 15:11:27 2019

   => Loading Basis Set <=

    Name: AUG-CC-PV(Q+D)Z
    Role: ORBITAL
    Keyword: BASIS
    atoms 1   entry N          line   379 file /home/grueneis/src/psi4/objdir/stage/usr/local/psi4/share/psi4/basis/aug-cc-pv_qpd_z.gbs 
    atoms 2-4 entry H          line    56 file /home/grueneis/src/psi4/objdir/stage/usr/local/psi4/share/psi4/basis/aug-cc-pv_qpd_z.gbs 


         ---------------------------------------------------------
                                   SCF
            by Justin Turney, Rob Parrish, Andy Simmonett
                             and Daniel Smith
                              RHF Reference
                        1 Threads,  30517 MiB Core
         ---------------------------------------------------------

  ==> Geometry <==

    Molecular point group: cs
    Full point group: C3v

    Geometry (in Angstrom), charge = 0, multiplicity = 1:

       Center              X                  Y                   Z               Mass       
    ------------   -----------------  -----------------  -----------------  -----------------
           N         -0.000000000000    -0.067483502289     0.000000000000    14.003074004780
           H         -0.469033237393     0.312546472711     0.812389397611     1.007825032070
           H         -0.469033237393     0.312546472711    -0.812389397611     1.007825032070
           H          0.938066474787     0.312546472711     0.000000000000     1.007825032070

  Running in cs symmetry.

  Rotational constants: A =      9.97846  B =      9.97846  C =      6.33611 [cm^-1]
  Rotational constants: A = 299146.83757  B = 299146.83757  C = 189951.86851 [MHz]
  Nuclear repulsion =   11.956698945857237

  Charge       = 0
  Multiplicity = 1
  Electrons    = 10
  Nalpha       = 5
  Nbeta        = 5

  ==> Algorithm <==

  SCF Algorithm Type is OUT_OF_CORE.
  DIIS enabled.
  MOM disabled.
  Fractional occupation disabled.
  Guess Type is SAD.
  Energy threshold   = 1.00e-08
  Density threshold  = 1.00e-08
  Integral threshold = 0.00e+00

  ==> Primary Basis <==

  Basis Set: AUG-CC-PV(Q+D)Z
    Blend: AUG-CC-PV(Q+D)Z
    Number of shells: 62
    Number of basis function: 218
    Number of Cartesian functions: 270
    Spherical Harmonics?: true
    Max angular momentum: 4

  ==> Pre-Iterations <==

   -------------------------------------------------------
    Irrep   Nso     Nmo     Nalpha   Nbeta   Ndocc  Nsocc
   -------------------------------------------------------
     A'       126     126       0       0       0       0
     A"        92      92       0       0       0       0
   -------------------------------------------------------
    Total     218     218       5       5       5       0
   -------------------------------------------------------

  ==> Integral Setup <==

  ==> DiskJK: Disk-Based J/K Matrices <==

    J tasked:                  Yes
    K tasked:                  Yes
    wK tasked:                  No
    Memory (MB):             22888
    Schwarz Cutoff:          1E-12

  Minimum eigenvalue in the overlap matrix is 5.2158439599E-05.
  Using Symmetric Orthogonalization.

  SCF Guess: Superposition of Atomic Densities via on-the-fly atomic UHF.

  ==> Iterations <==

                        Total Energy        Delta E     RMS |[F,P]|

   @RHF iter   0:   -56.20613503261259   -5.62061e+01   1.23895e-02 
   @RHF iter   1:   -56.20163694925557    4.49808e-03   1.39281e-03 
   @RHF iter   2:   -56.21967529382390   -1.80383e-02   6.62321e-04 DIIS
   @RHF iter   3:   -56.22373546704603   -4.06017e-03   1.16638e-04 DIIS
   @RHF iter   4:   -56.22395457927414   -2.19112e-04   2.36951e-05 DIIS
   @RHF iter   5:   -56.22396935197312   -1.47727e-05   5.10686e-06 DIIS
   @RHF iter   6:   -56.22397040373735   -1.05176e-06   1.25883e-06 DIIS
   @RHF iter   7:   -56.22397048238712   -7.86498e-08   2.82401e-07 DIIS
   @RHF iter   8:   -56.22397048609815   -3.71103e-09   2.88168e-08 DIIS
   @RHF iter   9:   -56.22397048612727   -2.91180e-11   3.64807e-09 DIIS

  ==> Post-Iterations <==

    Orbital Energies (a.u.)
    -----------------------

    Doubly Occupied:                                                      

       1Ap   -15.540123     2Ap    -1.142155     1App   -0.628933  
       3Ap    -0.628933     4Ap    -0.429539  

    Virtual:                                                              

       5Ap     0.026575     6Ap     0.043752     2App    0.043752  
       7Ap     0.097728     8Ap     0.132252     9Ap     0.139406  
       3App    0.139406     4App    0.183794    10Ap     0.183794  
       5App    0.188674    11Ap     0.188674    12Ap     0.209773  
       6App    0.283736    13Ap     0.293066     7App    0.297733  
      14Ap     0.297733    15Ap     0.354691     8App    0.382462  
      16Ap     0.382462     9App    0.389731    17Ap     0.389731  
      18Ap     0.422486    10App    0.474173    19Ap     0.474173  
      11App    0.558868    20Ap     0.558868    21Ap     0.559640  
      22Ap     0.594666    12App    0.682840    23Ap     0.682840  
      24Ap     0.698653    13App    0.701381    25Ap     0.717811  
      14App    0.717811    15App    0.751008    16App    0.780655  
      26Ap     0.780655    27Ap     0.782560    17App    0.830570  
      28Ap     0.830570    29Ap     0.851131    18App    0.857369  
      30Ap     0.857369    19App    0.872470    31Ap     0.872470  
      32Ap     0.978850    20App    1.015425    33Ap     1.015425  
      34Ap     1.134138    21App    1.222698    35Ap     1.222698  
      36Ap     1.354750    22App    1.355354    37Ap     1.355354  
      38Ap     1.372646    23App    1.375727    24App    1.450697  
      39Ap     1.450697    25App    1.518078    26App    1.537517  
      40Ap     1.537517    41Ap     1.576636    42Ap     1.603062  
      27App    1.660583    43Ap     1.660583    28App    1.698357  
      44Ap     1.698357    45Ap     1.733107    29App    1.749477  
      46Ap     1.749477    47Ap     1.815506    30App    1.828646  
      48Ap     1.828646    31App    1.850884    32App    1.897317  
      49Ap     1.897317    33App    1.986850    50Ap     1.986850  
      34App    2.019129    51Ap     2.019129    52Ap     2.036383  
      35App    2.060452    53Ap     2.099759    36App    2.113833  
      54Ap     2.113833    55Ap     2.198463    56Ap     2.271091  
      37App    2.271091    38App    2.284343    57Ap     2.411245  
      39App    2.411245    58Ap     2.778203    59Ap     2.896458  
      40App    2.896458    60Ap     2.925759    41App    2.936696  
      61Ap     2.936696    42App    2.940793    43App    3.001559  
      62Ap     3.001559    44App    3.036386    63Ap     3.036386  
      64Ap     3.066383    45App    3.111006    65Ap     3.140698  
      46App    3.196041    66Ap     3.196041    47App    3.267651  
      67Ap     3.267651    48App    3.403649    68Ap     3.403649  
      69Ap     3.466630    49App    3.542477    70Ap     3.542477  
      71Ap     3.609291    50App    3.710149    72Ap     3.898660  
      51App    3.914150    73Ap     3.914150    74Ap     4.142119  
      52App    4.142119    75Ap     4.152663    53App    4.182710  
      76Ap     4.182710    54App    4.220228    77Ap     4.229017  
      78Ap     4.299932    55App    4.378367    79Ap     4.378367  
      56App    4.717806    80Ap     4.717806    81Ap     4.960132  
      57App    4.960132    82Ap     5.073641    83Ap     5.185983  
      58App    5.185983    59App    5.347906    84Ap     5.347906  
      60App    5.461645    85Ap     5.643860    61App    6.829192  
      86Ap     6.829192    62App    6.895979    63App    6.933154  
      87Ap     6.933154    88Ap     7.015556    64App    7.380414  
      89Ap     7.407655    65App    7.407655    66App    7.425604  
      90Ap     7.425604    91Ap     7.600086    67App    7.680467  
      68App    7.709266    92Ap     7.709266    93Ap     7.865542  
      69App    7.865542    70App    7.944494    94Ap     7.944494  
      95Ap     7.976090    96Ap     8.206674    71App    8.320315  
      97Ap     8.320315    98Ap     8.341097    99Ap     8.518702  
      72App    8.575691   100Ap     8.575691    73App    8.658993  
     101Ap     8.658993   102Ap     8.870846   103Ap     8.898961  
      74App    8.898961   104Ap     8.945429    75App    8.992252  
     105Ap     8.997015    76App    8.997015    77App    9.003594  
     106Ap     9.210162    78App    9.295564   107Ap     9.295564  
      79App    9.436163   108Ap     9.436163    80App    9.507252  
     109Ap     9.507252   110Ap     9.566158    81App    9.773746  
     111Ap     9.805872    82App    9.924209   112Ap     9.924209  
     113Ap    10.110569    83App   10.110569   114Ap    10.125289  
     115Ap    10.287263    84App   10.287263    85App   10.549758  
     116Ap    10.549758   117Ap    10.789616    86App   10.860541  
     118Ap    10.988240    87App   10.988240   119Ap    11.724164  
     120Ap    12.196537    88App   12.196537   121Ap    12.261354  
      89App   12.354165   122Ap    12.354165    90App   13.051410  
      91App   13.114459   123Ap    13.114459   124Ap    14.705723  
      92App   15.044796   125Ap    15.044796   126Ap    36.633529  

    Final Occupation by Irrep:
             Ap   App 
    DOCC [     4,    1 ]

  Energy converged.

  @RHF Final Energy:   -56.22397048612727

   => Energetics <=

    Nuclear Repulsion Energy =             11.9566989458572372
    One-Electron Energy =                 -99.6219739832957032
    Two-Electron Energy =                  31.4413045513111911
    PCM Polarization Energy =               0.0000000000000000
    Total Energy =                        -56.2239704861272713

    Alert: EFP and PCM quantities not currently incorporated into SCF psivars.

Properties will be evaluated at   0.000000,   0.000000,   0.000000 Bohr

Properties computed using the SCF density matrix

  Nuclear Dipole Moment: (a.u.)
     X:    -0.0000      Y:     0.8792      Z:     0.0000

  Electronic Dipole Moment: (a.u.)
     X:     0.0000      Y:    -0.2448      Z:     0.0000

  Dipole Moment: (a.u.)
     X:     0.0000      Y:     0.6344      Z:     0.0000     Total:     0.6344

  Dipole Moment: (Debye)
     X:     0.0000      Y:     1.6125      Z:     0.0000     Total:     1.6125


*** tstop() called on cqc01 at Sun Apr 28 15:13:08 2019
Module time:
	user time   =      41.52 seconds =       0.69 minutes
	system time =       7.75 seconds =       0.13 minutes
	total time  =        101 seconds =       1.68 minutes
Total time:
	user time   =      41.52 seconds =       0.69 minutes
	system time =       7.75 seconds =       0.13 minutes
	total time  =        101 seconds =       1.68 minutes

*** tstart() called on cqc01
*** at Sun Apr 28 15:13:08 2019


	Wfn Parameters:
	--------------------
	Wavefunction         = CCSD
	Number of irreps     = 2
	Number of MOs        = 218
	Number of active MOs = 217
	AO-Basis             = NONE
	Semicanonical        = false
	Reference            = RHF
	Print Level          = 1

	IRREP	# MOs	# FZDC	# DOCC	# SOCC	# VIRT	# FZVR
	-----	-----	------	------	------	------	------
	 Ap	   126	    1	    3	    0	    122	    0
	 App	   92	    0	    1	    0	    91	    0
	Transforming integrals...
	IWL integrals will be deleted.
	(OO|OO)...
	Presorting SO-basis two-electron integrals.
	Sorting File: SO Ints (nn|nn) nbuckets = 1
	Transforming the one-electron integrals and constructing Fock matrices
	Starting first half-transformation.
	Sorting half-transformed integrals.
	First half integral transformation complete.
	Starting second half-transformation.
	Two-electron integral transformation complete.
	(OO|OV)...
	Starting second half-transformation.
	Two-electron integral transformation complete.
	(OO|VV)...
	Starting second half-transformation.
	Two-electron integral transformation complete.
	(OV|OO)...
	Starting first half-transformation.
	Sorting half-transformed integrals.
	First half integral transformation complete.
	Starting second half-transformation.
	Two-electron integral transformation complete.
	(OV|OV)...
	Starting second half-transformation.
	Two-electron integral transformation complete.
	(OV|VV)...
	Starting second half-transformation.
	Two-electron integral transformation complete.
	(VV|OO)...
	Starting first half-transformation.
	Sorting half-transformed integrals.
	First half integral transformation complete.
	Starting second half-transformation.
	Two-electron integral transformation complete.
	(VV|OV)...
	Starting second half-transformation.
	Two-electron integral transformation complete.
	(VV|VV)...
	Starting second half-transformation.
	Two-electron integral transformation complete.
	Frozen core energy     =    -47.87035457368820

	Size of irrep 0 of <ab|cd> integrals:    536.617 (MW) /   4292.938 (MB)
	Size of irrep 1 of <ab|cd> integrals:    493.018 (MW) /   3944.141 (MB)
	Total:                                  1029.635 (MW) /   8237.079 (MB)

	Size of irrep 0 of <ia|bc> integrals:     10.586 (MW) /     84.691 (MB)
	Size of irrep 1 of <ia|bc> integrals:      8.771 (MW) /     70.165 (MB)
	Total:                                    19.357 (MW) /    154.856 (MB)

	Size of irrep 0 of tijab amplitudes:       0.232 (MW) /      1.853 (MB)
	Size of irrep 1 of tijab amplitudes:       0.133 (MW) /      1.066 (MB)
	Total:                                     0.365 (MW) /      2.919 (MB)

	Nuclear Rep. energy          =     11.95669894585724
	SCF energy                   =    -56.22397048612727
	One-electron energy          =    -34.96151164288960
	Two-electron energy          =     14.65119678459294
	Reference energy             =    -56.22397048612762

*** tstop() called on cqc01 at Sun Apr 28 15:21:54 2019
Module time:
	user time   =     102.19 seconds =       1.70 minutes
	system time =      51.78 seconds =       0.86 minutes
	total time  =        526 seconds =       8.77 minutes
Total time:
	user time   =     143.71 seconds =       2.40 minutes
	system time =      59.53 seconds =       0.99 minutes
	total time  =        627 seconds =      10.45 minutes

*** tstart() called on cqc01
*** at Sun Apr 28 15:21:54 2019

            **************************
            *                        *
            *        CCENERGY        *
            *                        *
            **************************

    Nuclear Rep. energy (wfn)     =   11.956698945857237
    SCF energy          (wfn)     =  -56.223970486127271
    Reference energy    (file100) =  -56.223970486127619

    Input parameters:
    -----------------
    Wave function   =     CCSD
    Reference wfn   =     RHF
    Brueckner       =     No
    Memory (Mbytes) =     32000.0
    Maxiter         =     50
    R_Convergence   =     1.0e-07
    E_Convergence   =     1.0e-06
    Restart         =     Yes
    DIIS            =     Yes
    AO Basis        =     NONE
    ABCD            =     NEW
    Cache Level     =     2
    Cache Type      =     LOW
    Print Level     =     1
    Num. of threads =     1
    # Amps to Print =     10
    Print MP2 Amps? =     No
    Analyze T2 Amps =     No
    Print Pair Ener =     No
    Local CC        =     No
    SCS-MP2         =     False
    SCSN-MP2        =     False
    SCS-CCSD        =     False

MP2 correlation energy -0.2537955919661636
                Solving CC Amplitude Equations
                ------------------------------
  Iter             Energy              RMS        T1Diag      D1Diag    New D1Diag    D2Diag
  ----     ---------------------    ---------   ----------  ----------  ----------   --------
     0        -0.253795591966108    0.000e+00    0.000000    0.000000    0.000000    0.124035
     1        -0.273098681886294    2.033e-01    0.013523    0.025259    0.025259    0.141145
     2        -0.266350450432218    2.692e-02    0.008289    0.017759    0.017759    0.136675
     3        -0.263125315826912    6.667e-03    0.008379    0.017582    0.017582    0.134280
     4        -0.262859936064981    1.555e-03    0.008163    0.016995    0.016995    0.133934
     5        -0.262823603483670    4.731e-04    0.008116    0.016900    0.016900    0.133810
     6        -0.262803096588747    1.357e-04    0.008098    0.016830    0.016830    0.133770
     7        -0.262803678368949    3.758e-05    0.008092    0.016809    0.016809    0.133764
     8        -0.262804554804275    1.252e-05    0.008090    0.016803    0.016803    0.133763
     9        -0.262804100225529    4.531e-06    0.008089    0.016800    0.016800    0.133763
    10        -0.262804031353738    1.386e-06    0.008089    0.016800    0.016800    0.133763
    11        -0.262804087634038    5.708e-07    0.008089    0.016800    0.016800    0.133763
    12        -0.262804096087842    2.499e-07    0.008089    0.016800    0.016800    0.133763
    13        -0.262804098102362    9.023e-08    0.008089    0.016800    0.016800    0.133763
    13        -0.262804098102362    9.023e-08    0.008089    0.016800    0.016800    0.133763

    Iterations converged.


    CCSD corr. energy   =   -0.262804098102362
    PPL corr. energy    =    0.064966359138245
    OS PPL corr. energy =    0.055798215895135
    SS PPL corr. energy =    0.009168143243109
    Largest TIA Amplitudes:
              2   2        -0.0091361561
              2   8        -0.0073773807
              2   7        -0.0069703877
              1  35         0.0045459269
              3 146         0.0045459269
              3 136         0.0040671361
              1  21         0.0040671361
              2  16         0.0039232970
              2  27         0.0034894302
              2  53         0.0033991760

    Largest TIjAb Amplitudes:
      3   3 129 129        -0.0220190877
      1   1  12  12        -0.0220190876
      1   1  21  21        -0.0171962177
      3   3 136 136        -0.0171962177
      2   2  33  33        -0.0165507834
      2   2  19  19        -0.0164173631
      2   2   8   8        -0.0160279840
      2   2  27  27        -0.0153819229
      2   2   8  19         0.0151177132
      2   2  19   8         0.0151177132

    SCF energy       (wfn)                    =  -56.223970486127271
    Reference energy (file100)                =  -56.223970486127619

    Opposite-spin MP2 correlation energy      =   -0.199223125751524
    Same-spin MP2 correlation energy          =   -0.054572466214585
    MP2 correlation energy                    =   -0.253795591966164
      * MP2 total energy                      =  -56.477766078093786

    Opposite-spin CCSD correlation energy     =   -0.213133215214812
    Same-spin CCSD correlation energy         =   -0.049670882947583
    CCSD correlation energy                   =   -0.262804098102362
      * CCSD total energy                     =  -56.486774584229984


*** tstop() called on cqc01 at Sun Apr 28 15:23:47 2019
Module time:
	user time   =      21.47 seconds =       0.36 minutes
	system time =      30.18 seconds =       0.50 minutes
	total time  =        113 seconds =       1.88 minutes
Total time:
	user time   =     165.18 seconds =       2.75 minutes
	system time =      89.72 seconds =       1.50 minutes
	total time  =        740 seconds =      12.33 minutes

*** Psi4 exiting successfully. Buy a developer a beer!
