
    -----------------------------------------------------------------------
          Psi4: An Open-Source Ab Initio Electronic Structure Package
                               Psi4 1.4a3.dev88 

                         Git: Rev {master} 262e345 


    D. G. A. Smith, L. A. Burns, A. C. Simmonett, R. M. Parrish,
    M. C. Schieber, R. Galvelis, P. Kraus, H. Kruse, R. Di Remigio,
    A. Alenaizan, A. M. James, S. Lehtola, J. P. Misiewicz, M. Scheurer,
    R. A. Shaw, J. B. Schriber, Y. Xie, Z. L. Glick, D. A. Sirianni,
    J. S. O'Brien, J. M. Waldrop, A. Kumar, E. G. Hohenstein,
    B. P. Pritchard, B. R. Brooks, H. F. Schaefer III, A. Yu. Sokolov,
    K. Patkowski, A. E. DePrince III, U. Bozkaya, R. A. King,
    F. A. Evangelista, J. M. Turney, T. D. Crawford, C. D. Sherrill,
    J. Chem. Phys. 152(18) 184108 (2020). https://doi.org/10.1063/5.0006002

                            Additional Code Authors
    E. T. Seidl, C. L. Janssen, E. F. Valeev, M. L. Leininger,
    J. F. Gonthier, R. M. Richard, H. R. McAlexander, M. Saitow, X. Wang,
    P. Verma, and M. H. Lechner

             Previous Authors, Complete List of Code Contributors,
                       and Citations for Specific Modules
    https://github.com/psi4/psi4/blob/master/codemeta.json
    https://github.com/psi4/psi4/graphs/contributors
    http://psicode.org/psi4manual/master/introduction.html#citing-psifour

    -----------------------------------------------------------------------


    Psi4 started on: Wednesday, 20 January 2021 09:06PM

    Process ID: 454390
    Host:       l43
    PSIDATADIR: /home/fs71337/gallo4/psi4/psi4/build/stage/share/psi4
    Memory:     500.0 MiB
    Threads:    48
    
  ==> Input File <==

--------------------------------------------------------------------------
# Any line starting with the # character is a comment line
memory 250000 mb
molecule molecule{
1 2
N          0.0000000000        0.0000000000        0.5700849120
N          0.0000000000        0.0000000000       -0.5700849120
}

set {
  reference uhf
  basis aug-cc-pV(Q+d)Z
  scf_type OUT_OF_CORE
  freeze_core true
}

energy('ccsd(t)')
--------------------------------------------------------------------------

  Memory set to 232.831 GiB by Python driver.

Scratch directory: /tmp/

*** tstart() called on l43
*** at Wed Jan 20 21:06:57 2021

   => Loading Basis Set <=

    Name: AUG-CC-PV(Q+D)Z
    Role: ORBITAL
    Keyword: BASIS
    atoms 1-2 entry N          line   391 file /home/fs71337/gallo4/psi4/psi4/build/stage/share/psi4/basis/aug-cc-pv_qpd_z.gbs 


         ---------------------------------------------------------
                                   SCF
               by Justin Turney, Rob Parrish, Andy Simmonett
                          and Daniel G. A. Smith
                              UHF Reference
                       48 Threads, 238418 MiB Core
         ---------------------------------------------------------

  ==> Geometry <==

    Molecular point group: d2h
    Full point group: D_inf_h

    Geometry (in Angstrom), charge = 1, multiplicity = 2:

       Center              X                  Y                   Z               Mass       
    ------------   -----------------  -----------------  -----------------  -----------------
         N            0.000000000000     0.000000000000     0.570084912000    14.003074004430
         N            0.000000000000     0.000000000000    -0.570084912000    14.003074004430

  Running in d2h symmetry.

  Rotational constants: A = ************  B =      1.85210  C =      1.85210 [cm^-1]
  Rotational constants: A = ************  B =  55524.50885  C =  55524.50885 [MHz]
  Nuclear repulsion =   22.741948415949309

  Charge       = 1
  Multiplicity = 2
  Electrons    = 13
  Nalpha       = 7
  Nbeta        = 6

  ==> Algorithm <==

  SCF Algorithm Type is OUT_OF_CORE.
  DIIS enabled.
  MOM disabled.
  Fractional occupation disabled.
  Guess Type is SAD.
  Energy threshold   = 1.00e-08
  Density threshold  = 1.00e-08
  Integral threshold = 1.00e-12

  ==> Primary Basis <==

  Basis Set: AUG-CC-PV(Q+D)Z
    Blend: AUG-CC-PV(Q+D)Z
    Number of shells: 40
    Number of basis function: 160
    Number of Cartesian functions: 210
    Spherical Harmonics?: true
    Max angular momentum: 4

  ==> Integral Setup <==

  ==> DiskJK: Disk-Based J/K Matrices <==

    J tasked:                  Yes
    K tasked:                  Yes
    wK tasked:                  No
    Memory [MiB]:           178813
    Schwarz Cutoff:          1E-12

  Minimum eigenvalue in the overlap matrix is 8.2206821751E-05.
  Reciprocal condition number of the overlap matrix is 1.4291116747E-05.
    Using symmetric orthogonalization.

  ==> Pre-Iterations <==

  SCF Guess: Superposition of Atomic Densities via on-the-fly atomic UHF (no occupation information).


 WARNING: Atomic UHF is not converging! Try casting from a smaller basis or call Rob at CCMST.
   -------------------------
    Irrep   Nso     Nmo    
   -------------------------
     Ag        31      31 
     B1g       11      11 
     B2g       19      19 
     B3g       19      19 
     Au        11      11 
     B1u       31      31 
     B2u       19      19 
     B3u       19      19 
   -------------------------
    Total     160     160
   -------------------------

  ==> Iterations <==

                        Total Energy        Delta E     RMS |[F,P]|

   @UHF iter SAD:  -107.60862729731795   -1.07609e+02   0.00000e+00 
   @UHF iter   1:  -108.35288413848518   -7.44257e-01   4.54291e-03 DIIS
   @UHF iter   2:  -108.40351133142903   -5.06272e-02   1.46993e-03 DIIS
   @UHF iter   3:  -108.40798977886544   -4.47845e-03   5.07034e-04 DIIS
   @UHF iter   4:  -108.40874002331155   -7.50244e-04   1.19225e-04 DIIS
   @UHF iter   5:  -108.40878237398678   -4.23507e-05   1.74751e-05 DIIS
   @UHF iter   6:  -108.40878328171686   -9.07730e-07   4.19611e-06 DIIS
   @UHF iter   7:  -108.40878334701300   -6.52961e-08   8.55273e-07 DIIS
   @UHF iter   8:  -108.40878334961076   -2.59776e-09   1.20992e-07 DIIS
   @UHF iter   9:  -108.40878334965734   -4.65832e-11   1.32244e-08 DIIS
   @UHF iter  10:  -108.40878334965790   -5.54223e-13   1.67272e-09 DIIS
  Energy and wave function converged.


  ==> Post-Iterations <==

   @Spin Contamination Metric:   1.974781591E-02
   @S^2 Expected:                7.500000000E-01
   @S^2 Observed:                7.697478159E-01
   @S   Expected:                5.000000000E-01
   @S   Observed:                5.000000000E-01

    Orbital Energies [Eh]
    ---------------------

    Alpha Occupied:                                                       

       1Ag   -16.195149     1B1u  -16.192180     2Ag    -1.897644  
       2B1u   -1.280603     3Ag    -1.139875     1B3u   -1.019067  
       1B2u   -1.019067  

    Alpha Virtual:                                                        

       1B2g   -0.267616     1B3g   -0.267616     4Ag    -0.105346  
       3B1u   -0.085536     2B3u   -0.075187     2B2u   -0.075187  
       5Ag    -0.034774     2B2g   -0.017215     2B3g   -0.017215  
       4B1u    0.059881     1B1g    0.077479     6Ag     0.077479  
       7Ag     0.145703     5B1u    0.175318     3B3u    0.201940  
       3B2u    0.201940     3B2g    0.204184     3B3g    0.204184  
       6B1u    0.210160     1Au     0.210160     4B3u    0.285431  
       4B2u    0.285431     8Ag     0.347221     7B1u    0.354738  
       8B1u    0.490146     9Ag     0.509331     4B2g    0.579899  
       4B3g    0.579899     5B2u    0.662303     5B3u    0.662303  
       2B1g    0.670258    10Ag     0.670258     6B3u    0.732696  
       6B2u    0.732696     2Au     0.783299     9B1u    0.783299  
      10B1u    0.859543    11Ag     0.872798     5B2g    0.891549  
       5B3g    0.891549    12Ag     0.902097     3B1g    0.902097  
       6B2g    0.906218     6B3g    0.906218    11B1u    1.098127  
       7B3u    1.226281     7B2u    1.226281    13Ag     1.275091  
       3Au     1.364834    12B1u    1.364834     7B2g    1.435697  
       7B3g    1.435697    13B1u    1.440947     8B3u    1.731803  
       8B2u    1.731803    14Ag     2.293561    15Ag     2.326073  
       4B1g    2.326073    16Ag     2.420008     9B2u    2.449662  
       9B3u    2.449662     5B1g    2.463058    17Ag     2.463058  
       8B2g    2.514009     8B3g    2.514009    14B1u    2.559341  
      10B3u    2.608770    10B2u    2.608770    15B1u    2.720219  
       4Au     2.720219    16B1u    2.729317     5Au     2.751698  
      17B1u    2.751698    11B3u    2.755011    11B2u    2.755011  
      12B3u    2.767991    12B2u    2.767991     6B1g    2.782982  
      18Ag     2.782982     9B3g    2.791980     9B2g    2.791980  
      10B2g    2.970540    10B3g    2.970540    19Ag     2.989347  
       6Au     3.055511    18B1u    3.055511    19B1u    3.111194  
      20Ag     3.127481    11B2g    3.162312    11B3g    3.162312  
      21Ag     3.416368     7B1g    3.416368    12B3g    3.492800  
      12B2g    3.492800    13B2u    4.344801    13B3u    4.344801  
      20B1u    4.664246     7Au     4.664246    21B1u    4.700152  
      22Ag     4.944859    13B3g    5.263194    13B2g    5.263194  
      22B1u    5.327277    23Ag     7.357991     8B1g    7.357991  
      14B3u    7.368307    14B2u    7.368307    15B2u    7.530205  
      15B3u    7.530205    24Ag     7.633467     9B1g    7.649652  
      25Ag     7.649652    14B3g    7.912589    14B2g    7.912589  
       8Au     7.928144    23B1u    7.928144    16B2u    8.023641  
      16B3u    8.023641    26Ag     8.311656    15B2g    8.424238  
      15B3g    8.424238    16B3g    8.426063    16B2g    8.426063  
      24B1u    8.454089     9Au     8.454089    25B1u    8.546218  
      17B3u    8.628752    17B2u    8.628752    27Ag     8.816963  
      10B1g    8.816963    26B1u    8.828034    17B2g    8.865985  
      17B3g    8.865985    28Ag     9.050712    29Ag     9.082470  
      11B1g    9.082470    18B2u    9.238155    18B3u    9.238155  
      27B1u    9.756892    10Au     9.756892    28B1u    9.931422  
      11Au     9.931422    19B2u   10.078247    19B3u   10.078247  
      18B3g   10.520737    18B2g   10.520738    29B1u   10.685944  
      30Ag    12.140278    19B3g   12.405349    19B2g   12.405349  
      30B1u   13.458273    31B1u   31.994650    31Ag    32.819283  

    Beta Occupied:                                                        

       1Ag   -16.174759     1B1u  -16.172927     2Ag    -1.826575  
       2B1u   -1.055599     1B3u   -1.004122     1B2u   -1.004122  

    Beta Virtual:                                                         

       3Ag    -0.514280     1B3g   -0.238339     1B2g   -0.238339  
       4Ag    -0.090897     3B1u   -0.083784     2B3u   -0.074508  
       2B2u   -0.074508     5Ag    -0.032941     2B2g   -0.016095  
       2B3g   -0.016095     4B1u    0.062847     1B1g    0.077458  
       6Ag     0.077458     7Ag     0.153792     5B1u    0.186282  
       3B3u    0.204998     3B2u    0.204998     3B2g    0.206182  
       3B3g    0.206182     6B1u    0.210530     1Au     0.210530  
       4B3u    0.288710     4B2u    0.288710     7B1u    0.364660  
       8Ag     0.383499     9Ag     0.523146     4B2g    0.582835  
       4B3g    0.582835     8B1u    0.584270     5B2u    0.662068  
       5B3u    0.662068     2B1g    0.669047    10Ag     0.669047  
       6B2u    0.754976     6B3u    0.754976     2Au     0.787188  
       9B1u    0.787188    10B1u    0.864371    11Ag     0.881600  
       5B2g    0.898060     5B3g    0.898060    12Ag     0.905514  
       3B1g    0.905514     6B3g    0.906612     6B2g    0.906612  
      11B1u    1.121747     7B3u    1.243675     7B2u    1.243675  
      13Ag     1.312547     3Au     1.366018    12B1u    1.366018  
       7B2g    1.444100     7B3g    1.444100    13B1u    1.470356  
       8B3u    1.740512     8B2u    1.740512    14Ag     2.314711  
      15Ag     2.325653     4B1g    2.325653     9B2u    2.447579  
       9B3u    2.447579     5B1g    2.463585    16Ag     2.463585  
      17Ag     2.486086     8B3g    2.534237     8B2g    2.534237  
      14B1u    2.604368    10B3u    2.646657    10B2u    2.646657  
      15B1u    2.731887     4Au     2.731887    16B1u    2.752261  
       5Au     2.752261    17B1u    2.757342    11B3u    2.760199  
      11B2u    2.760199    12B2u    2.786993    12B3u    2.786993  
       9B3g    2.797366     9B2g    2.797366    18Ag     2.801962  
       6B1g    2.801962    10B3g    2.991604    10B2g    2.991604  
      19Ag     3.037073     6Au     3.062506    18B1u    3.062506  
      19B1u    3.135824    20Ag     3.138572    11B2g    3.171652  
      11B3g    3.171652    21Ag     3.421420     7B1g    3.421420  
      12B3g    3.492364    12B2g    3.492364    13B2u    4.365182  
      13B3u    4.365182    20B1u    4.666777     7Au     4.666777  
      21B1u    4.707961    22Ag     4.967442    13B3g    5.288637  
      13B2g    5.288637    22B1u    5.372653    23Ag     7.371493  
       8B1g    7.371493    14B3u    7.376372    14B2u    7.376372  
      15B2u    7.553988    15B3u    7.553988    24Ag     7.651223  
       9B1g    7.651223    25Ag     7.667006     8Au     7.929592  
      23B1u    7.929592    14B3g    7.948560    14B2g    7.948560  
      16B2u    8.037085    16B3u    8.037085    26Ag     8.355838  
      15B3g    8.433176    15B2g    8.433176    16B3g    8.437515  
      16B2g    8.437515    24B1u    8.481639     9Au     8.481639  
      25B1u    8.570124    17B3u    8.634290    17B2u    8.634290  
      27Ag     8.842805    10B1g    8.842805    17B2g    8.866100  
      17B3g    8.866100    26B1u    8.872138    28Ag     9.088618  
      11B1g    9.088618    29Ag     9.099033    18B2u    9.278294  
      18B3u    9.278294    27B1u    9.761384    10Au     9.761384  
      28B1u    9.943432    11Au     9.943432    19B2u   10.102341  
      19B3u   10.102341    18B3g   10.543114    18B2g   10.543114  
      29B1u   10.718674    30Ag    12.183096    19B3g   12.429913  
      19B2g   12.429913    30B1u   13.495571    31B1u   32.004455  
      31Ag    32.825911  

    Final Occupation by Irrep:
             Ag   B1g   B2g   B3g    Au   B1u   B2u   B3u 
    DOCC [     2,    0,    0,    0,    0,    2,    1,    1 ]
    SOCC [     1,    0,    0,    0,    0,    0,    0,    0 ]

  @UHF Final Energy:  -108.40878334965790

   => Energetics <=

    Nuclear Repulsion Energy =             22.7419484159493095
    One-Electron Energy =                -186.3197755430709890
    Two-Electron Energy =                  55.1690437774637843
    Total Energy =                       -108.4087833496578952

  UHF NO Occupations:
  HONO-2 :    2 Ag 1.9994301
  HONO-1 :    2B1u 1.9910375
  HONO-0 :    3 Ag 1.0000000
  LUNO+0 :    3B1u 0.0089625
  LUNO+1 :    4 Ag 0.0005699
  LUNO+2 :    2B3u 0.0001901
  LUNO+3 :    2B2u 0.0001901


Computation Completed


Properties will be evaluated at   0.000000,   0.000000,   0.000000 [a0]

Properties computed using the SCF density matrix

  Nuclear Dipole Moment: [e a0]
     X:     0.0000      Y:     0.0000      Z:     0.0000

  Electronic Dipole Moment: [e a0]
     X:     0.0000      Y:     0.0000      Z:     0.0000

  Dipole Moment: [e a0]
     X:     0.0000      Y:     0.0000      Z:     0.0000     Total:     0.0000

  Dipole Moment: [D]
     X:     0.0000      Y:     0.0000      Z:     0.0000     Total:     0.0000


*** tstop() called on l43 at Wed Jan 20 21:07:11 2021
Module time:
	user time   =      15.61 seconds =       0.26 minutes
	system time =       3.45 seconds =       0.06 minutes
	total time  =         14 seconds =       0.23 minutes
Total time:
	user time   =      15.61 seconds =       0.26 minutes
	system time =       3.45 seconds =       0.06 minutes
	total time  =         14 seconds =       0.23 minutes

*** tstart() called on l43
*** at Wed Jan 20 21:07:11 2021


	Wfn Parameters:
	--------------------
	Wavefunction         = CCSD_T
	Number of irreps     = 8
	Number of MOs        = 160
	Number of active MOs = 158
	AO-Basis             = NONE
	Semicanonical        = false
	Reference            = UHF
	Print Level          = 1

	IRREP	# MOs	# FZDC	# DOCC	# SOCC	# VIRT	# FZVR
	-----	-----	------	------	------	------	------
	 Ag	   31	    1	    1	    1	    28	    0
	 B1g	   11	    0	    0	    0	    11	    0
	 B2g	   19	    0	    0	    0	    19	    0
	 B3g	   19	    0	    0	    0	    19	    0
	 Au	   11	    0	    0	    0	    11	    0
	 B1u	   31	    1	    1	    0	    29	    0
	 B2u	   19	    0	    1	    0	    18	    0
	 B3u	   19	    0	    1	    0	    18	    0
	Transforming integrals...
	IWL integrals will be deleted.
	(OO|OO)...
	Presorting SO-basis two-electron integrals.
	Sorting File: SO Ints (nn|nn) nbuckets = 1
	Constructing frozen core operators
	Starting AA/AB first half-transformation.
	Sorting AA/AB half-transformed integrals.
	Starting BB first half-transformation.
	Sorting BB half-transformed integrals.
	First half integral transformation complete.
	Starting AA second half-transformation.
	Starting AB second half-transformation.
	Starting BB second half-transformation.
	Two-electron integral transformation complete.
	(OO|OV)...
	Starting AA second half-transformation.
	Starting AB second half-transformation.
	Starting BB second half-transformation.
	Two-electron integral transformation complete.
	(OO|VV)...
	Starting AA second half-transformation.
	Starting AB second half-transformation.
	Starting BB second half-transformation.
	Two-electron integral transformation complete.
	(OV|OO)...
	Starting AA/AB first half-transformation.
	Sorting AA/AB half-transformed integrals.
	Starting BB first half-transformation.
	Sorting BB half-transformed integrals.
	First half integral transformation complete.
	Starting AA second half-transformation.
	Starting AB second half-transformation.
	Starting BB second half-transformation.
	Two-electron integral transformation complete.
	(OV|OV)...
	Starting AA second half-transformation.
	Starting AB second half-transformation.
	Starting BB second half-transformation.
	Two-electron integral transformation complete.
	(OV|VV)...
	Starting AA second half-transformation.
	Starting AB second half-transformation.
	Starting BB second half-transformation.
	Two-electron integral transformation complete.
	(VV|OO)...
	Starting AA/AB first half-transformation.
	Sorting AA/AB half-transformed integrals.
	Starting BB first half-transformation.
	Sorting BB half-transformed integrals.
	First half integral transformation complete.
	Starting AA second half-transformation.
	Starting AB second half-transformation.
	Starting BB second half-transformation.
	Two-electron integral transformation complete.
	(VV|OV)...
	Starting AA second half-transformation.
	Starting AB second half-transformation.
	Starting BB second half-transformation.
	Two-electron integral transformation complete.
	(VV|VV)...
	Starting AA second half-transformation.
	Starting AB second half-transformation.
	Starting BB second half-transformation.
	Two-electron integral transformation complete.
	Frozen core energy     =   -100.60776735226068

	Size of irrep 0 of <AB|CD> integrals:      2.378 (MW) /     19.022 (MB)
	Size of irrep 1 of <AB|CD> integrals:      1.721 (MW) /     13.771 (MB)
	Size of irrep 2 of <AB|CD> integrals:      2.135 (MW) /     17.076 (MB)
	Size of irrep 3 of <AB|CD> integrals:      2.135 (MW) /     17.076 (MB)
	Size of irrep 4 of <AB|CD> integrals:      1.719 (MW) /     13.750 (MB)
	Size of irrep 5 of <AB|CD> integrals:      2.615 (MW) /     20.918 (MB)
	Size of irrep 6 of <AB|CD> integrals:      2.137 (MW) /     17.100 (MB)
	Size of irrep 7 of <AB|CD> integrals:      2.137 (MW) /     17.100 (MB)
	Total:                                    16.976 (MW) /    135.812 (MB)

	Size of irrep 0 of <ab|cd> integrals:      2.465 (MW) /     19.719 (MB)
	Size of irrep 1 of <ab|cd> integrals:      1.750 (MW) /     14.003 (MB)
	Size of irrep 2 of <ab|cd> integrals:      2.190 (MW) /     17.523 (MB)
	Size of irrep 3 of <ab|cd> integrals:      2.190 (MW) /     17.523 (MB)
	Size of irrep 4 of <ab|cd> integrals:      1.748 (MW) /     13.981 (MB)
	Size of irrep 5 of <ab|cd> integrals:      2.709 (MW) /     21.675 (MB)
	Size of irrep 6 of <ab|cd> integrals:      2.190 (MW) /     17.523 (MB)
	Size of irrep 7 of <ab|cd> integrals:      2.190 (MW) /     17.523 (MB)
	Total:                                    17.434 (MW) /    139.471 (MB)

	Size of irrep 0 of <Ab|Cd> integrals:     10.660 (MW) /     85.282 (MB)
	Size of irrep 1 of <Ab|Cd> integrals:      6.943 (MW) /     55.546 (MB)
	Size of irrep 2 of <Ab|Cd> integrals:      8.649 (MW) /     69.196 (MB)
	Size of irrep 3 of <Ab|Cd> integrals:      8.649 (MW) /     69.196 (MB)
	Size of irrep 4 of <Ab|Cd> integrals:      6.933 (MW) /     55.462 (MB)
	Size of irrep 5 of <Ab|Cd> integrals:     10.647 (MW) /     85.177 (MB)
	Size of irrep 6 of <Ab|Cd> integrals:      8.655 (MW) /     69.243 (MB)
	Size of irrep 7 of <Ab|Cd> integrals:      8.655 (MW) /     69.243 (MB)
	Total:                                    69.793 (MW) /    558.344 (MB)

	Size of irrep 0 of <IA|BC> integrals:      0.392 (MW) /      3.133 (MB)
	Size of irrep 1 of <IA|BC> integrals:      0.181 (MW) /      1.448 (MB)
	Size of irrep 2 of <IA|BC> integrals:      0.281 (MW) /      2.244 (MB)
	Size of irrep 3 of <IA|BC> integrals:      0.281 (MW) /      2.244 (MB)
	Size of irrep 4 of <IA|BC> integrals:      0.186 (MW) /      1.489 (MB)
	Size of irrep 5 of <IA|BC> integrals:      0.401 (MW) /      3.208 (MB)
	Size of irrep 6 of <IA|BC> integrals:      0.275 (MW) /      2.199 (MB)
	Size of irrep 7 of <IA|BC> integrals:      0.275 (MW) /      2.199 (MB)
	Total:                                     2.271 (MW) /     18.165 (MB)

	Size of irrep 0 of <ia|bc> integrals:      0.310 (MW) /      2.477 (MB)
	Size of irrep 1 of <ia|bc> integrals:      0.153 (MW) /      1.228 (MB)
	Size of irrep 2 of <ia|bc> integrals:      0.228 (MW) /      1.823 (MB)
	Size of irrep 3 of <ia|bc> integrals:      0.228 (MW) /      1.823 (MB)
	Size of irrep 4 of <ia|bc> integrals:      0.159 (MW) /      1.269 (MB)
	Size of irrep 5 of <ia|bc> integrals:      0.316 (MW) /      2.528 (MB)
	Size of irrep 6 of <ia|bc> integrals:      0.228 (MW) /      1.823 (MB)
	Size of irrep 7 of <ia|bc> integrals:      0.228 (MW) /      1.823 (MB)
	Total:                                     1.849 (MW) /     14.796 (MB)

	Size of irrep 0 of <Ia|Bc> integrals:      0.402 (MW) /      3.213 (MB)
	Size of irrep 1 of <Ia|Bc> integrals:      0.182 (MW) /      1.455 (MB)
	Size of irrep 2 of <Ia|Bc> integrals:      0.282 (MW) /      2.259 (MB)
	Size of irrep 3 of <Ia|Bc> integrals:      0.282 (MW) /      2.259 (MB)
	Size of irrep 4 of <Ia|Bc> integrals:      0.187 (MW) /      1.496 (MB)
	Size of irrep 5 of <Ia|Bc> integrals:      0.408 (MW) /      3.263 (MB)
	Size of irrep 6 of <Ia|Bc> integrals:      0.279 (MW) /      2.236 (MB)
	Size of irrep 7 of <Ia|Bc> integrals:      0.279 (MW) /      2.236 (MB)
	Total:                                     2.302 (MW) /     18.415 (MB)

	Size of irrep 0 of <iA|bC> integrals:      0.304 (MW) /      2.429 (MB)
	Size of irrep 1 of <iA|bC> integrals:      0.153 (MW) /      1.223 (MB)
	Size of irrep 2 of <iA|bC> integrals:      0.226 (MW) /      1.812 (MB)
	Size of irrep 3 of <iA|bC> integrals:      0.226 (MW) /      1.812 (MB)
	Size of irrep 4 of <iA|bC> integrals:      0.158 (MW) /      1.264 (MB)
	Size of irrep 5 of <iA|bC> integrals:      0.310 (MW) /      2.480 (MB)
	Size of irrep 6 of <iA|bC> integrals:      0.224 (MW) /      1.789 (MB)
	Size of irrep 7 of <iA|bC> integrals:      0.224 (MW) /      1.789 (MB)
	Total:                                     1.825 (MW) /     14.596 (MB)

	Size of irrep 0 of tIjAb amplitudes:       0.016 (MW) /      0.131 (MB)
	Size of irrep 1 of tIjAb amplitudes:       0.005 (MW) /      0.042 (MB)
	Size of irrep 2 of tIjAb amplitudes:       0.006 (MW) /      0.047 (MB)
	Size of irrep 3 of tIjAb amplitudes:       0.006 (MW) /      0.047 (MB)
	Size of irrep 4 of tIjAb amplitudes:       0.000 (MW) /      0.000 (MB)
	Size of irrep 5 of tIjAb amplitudes:       0.010 (MW) /      0.078 (MB)
	Size of irrep 6 of tIjAb amplitudes:       0.009 (MW) /      0.071 (MB)
	Size of irrep 7 of tIjAb amplitudes:       0.009 (MW) /      0.071 (MB)
	Total:                                     0.061 (MW) /      0.486 (MB)

	Nuclear Rep. energy          =     22.74194841594931
	SCF energy                   =   -108.40878334965790
	One-electron energy          =    -49.83925548212585
	Two-electron (AA) energy     =      4.86029944631450
	Two-electron (BB) energy     =      2.96912430387360
	Two-electron (AB) energy     =     11.46686731859110
	Two-electron energy          =     19.29629106877921
	Reference energy             =   -108.40878334965799

*** tstop() called on l43 at Wed Jan 20 21:07:25 2021
Module time:
	user time   =       9.38 seconds =       0.16 minutes
	system time =       4.80 seconds =       0.08 minutes
	total time  =         14 seconds =       0.23 minutes
Total time:
	user time   =      24.99 seconds =       0.42 minutes
	system time =       8.25 seconds =       0.14 minutes
	total time  =         28 seconds =       0.47 minutes
            **************************
            *                        *
            *        CCENERGY        *
            *                        *
            **************************

    Nuclear Rep. energy (wfn)     =   22.741948415949309
    SCF energy          (wfn)     = -108.408783349657895
    Reference energy    (file100) = -108.408783349657995

    Input parameters:
    -----------------
    Wave function   =     CCSD_T
    Reference wfn   =     UHF
    Brueckner       =     No
    Memory (Mbytes) =     250000.0
    Maxiter         =     50
    R_Convergence   =     1.0e-07
    E_Convergence   =     1.0e-06
    Restart         =     Yes
    DIIS            =     Yes
    AO Basis        =     NONE
    ABCD            =     NEW
    Cache Level     =     2
    Cache Type      =     LRU
    Print Level     =     1
    Num. of threads =     48
    # Amps to Print =     10
    Print MP2 Amps? =     No
    Analyze T2 Amps =     No
    Print Pair Ener =     No
    Local CC        =     No
    SCS-MP2         =     False
    SCSN-MP2        =     False
    SCS-CCSD        =     False

MP2 correlation energy -0.4194320432414507
                Solving CC Amplitude Equations
                ------------------------------
  Iter             Energy              RMS        T1Diag      D1Diag    New D1Diag    D2Diag
  ----     ---------------------    ---------   ----------  ----------  ----------   --------
     0        -0.419432043241451    0.000e+00    0.000000    0.000000    0.000000    0.000000
     1        -0.366617326173332    1.382e-01    0.028995    0.000000    0.000000    0.000000
     2        -0.393874187402946    5.425e-02    0.026372    0.000000    0.000000    0.000000
     3        -0.398311712835137    1.886e-02    0.031902    0.000000    0.000000    0.000000
     4        -0.399137537085092    5.148e-03    0.032708    0.000000    0.000000    0.000000
     5        -0.399116919543550    1.522e-03    0.032870    0.000000    0.000000    0.000000
     6        -0.399068163697963    4.239e-04    0.032844    0.000000    0.000000    0.000000
     7        -0.399100782426359    1.277e-04    0.032849    0.000000    0.000000    0.000000
     8        -0.399094095594737    4.809e-05    0.032847    0.000000    0.000000    0.000000
     9        -0.399093523391514    1.856e-05    0.032848    0.000000    0.000000    0.000000
    10        -0.399093968760496    6.565e-06    0.032848    0.000000    0.000000    0.000000
    11        -0.399093796798566    2.347e-06    0.032848    0.000000    0.000000    0.000000
    12        -0.399093876175056    7.457e-07    0.032848    0.000000    0.000000    0.000000
    13        -0.399093870940894    2.213e-07    0.032848    0.000000    0.000000    0.000000
    14        -0.399093878355258    7.257e-08    0.032848    0.000000    0.000000    0.000000

    Iterations converged.


    Largest TIA Amplitudes:
              2  93         0.0176565933
              3 119         0.0175472362
              4 137         0.0175472361
              2  92         0.0123953042
              3 121         0.0118088746
              4 139         0.0118088746
              2  90        -0.0115261588
              3 122         0.0111981292
              4 140         0.0111981292
              4 141         0.0111317049

    Largest Tia Amplitudes:
              0   0         0.0567386469
              1  94        -0.0360061062
              2 120         0.0179085897
              3 138         0.0179085896
              1  91         0.0129898300
              3 142         0.0117567134
              2 124         0.0117567134
              3 140         0.0116935528
              2 122         0.0116935528
              1  97        -0.0115460629

    Largest TIJAB Amplitudes:
      4   3  58  39         0.0306108696
      4   1  93  39        -0.0187005553
      3   1  93  58        -0.0187005552
      4   3  29   6         0.0113085010
      4   1  92  39        -0.0111761052
      3   1  92  58        -0.0111761052
      4   2  39   6         0.0092525563
      3   2  39  29         0.0092525563
      4   2  58  29         0.0092525563
      3   2  58   6        -0.0092525563

    Largest Tijab Amplitudes:
      2   1  59   0        -0.0448037036
      3   1  40   0        -0.0448037036
      3   2  59  40         0.0412891374
      2   1  59   1        -0.0117955256
      3   1  40   1        -0.0117955255
      3   2  30   7         0.0117224338
      2   1  59   5         0.0112552114
      3   1  40   5         0.0112552114
      1   0  93   0        -0.0109783546
      1   0  94   0        -0.0106063287

    Largest TIjAb Amplitudes:
      4   3  39  40        -0.1100092719
      3   2  58  59        -0.1100092719
      4   1  39   0        -0.0999281269
      3   1  58   0        -0.0999281269
      4   2  39  59        -0.0646468075
      3   3  58  40        -0.0646468075
      2   1  39  40        -0.0563326724
      2   1  58  59        -0.0563326724
      2   3  39   0        -0.0511129254
      2   2  58   0        -0.0511129254

    SCF energy       (wfn)                    = -108.408783349657895
    Reference energy (file100)                = -108.408783349657995

    Opposite-spin MP2 correlation energy      =   -0.311561998782003
    Same-spin MP2 correlation energy          =   -0.107870044459448
    Singles MP2 correlation energy            =   -0.000000000000000
    MP2 correlation energy                    =   -0.419432043241451
      * MP2 total energy                      = -108.828215392899452

    Opposite-spin CCSD correlation energy     =   -0.320025511284734
    Same-spin CCSD correlation energy         =   -0.079068367070525
    Singles CCSD correlation energy           =    0.000000000000001
    CCSD correlation energy                   =   -0.399093878355258
      * CCSD total energy                     = -108.807877228013254

            **************************
            *                        *
            *        CCTRIPLES       *
            *                        *
            **************************


    Wave function   =    CCSD_T
    Reference wfn   =      UHF

    Nuclear Rep. energy (wfn)                =   22.741948415949309
    SCF energy          (wfn)                = -108.408783349657895
    Reference energy    (file100)            = -108.408783349657995
    CCSD energy         (file100)            =   -0.399093878355258
    Total CCSD energy   (file100)            = -108.807877228013254

    Number of ijk index combinations:
    Spin Case AAA:                                  10
    Spin Case BBB:                                   4
    Spin Case AAB:                                  40
    Spin Case ABB:                                  30
    AAA (T) energy                             =   -0.000361460412435
    BBB (T) energy                             =   -0.000505964815542
    AAB (T) energy                             =   -0.012928833306254
    ABB (T) energy                             =   -0.012720997969321
    (T) energy                                   =   -0.026517256503552
      * CCSD(T) total energy                     = -108.834394484516807


    Psi4 stopped on: Wednesday, 20 January 2021 09:07PM
    Psi4 wall time for execution: 0:00:47.08

*** Psi4 exiting successfully. Buy a developer a beer!
