
    -----------------------------------------------------------------------
          Psi4: An Open-Source Ab Initio Electronic Structure Package
                               Psi4 1.2a1.dev938 

                         Git: Rev {HEAD} fc51d9a dirty


    R. M. Parrish, L. A. Burns, D. G. A. Smith, A. C. Simmonett,
    A. E. DePrince III, E. G. Hohenstein, U. Bozkaya, A. Yu. Sokolov,
    R. Di Remigio, R. M. Richard, J. F. Gonthier, A. M. James,
    H. R. McAlexander, A. Kumar, M. Saitow, X. Wang, B. P. Pritchard,
    P. Verma, H. F. Schaefer III, K. Patkowski, R. A. King, E. F. Valeev,
    F. A. Evangelista, J. M. Turney, T. D. Crawford, and C. D. Sherrill,
    J. Chem. Theory Comput. 13(7) pp 3185--3197 (2017).
    (doi: 10.1021/acs.jctc.7b00174)

    -----------------------------------------------------------------------


    Psi4 started on: Thursday, 20 August 2020 07:55PM

    Process ID: 422738
    PSIDATADIR: /home/irmler/Programs/psi4/beforeGrueneis3/stage/usr/local/psi4/share/psi4
    Memory:     500.0 MiB
    Threads:    4
    
  ==> Input File <==

--------------------------------------------------------------------------
# Any line starting with the # character is a comment line
memory 250000 mb
molecule molecule{
0 3
P          0.0000000000        0.0000000000        0.0446409825
H          0.0000000000        0.0000000000       -1.3718069306
}

set {
  reference uhf
  basis aug-cc-pv(d+d)z
  scf_type OUT_OF_CORE
  freeze_core true
}

energy('ccsd')
--------------------------------------------------------------------------

  Memory set to 232.831 GiB by Python driver.

*** tstart() called on cqc05
*** at Thu Aug 20 19:55:04 2020

   => Loading Basis Set <=

    Name: AUG-CC-PV(D+D)Z
    Role: ORBITAL
    Keyword: BASIS
    atoms 1 entry P          line   656 file /home/irmler/Programs/psi4/beforeGrueneis3/stage/usr/local/psi4/share/psi4/basis/aug-cc-pv_dpd_z.gbs 
    atoms 2 entry H          line    56 file /home/irmler/Programs/psi4/beforeGrueneis3/stage/usr/local/psi4/share/psi4/basis/aug-cc-pv_dpd_z.gbs 


         ---------------------------------------------------------
                                   SCF
            by Justin Turney, Rob Parrish, Andy Simmonett
                             and Daniel Smith
                              UHF Reference
                        4 Threads, 238418 MiB Core
         ---------------------------------------------------------

  ==> Geometry <==

    Molecular point group: c2v
    Full point group: C_inf_v

    Geometry (in Angstrom), charge = 0, multiplicity = 3:

       Center              X                  Y                   Z               Mass       
    ------------   -----------------  -----------------  -----------------  -----------------
           P          0.000000000000     0.000000000000     0.044636048817    30.973761629000
           H          0.000000000000     0.000000000000    -1.371811864283     1.007825032070

  Running in c2v symmetry.

  Rotational constants: A = ************  B =      8.60828  C =      8.60828 [cm^-1]
  Rotational constants: A = ************  B = 258069.62546  C = 258069.62546 [MHz]
  Nuclear repulsion =    5.603918121830440

  Charge       = 0
  Multiplicity = 3
  Electrons    = 16
  Nalpha       = 9
  Nbeta        = 7

  ==> Algorithm <==

  SCF Algorithm Type is OUT_OF_CORE.
  DIIS enabled.
  MOM disabled.
  Fractional occupation disabled.
  Guess Type is GWH.
  Energy threshold   = 1.00e-08
  Density threshold  = 1.00e-08
  Integral threshold = 0.00e+00

  ==> Primary Basis <==

  Basis Set: AUG-CC-PV(D+D)Z
    Blend: AUG-CC-PV(D+D)Z
    Number of shells: 17
    Number of basis function: 41
    Number of Cartesian functions: 44
    Spherical Harmonics?: true
    Max angular momentum: 2

  ==> Pre-Iterations <==

   -------------------------------------------------------
    Irrep   Nso     Nmo     Nalpha   Nbeta   Ndocc  Nsocc
   -------------------------------------------------------
     A1        20      20       0       0       0       0
     A2         3       3       0       0       0       0
     B1         9       9       0       0       0       0
     B2         9       9       0       0       0       0
   -------------------------------------------------------
    Total      41      41       9       7       7       2
   -------------------------------------------------------

  ==> Integral Setup <==

  ==> DiskJK: Disk-Based J/K Matrices <==

    J tasked:                  Yes
    K tasked:                  Yes
    wK tasked:                  No
    Memory (MB):            178813
    Schwarz Cutoff:          1E-12

  Minimum eigenvalue in the overlap matrix is 6.6713507403E-04.
  Using Symmetric Orthogonalization.

  SCF Guess: Generalized Wolfsberg-Helmholtz.

  ==> Iterations <==

                        Total Energy        Delta E     RMS |[F,P]|

    Occupation by irrep:
             A1    A2    B1    B2 
    DOCC [     5,    0,    1,    1 ]
    SOCC [     1,    0,    0,    1 ]

   @UHF iter   1:  -325.17822751473278   -3.25178e+02   2.43753e-01 
    Occupation by irrep:
             A1    A2    B1    B2 
    DOCC [     5,    0,    1,    1 ]
    SOCC [     0,    0,    1,    1 ]

   @UHF iter   2:  -338.04953641234931   -1.28713e+01   1.15935e-01 DIIS
   @UHF iter   3:  -341.22758476517191   -3.17805e+00   1.48468e-02 DIIS
   @UHF iter   4:  -341.28716006957427   -5.95753e-02   3.31704e-03 DIIS
   @UHF iter   5:  -341.28944576792031   -2.28570e-03   1.15275e-03 DIIS
   @UHF iter   6:  -341.28996219242475   -5.16425e-04   4.47803e-04 DIIS
   @UHF iter   7:  -341.29008023512625   -1.18043e-04   1.58036e-04 DIIS
   @UHF iter   8:  -341.29008983015746   -9.59503e-06   2.36797e-05 DIIS
   @UHF iter   9:  -341.29009011387274   -2.83715e-07   7.55352e-06 DIIS
   @UHF iter  10:  -341.29009015638132   -4.25086e-08   3.93254e-06 DIIS
   @UHF iter  11:  -341.29009017152299   -1.51417e-08   1.34748e-06 DIIS
   @UHF iter  12:  -341.29009017351785   -1.99486e-09   3.00671e-07 DIIS
   @UHF iter  13:  -341.29009017358931   -7.14522e-11   5.61874e-08 DIIS
   @UHF iter  14:  -341.29009017359118   -1.87583e-12   8.63279e-09 DIIS

  ==> Post-Iterations <==

   @Spin Contamination Metric:   2.615114894E-02
   @S^2 Expected:                2.000000000E+00
   @S^2 Observed:                2.026151149E+00
   @S   Expected:                1.000000000E+00
   @S   Observed:                1.000000000E+00

    Orbital Energies (a.u.)
    -----------------------

    Alpha Occupied:                                                       

       1A1   -79.974131     2A1    -7.515611     1B2    -5.416946  
       1B1    -5.416946     3A1    -5.402321     4A1    -0.853066  
       5A1    -0.476836     2B2    -0.385793     2B1    -0.385793  

    Alpha Virtual:                                                        

       6A1     0.041168     7A1     0.094928     3B2     0.101496  
       3B1     0.101496     8A1     0.151936     9A1     0.194396  
      10A1     0.259023     1A2     0.259023     4B1     0.260447  
       4B2     0.260447    11A1     0.402349     5B2     0.483624  
       5B1     0.483624    12A1     0.538770     6B2     0.690534  
       6B1     0.690534    13A1     0.734638    14A1     0.761915  
      15A1     0.822003     2A2     0.822003     7B2     0.832940  
       7B1     0.832940    16A1     1.109497    17A1     1.173510  
       8B2     1.887179     8B1     1.887179    18A1     2.280526  
      19A1     4.325537     3A2     4.325537     9B1     4.361329  
       9B2     4.361329    20A1     4.434255  

    Beta Occupied:                                                        

       1A1   -79.960869     2A1    -7.499974     3A1    -5.395326  
       1B1    -5.381603     1B2    -5.381603     4A1    -0.705003  
       5A1    -0.435184  

    Beta Virtual:                                                         

       2B1     0.026872     2B2     0.026872     6A1     0.044695  
       7A1     0.099014     3B1     0.145501     3B2     0.145501  
       8A1     0.168205     9A1     0.218745     4B2     0.298576  
       4B1     0.298576     1A2     0.333237    10A1     0.333237  
      11A1     0.417696     5B2     0.496543     5B1     0.496543  
      12A1     0.562601    13A1     0.743736     6B1     0.770532  
       6B2     0.770532    14A1     0.776725     7B1     0.883424  
       7B2     0.883424    15A1     0.921224     2A2     0.921224  
      16A1     1.126961    17A1     1.205717     8B1     1.892977  
       8B2     1.892977    18A1     2.288593    19A1     4.340565  
       3A2     4.340565     9B1     4.369838     9B2     4.369838  
      20A1     4.440429  

    Final Occupation by Irrep:
             A1    A2    B1    B2 
    DOCC [     5,    0,    1,    1 ]
    SOCC [     0,    0,    1,    1 ]

  Energy converged.

  @UHF Final Energy:  -341.29009017359118

   => Energetics <=

    Nuclear Repulsion Energy =              5.6039181218304401
    One-Electron Energy =                -483.2010123236520940
    Two-Electron Energy =                 136.3070040282304944
    PCM Polarization Energy =               0.0000000000000000
    Total Energy =                       -341.2900901735911816

    Alert: EFP and PCM quantities not currently incorporated into SCF psivars.
  UHF NO Occupations:
  HONO-2 :    5 A1 1.9876035
  HONO-1 :    2 B1 1.0000000
  HONO-0 :    2 B2 1.0000000
  LUNO+0 :    6 A1 0.0123965
  LUNO+1 :    7 A1 0.0007547
  LUNO+2 :    3 B2 0.0000007
  LUNO+3 :    3 B1 0.0000007



Properties will be evaluated at   0.000000,   0.000000,   0.000000 Bohr

Properties computed using the SCF density matrix

  Nuclear Dipole Moment: (a.u.)
     X:     0.0000      Y:     0.0000      Z:    -1.3271

  Electronic Dipole Moment: (a.u.)
     X:     0.0000      Y:     0.0000      Z:     1.1150

  Dipole Moment: (a.u.)
     X:     0.0000      Y:     0.0000      Z:    -0.2121     Total:     0.2121

  Dipole Moment: (Debye)
     X:     0.0000      Y:     0.0000      Z:    -0.5391     Total:     0.5391


*** tstop() called on cqc05 at Thu Aug 20 19:55:04 2020
Module time:
	user time   =       0.48 seconds =       0.01 minutes
	system time =       0.02 seconds =       0.00 minutes
	total time  =          0 seconds =       0.00 minutes
Total time:
	user time   =       0.48 seconds =       0.01 minutes
	system time =       0.02 seconds =       0.00 minutes
	total time  =          0 seconds =       0.00 minutes

*** tstart() called on cqc05
*** at Thu Aug 20 19:55:04 2020


	Wfn Parameters:
	--------------------
	Wavefunction         = CCSD
	Number of irreps     = 4
	Number of MOs        = 41
	Number of active MOs = 36
	AO-Basis             = NONE
	Semicanonical        = false
	Reference            = UHF
	Print Level          = 1

	IRREP	# MOs	# FZDC	# DOCC	# SOCC	# VIRT	# FZVR
	-----	-----	------	------	------	------	------
	 A1	   20	    3	    2	    0	    15	    0
	 A2	   3	    0	    0	    0	    3	    0
	 B1	   9	    1	    0	    1	    7	    0
	 B2	   9	    1	    0	    1	    7	    0
	Transforming integrals...
	IWL integrals will be deleted.
	(OO|OO)...
	Presorting SO-basis two-electron integrals.
	Sorting File: SO Ints (nn|nn) nbuckets = 1
	Transforming the one-electron integrals and constructing Fock matrices
	Starting AA/AB first half-transformation.
	Sorting AA/AB half-transformed integrals.
	Starting BB first half-transformation.
	Sorting BB half-transformed integrals.
	First half integral transformation complete.
	Starting AA second half-transformation.
	Starting AB second half-transformation.
	Starting BB second half-transformation.
	Two-electron integral transformation complete.
	(OO|OV)...
	Starting AA second half-transformation.
	Starting AB second half-transformation.
	Starting BB second half-transformation.
	Two-electron integral transformation complete.
	(OO|VV)...
	Starting AA second half-transformation.
	Starting AB second half-transformation.
	Starting BB second half-transformation.
	Two-electron integral transformation complete.
	(OV|OO)...
	Starting AA/AB first half-transformation.
	Sorting AA/AB half-transformed integrals.
	Starting BB first half-transformation.
	Sorting BB half-transformed integrals.
	First half integral transformation complete.
	Starting AA second half-transformation.
	Starting AB second half-transformation.
	Starting BB second half-transformation.
	Two-electron integral transformation complete.
	(OV|OV)...
	Starting AA second half-transformation.
	Starting AB second half-transformation.
	Starting BB second half-transformation.
	Two-electron integral transformation complete.
	(OV|VV)...
	Starting AA second half-transformation.
	Starting AB second half-transformation.
	Starting BB second half-transformation.
	Two-electron integral transformation complete.
	(VV|OO)...
	Starting AA/AB first half-transformation.
	Sorting AA/AB half-transformed integrals.
	Starting BB first half-transformation.
	Sorting BB half-transformed integrals.
	First half integral transformation complete.
	Starting AA second half-transformation.
	Starting AB second half-transformation.
	Starting BB second half-transformation.
	Two-electron integral transformation complete.
	(VV|OV)...
	Starting AA second half-transformation.
	Starting AB second half-transformation.
	Starting BB second half-transformation.
	Two-electron integral transformation complete.
	(VV|VV)...
	Starting AA second half-transformation.
	Starting AB second half-transformation.
	Starting BB second half-transformation.
	Two-electron integral transformation complete.
	Frozen core energy     =   -338.09236320537372

	Size of irrep 0 of <AB|CD> integrals:      0.022 (MW) /      0.180 (MB)
	Size of irrep 1 of <AB|CD> integrals:      0.009 (MW) /      0.071 (MB)
	Size of irrep 2 of <AB|CD> integrals:      0.016 (MW) /      0.127 (MB)
	Size of irrep 3 of <AB|CD> integrals:      0.016 (MW) /      0.127 (MB)
	Total:                                     0.063 (MW) /      0.505 (MB)

	Size of irrep 0 of <ab|cd> integrals:      0.027 (MW) /      0.215 (MB)
	Size of irrep 1 of <ab|cd> integrals:      0.012 (MW) /      0.095 (MB)
	Size of irrep 2 of <ab|cd> integrals:      0.021 (MW) /      0.166 (MB)
	Size of irrep 3 of <ab|cd> integrals:      0.021 (MW) /      0.166 (MB)
	Total:                                     0.080 (MW) /      0.642 (MB)

	Size of irrep 0 of <Ab|Cd> integrals:      0.120 (MW) /      0.958 (MB)
	Size of irrep 1 of <Ab|Cd> integrals:      0.041 (MW) /      0.326 (MB)
	Size of irrep 2 of <Ab|Cd> integrals:      0.073 (MW) /      0.583 (MB)
	Size of irrep 3 of <Ab|Cd> integrals:      0.073 (MW) /      0.583 (MB)
	Total:                                     0.306 (MW) /      2.451 (MB)

	Size of irrep 0 of <IA|BC> integrals:      0.015 (MW) /      0.117 (MB)
	Size of irrep 1 of <IA|BC> integrals:      0.004 (MW) /      0.030 (MB)
	Size of irrep 2 of <IA|BC> integrals:      0.008 (MW) /      0.065 (MB)
	Size of irrep 3 of <IA|BC> integrals:      0.008 (MW) /      0.065 (MB)
	Total:                                     0.034 (MW) /      0.276 (MB)

	Size of irrep 0 of <ia|bc> integrals:      0.011 (MW) /      0.087 (MB)
	Size of irrep 1 of <ia|bc> integrals:      0.001 (MW) /      0.010 (MB)
	Size of irrep 2 of <ia|bc> integrals:      0.005 (MW) /      0.037 (MB)
	Size of irrep 3 of <ia|bc> integrals:      0.005 (MW) /      0.037 (MB)
	Total:                                     0.021 (MW) /      0.171 (MB)

	Size of irrep 0 of <Ia|Bc> integrals:      0.016 (MW) /      0.127 (MB)
	Size of irrep 1 of <Ia|Bc> integrals:      0.004 (MW) /      0.036 (MB)
	Size of irrep 2 of <Ia|Bc> integrals:      0.009 (MW) /      0.073 (MB)
	Size of irrep 3 of <Ia|Bc> integrals:      0.009 (MW) /      0.073 (MB)
	Total:                                     0.039 (MW) /      0.310 (MB)

	Size of irrep 0 of <iA|bC> integrals:      0.010 (MW) /      0.083 (MB)
	Size of irrep 1 of <iA|bC> integrals:      0.001 (MW) /      0.010 (MB)
	Size of irrep 2 of <iA|bC> integrals:      0.004 (MW) /      0.030 (MB)
	Size of irrep 3 of <iA|bC> integrals:      0.004 (MW) /      0.030 (MB)
	Total:                                     0.019 (MW) /      0.153 (MB)

	Size of irrep 0 of tIjAb amplitudes:       0.001 (MW) /      0.011 (MB)
	Size of irrep 1 of tIjAb amplitudes:       0.000 (MW) /      0.000 (MB)
	Size of irrep 2 of tIjAb amplitudes:       0.001 (MW) /      0.004 (MB)
	Size of irrep 3 of tIjAb amplitudes:       0.001 (MW) /      0.004 (MB)
	Total:                                     0.002 (MW) /      0.020 (MB)

	Nuclear Rep. energy          =      5.60391812183044
	SCF energy                   =   -341.29009017359118
	One-electron energy          =    -14.36161505636497
	Two-electron (AA) energy     =      1.99459316136122
	Two-electron (BB) energy     =      0.29932132879506
	Two-electron (AB) energy     =      3.26605547616091
	Two-electron energy          =      5.55996996631719
	Reference energy             =   -341.29009017359107

*** tstop() called on cqc05 at Thu Aug 20 19:55:04 2020
Module time:
	user time   =       0.11 seconds =       0.00 minutes
	system time =       0.07 seconds =       0.00 minutes
	total time  =          0 seconds =       0.00 minutes
Total time:
	user time   =       0.59 seconds =       0.01 minutes
	system time =       0.09 seconds =       0.00 minutes
	total time  =          0 seconds =       0.00 minutes

*** tstart() called on cqc05
*** at Thu Aug 20 19:55:04 2020

            **************************
            *                        *
            *        CCENERGY        *
            *                        *
            **************************

    Nuclear Rep. energy (wfn)     =    5.603918121830440
    SCF energy          (wfn)     = -341.290090173591182
    Reference energy    (file100) = -341.290090173591068

    Input parameters:
    -----------------
    Wave function   =     CCSD
    Reference wfn   =     UHF
    Brueckner       =     No
    Memory (Mbytes) =     250000.0
    Maxiter         =     50
    R_Convergence   =     1.0e-07
    E_Convergence   =     1.0e-06
    Restart         =     Yes
    DIIS            =     Yes
    AO Basis        =     NONE
    ABCD            =     NEW
    Cache Level     =     2
    Cache Type      =     LRU
    Print Level     =     1
    Num. of threads =     4
    # Amps to Print =     10
    Print MP2 Amps? =     No
    Analyze T2 Amps =     No
    Print Pair Ener =     No
    Local CC        =     No
    SCS-MP2         =     False
    SCSN-MP2        =     False
    SCS-CCSD        =     False

MP2 correlation energy -0.0868800169770222
                Solving CC Amplitude Equations
                ------------------------------
  Iter             Energy              RMS        T1Diag      D1Diag    New D1Diag    D2Diag
  ----     ---------------------    ---------   ----------  ----------  ----------   --------
     0        -0.086880016977023    0.000e+00    0.000000    0.000000    0.000000    0.000000
     1        -0.104156134768721    5.495e-02    0.010546    0.000000    0.000000    0.000000
     2        -0.110798191837222    2.262e-02    0.019313    0.000000    0.000000    0.000000
     3        -0.111283221205944    6.940e-03    0.023270    0.000000    0.000000    0.000000
     4        -0.111324371036616    1.744e-03    0.024006    0.000000    0.000000    0.000000
     5        -0.111317006966997    6.825e-04    0.024247    0.000000    0.000000    0.000000
     6        -0.111314638932615    2.455e-04    0.024290    0.000000    0.000000    0.000000
     7        -0.111319139495393    7.589e-05    0.024306    0.000000    0.000000    0.000000
     8        -0.111318271907421    2.960e-05    0.024308    0.000000    0.000000    0.000000
     9        -0.111318002085806    1.194e-05    0.024308    0.000000    0.000000    0.000000
    10        -0.111317941027947    4.073e-06    0.024309    0.000000    0.000000    0.000000
    11        -0.111318002379375    9.120e-07    0.024309    0.000000    0.000000    0.000000
    12        -0.111317997511171    2.781e-07    0.024309    0.000000    0.000000    0.000000
    13        -0.111317992376863    9.968e-08    0.024309    0.000000    0.000000    0.000000
    13        -0.111317992376863    9.968e-08    0.024309    0.000000    0.000000    0.000000

    Iterations converged.


    CCSD corr. energy   =   -0.111317992376863
    PPL corr. energy    =    0.029625037845164
    OS PPL corr. energy =    0.025149752933819
    SS PPL corr. energy =    0.004475284911343
    Largest TIA Amplitudes:
              1   3         0.0193988995
              1   2         0.0133355975
              1   5        -0.0125555170
              3  26        -0.0075201696
              2  19        -0.0075201087
              1  11        -0.0074166986
              1  10         0.0070293643
              1   7         0.0070283620
              2  18         0.0058835954
              3  25         0.0058835806

    Largest Tia Amplitudes:
              1   3        -0.0282370555
              0   3         0.0281859055
              0   7        -0.0103485168
              0   5         0.0090083550
              0   6        -0.0088292678
              0   2         0.0084053642
              1   7         0.0079280637
              1   2        -0.0071720087
              0   1        -0.0068826789
              1   0        -0.0068690720

    Largest TIJAB Amplitudes:
      3   2  15   4        -0.0454864229
      3   1  26   3        -0.0349966584
      2   1  19   3        -0.0349966543
      3   2  26  19        -0.0259997285
      3   2  15   9        -0.0239125193
      3   2  16   4        -0.0239125193
      3   2  16   9        -0.0226071042
      3   2  28  21        -0.0217773652
      2   1  19   2        -0.0202144026
      3   1  26   2        -0.0202144017

    Largest Tijab Amplitudes:
      1   0  20  18         0.0118483048
      1   0  28  26         0.0118483045
      1   0  28  27         0.0096268701
      1   0  20  19         0.0096268698
      1   0   5   3         0.0085169994
      1   0  23  18        -0.0076874499
      1   0  31  26        -0.0076874497
      1   0  31  27        -0.0069645849
      1   0  23  19        -0.0069645847
      1   0   3   1         0.0068561805

    Largest TIjAb Amplitudes:
      1   1   3   3        -0.0820106769
      1   1   3   7         0.0378989777
      1   1   7   7         0.0373984129
      2   0   4  18         0.0368884688
      3   0  15  18         0.0368884677
      2   0  15  26         0.0368884671
      3   0   4  26        -0.0368884660
      2   1  15  26        -0.0345639762
      3   1   4  26         0.0345639749
      2   1   4  18        -0.0345639729

    SCF energy       (wfn)                    = -341.290090173591182
    Reference energy (file100)                = -341.290090173591068

    Opposite-spin MP2 correlation energy      =   -0.067912127872948
    Same-spin MP2 correlation energy          =   -0.018967889104062
    MP2 correlation energy                    =   -0.086880016977022
      * MP2 total energy                      = -341.376970190568102

    Opposite-spin CCSD correlation energy     =   -0.090505391882603
    Same-spin CCSD correlation energy         =   -0.020812603179777
    CCSD correlation energy                   =   -0.111317992376863
      * CCSD total energy                     = -341.401408165967950


*** tstop() called on cqc05 at Thu Aug 20 19:55:06 2020
Module time:
	user time   =       0.18 seconds =       0.00 minutes
	system time =       0.18 seconds =       0.00 minutes
	total time  =          2 seconds =       0.03 minutes
Total time:
	user time   =       0.77 seconds =       0.01 minutes
	system time =       0.27 seconds =       0.00 minutes
	total time  =          2 seconds =       0.03 minutes

*** Psi4 exiting successfully. Buy a developer a beer!
