
    -----------------------------------------------------------------------
          Psi4: An Open-Source Ab Initio Electronic Structure Package
                               Psi4 1.4a3.dev88 

                         Git: Rev {master} 262e345 


    D. G. A. Smith, L. A. Burns, A. C. Simmonett, R. M. Parrish,
    M. C. Schieber, R. Galvelis, P. Kraus, H. Kruse, R. Di Remigio,
    A. Alenaizan, A. M. James, S. Lehtola, J. P. Misiewicz, M. Scheurer,
    R. A. Shaw, J. B. Schriber, Y. Xie, Z. L. Glick, D. A. Sirianni,
    J. S. O'Brien, J. M. Waldrop, A. Kumar, E. G. Hohenstein,
    B. P. Pritchard, B. R. Brooks, H. F. Schaefer III, A. Yu. Sokolov,
    K. Patkowski, A. E. DePrince III, U. Bozkaya, R. A. King,
    F. A. Evangelista, J. M. Turney, T. D. Crawford, C. D. Sherrill,
    J. Chem. Phys. 152(18) 184108 (2020). https://doi.org/10.1063/5.0006002

                            Additional Code Authors
    E. T. Seidl, C. L. Janssen, E. F. Valeev, M. L. Leininger,
    J. F. Gonthier, R. M. Richard, H. R. McAlexander, M. Saitow, X. Wang,
    P. Verma, and M. H. Lechner

             Previous Authors, Complete List of Code Contributors,
                       and Citations for Specific Modules
    https://github.com/psi4/psi4/blob/master/codemeta.json
    https://github.com/psi4/psi4/graphs/contributors
    http://psicode.org/psi4manual/master/introduction.html#citing-psifour

    -----------------------------------------------------------------------


    Psi4 started on: Tuesday, 26 January 2021 06:05PM

    Process ID: 401405
    Host:       n412-040.vsc4.prov
    PSIDATADIR: /home/fs71337/gallo4/psi4/eri-6/psi4/build/stage/share/psi4
    Memory:     500.0 MiB
    Threads:    48
    
  ==> Input File <==

--------------------------------------------------------------------------
# Any line starting with the # character is a comment line
memory 250000 mb
molecule molecule{
0 2
F          0.0000000000        0.0000000000        0.0000000000
}

set {
  reference uhf
  basis aug-cc-pV(t+d)Z
  scf_type OUT_OF_CORE
  freeze_core true
}

energy('ccsd(t)')
--------------------------------------------------------------------------

  Memory set to 232.831 GiB by Python driver.

Scratch directory: /binfl/lv71337/airmler/temp/

*** tstart() called on n412-040.vsc4.prov
*** at Tue Jan 26 18:05:02 2021

   => Loading Basis Set <=

    Name: AUG-CC-PV(T+D)Z
    Role: ORBITAL
    Keyword: BASIS
    atoms 1 entry F          line   405 file /home/fs71337/gallo4/psi4/eri-6/psi4/build/stage/share/psi4/basis/aug-cc-pv_tpd_z.gbs 


         ---------------------------------------------------------
                                   SCF
               by Justin Turney, Rob Parrish, Andy Simmonett
                          and Daniel G. A. Smith
                              UHF Reference
                       48 Threads, 238418 MiB Core
         ---------------------------------------------------------

  ==> Geometry <==

    Molecular point group: d2h
    Geometry (in Angstrom), charge = 0, multiplicity = 2:

       Center              X                  Y                   Z               Mass       
    ------------   -----------------  -----------------  -----------------  -----------------
         F            0.000000000000     0.000000000000     0.000000000000    18.998403162730

  Running in d2h symmetry.

  Rotational constants: A = ************  B = ************  C = ************ [cm^-1]
  Rotational constants: A = ************  B = ************  C = ************ [MHz]
  Nuclear repulsion =    0.000000000000000

  Charge       = 0
  Multiplicity = 2
  Electrons    = 9
  Nalpha       = 5
  Nbeta        = 4

  ==> Algorithm <==

  SCF Algorithm Type is OUT_OF_CORE.
  DIIS enabled.
  MOM disabled.
  Fractional occupation disabled.
  Guess Type is CORE.
  Energy threshold   = 1.00e-08
  Density threshold  = 1.00e-08
  Integral threshold = 1.00e-12

  ==> Primary Basis <==

  Basis Set: AUG-CC-PV(T+D)Z
    Blend: AUG-CC-PV(T+D)Z
    Number of shells: 14
    Number of basis function: 46
    Number of Cartesian functions: 55
    Spherical Harmonics?: true
    Max angular momentum: 3

  ==> Integral Setup <==

  ==> DiskJK: Disk-Based J/K Matrices <==

    J tasked:                  Yes
    K tasked:                  Yes
    wK tasked:                  No
    Memory [MiB]:           178813
    Schwarz Cutoff:          1E-12

  Minimum eigenvalue in the overlap matrix is 2.8456599490E-02.
  Reciprocal condition number of the overlap matrix is 1.0693255427E-02.
    Using symmetric orthogonalization.

  ==> Pre-Iterations <==

  SCF Guess: Core (One-Electron) Hamiltonian.

   -------------------------------------------------------
    Irrep   Nso     Nmo     Nalpha   Nbeta   Ndocc  Nsocc
   -------------------------------------------------------
     Ag        11      11       2       2       2       0
     B1g        3       3       0       0       0       0
     B2g        3       3       0       0       0       0
     B3g        3       3       0       0       0       0
     Au         2       2       0       0       0       0
     B1u        8       8       1       1       1       0
     B2u        8       8       1       0       0       1
     B3u        8       8       1       1       1       0
   -------------------------------------------------------
    Total      46      46       5       4       4       1
   -------------------------------------------------------

  ==> Iterations <==

                        Total Energy        Delta E     RMS |[F,P]|

   @UHF iter   1:   -88.96878560411039   -8.89688e+01   3.99216e-01 DIIS
   @UHF iter   2:   -89.97169356458379   -1.00291e+00   1.63551e-01 DIIS
   @UHF iter   3:   -98.12278680076791   -8.15109e+00   1.26428e-01 DIIS
   @UHF iter   4:   -99.29109949930432   -1.16831e+00   3.18154e-02 DIIS
   @UHF iter   5:   -99.40639586516586   -1.15296e-01   1.55259e-03 DIIS
   @UHF iter   6:   -99.40686470947217   -4.68844e-04   3.53784e-04 DIIS
   @UHF iter   7:   -99.40687824532500   -1.35359e-05   6.00472e-05 DIIS
   @UHF iter   8:   -99.40687925743842   -1.01211e-06   1.70891e-05 DIIS
   @UHF iter   9:   -99.40687935172673   -9.42883e-08   2.10477e-06 DIIS
   @UHF iter  10:   -99.40687935282074   -1.09401e-09   3.40700e-07 DIIS
   @UHF iter  11:   -99.40687935285185   -3.11076e-11   1.04359e-07 DIIS
   @UHF iter  12:   -99.40687935285298   -1.13687e-12   9.34198e-09 DIIS
  Energy and wave function converged.


  ==> Post-Iterations <==

   @Spin Contamination Metric:   4.134125160E-03
   @S^2 Expected:                7.500000000E-01
   @S^2 Observed:                7.541341252E-01
   @S   Expected:                5.000000000E-01
   @S   Observed:                5.000000000E-01

    Orbital Energies [Eh]
    ---------------------

    Alpha Occupied:                                                       

       1Ag   -26.411561     2Ag    -1.674493     1B2u   -0.845500  
       1B1u   -0.732072     1B3u   -0.732072  

    Alpha Virtual:                                                        

       2B2u    0.186086     3Ag     0.194557     2B1u    0.196065  
       2B3u    0.196065     4Ag     0.848024     1B3g    0.854541  
       1B1g    0.854541     1B2g    0.874641     5Ag     0.874641  
       3B2u    1.060507     3B3u    1.108875     3B1u    1.108875  
       6Ag     1.594954     7Ag     2.743894     2B1g    2.761301  
       2B3g    2.761301     2B2g    2.816901     8Ag     2.816901  
       4B2u    2.856872     4B1u    2.862385     4B3u    2.862385  
       5B2u    2.879006     1Au     2.879006     5B3u    2.907089  
       5B1u    2.907089     6B2u    5.062740     6B3u    5.148564  
       6B1u    5.148564     7B2u    8.680605     7B1u    8.691203  
       7B3u    8.691203     8B2u    8.723194     2Au     8.723194  
       8B1u    8.777239     8B3u    8.777239     9Ag     9.117234  
       3B1g    9.142964     3B3g    9.142964    10Ag     9.220617  
       3B2g    9.220617    11Ag    10.428491  

    Beta Occupied:                                                        

       1Ag   -26.363540     2Ag    -1.479256     1B1u   -0.680290  
       1B3u   -0.680290  

    Beta Virtual:                                                         

       1B2u    0.035548     2B1u    0.198143     2B3u    0.198143  
       3Ag     0.201843     2B2u    0.244415     4Ag     0.872810  
       1B2g    0.872810     1B3g    0.874905     1B1g    0.874905  
       5Ag     0.876031     3B3u    1.124173     3B1u    1.124173  
       3B2u    1.210800     6Ag     1.639246     2B2g    2.825955  
       7Ag     2.825955     2B1g    2.849157     2B3g    2.849157  
       8Ag     2.857982     4B2u    2.885309     4B1u    2.887627  
       4B3u    2.887627     1Au     2.894559     5B2u    2.894559  
       5B3u    2.906019     5B1u    2.906019     6B3u    5.175345  
       6B1u    5.175345     6B2u    5.239256     7B2u    8.753379  
       7B1u    8.756862     7B3u    8.756862     8B2u    8.767279  
       2Au     8.767279     8B1u    8.784535     8B3u    8.784535  
       9Ag     9.241911     3B2g    9.241911     3B1g    9.253089  
       3B3g    9.253089    10Ag     9.257113    11Ag    10.478270  

    Final Occupation by Irrep:
             Ag   B1g   B2g   B3g    Au   B1u   B2u   B3u 
    DOCC [     2,    0,    0,    0,    0,    1,    0,    1 ]
    SOCC [     0,    0,    0,    0,    0,    0,    1,    0 ]

  @UHF Final Energy:   -99.40687935285298

   => Energetics <=

    Nuclear Repulsion Energy =              0.0000000000000000
    One-Electron Energy =                -139.2146840344130396
    Two-Electron Energy =                  39.8078046815600572
    Total Energy =                        -99.4068793528529824

  UHF NO Occupations:
  HONO-2 :    1B1u 1.9996642
  HONO-1 :    2 Ag 1.9986045
  HONO-0 :    1B2u 1.0000000
  LUNO+0 :    3 Ag 0.0013955
  LUNO+1 :    2B3u 0.0003358
  LUNO+2 :    2B1u 0.0003358
  LUNO+3 :    4 Ag 0.0000010


Computation Completed


Properties will be evaluated at   0.000000,   0.000000,   0.000000 [a0]

Properties computed using the SCF density matrix

  Nuclear Dipole Moment: [e a0]
     X:     0.0000      Y:     0.0000      Z:     0.0000

  Electronic Dipole Moment: [e a0]
     X:     0.0000      Y:     0.0000      Z:     0.0000

  Dipole Moment: [e a0]
     X:     0.0000      Y:     0.0000      Z:     0.0000     Total:     0.0000

  Dipole Moment: [D]
     X:     0.0000      Y:     0.0000      Z:     0.0000     Total:     0.0000


*** tstop() called on n412-040.vsc4.prov at Tue Jan 26 18:05:03 2021
Module time:
	user time   =       8.60 seconds =       0.14 minutes
	system time =       0.23 seconds =       0.00 minutes
	total time  =          1 seconds =       0.02 minutes
Total time:
	user time   =       8.60 seconds =       0.14 minutes
	system time =       0.23 seconds =       0.00 minutes
	total time  =          1 seconds =       0.02 minutes

*** tstart() called on n412-040.vsc4.prov
*** at Tue Jan 26 18:05:03 2021


	Wfn Parameters:
	--------------------
	Wavefunction         = CCSD_T
	Number of irreps     = 8
	Number of MOs        = 46
	Number of active MOs = 45
	AO-Basis             = NONE
	Semicanonical        = false
	Reference            = UHF
	Print Level          = 1

	IRREP	# MOs	# FZDC	# DOCC	# SOCC	# VIRT	# FZVR
	-----	-----	------	------	------	------	------
	 Ag	   11	    1	    1	    0	    9	    0
	 B1g	   3	    0	    0	    0	    3	    0
	 B2g	   3	    0	    0	    0	    3	    0
	 B3g	   3	    0	    0	    0	    3	    0
	 Au	   2	    0	    0	    0	    2	    0
	 B1u	   8	    0	    1	    0	    7	    0
	 B2u	   8	    0	    0	    1	    7	    0
	 B3u	   8	    0	    1	    0	    7	    0
	Transforming integrals...
	IWL integrals will be deleted.
	(OO|OO)...
	Presorting SO-basis two-electron integrals.
	Sorting File: SO Ints (nn|nn) nbuckets = 1
	Constructing frozen core operators
	Starting AA/AB first half-transformation.
	Sorting AA/AB half-transformed integrals.
	Starting BB first half-transformation.
	Sorting BB half-transformed integrals.
	First half integral transformation complete.
	Starting AA second half-transformation.
	Starting AB second half-transformation.
	Starting BB second half-transformation.
	Two-electron integral transformation complete.
	(OO|OV)...
	Starting AA second half-transformation.
	Starting AB second half-transformation.
	Starting BB second half-transformation.
	Two-electron integral transformation complete.
	(OO|VV)...
	Starting AA second half-transformation.
	Starting AB second half-transformation.
	Starting BB second half-transformation.
	Two-electron integral transformation complete.
	(OV|OO)...
	Starting AA/AB first half-transformation.
	Sorting AA/AB half-transformed integrals.
	Starting BB first half-transformation.
	Sorting BB half-transformed integrals.
	First half integral transformation complete.
	Starting AA second half-transformation.
	Starting AB second half-transformation.
	Starting BB second half-transformation.
	Two-electron integral transformation complete.
	(OV|OV)...
	Starting AA second half-transformation.
	Starting AB second half-transformation.
	Starting BB second half-transformation.
	Two-electron integral transformation complete.
	(OV|VV)...
	Starting AA second half-transformation.
	Starting AB second half-transformation.
	Starting BB second half-transformation.
	Two-electron integral transformation complete.
	(VV|OO)...
	Starting AA/AB first half-transformation.
	Sorting AA/AB half-transformed integrals.
	Starting BB first half-transformation.
	Sorting BB half-transformed integrals.
	First half integral transformation complete.
	Starting AA second half-transformation.
	Starting AB second half-transformation.
	Starting BB second half-transformation.
	Two-electron integral transformation complete.
	(VV|OV)...
	Starting AA second half-transformation.
	Starting AB second half-transformation.
	Starting BB second half-transformation.
	Two-electron integral transformation complete.
	(VV|VV)...
	Starting AA second half-transformation.
	Starting AB second half-transformation.
	Starting BB second half-transformation.
	Two-electron integral transformation complete.
	Frozen core energy     =    -75.47789285567966

	Size of irrep 0 of <AB|CD> integrals:      0.012 (MW) /      0.095 (MB)
	Size of irrep 1 of <AB|CD> integrals:      0.010 (MW) /      0.078 (MB)
	Size of irrep 2 of <AB|CD> integrals:      0.010 (MW) /      0.078 (MB)
	Size of irrep 3 of <AB|CD> integrals:      0.010 (MW) /      0.078 (MB)
	Size of irrep 4 of <AB|CD> integrals:      0.007 (MW) /      0.052 (MB)
	Size of irrep 5 of <AB|CD> integrals:      0.012 (MW) /      0.099 (MB)
	Size of irrep 6 of <AB|CD> integrals:      0.012 (MW) /      0.099 (MB)
	Size of irrep 7 of <AB|CD> integrals:      0.012 (MW) /      0.099 (MB)
	Total:                                     0.085 (MW) /      0.678 (MB)

	Size of irrep 0 of <ab|cd> integrals:      0.013 (MW) /      0.108 (MB)
	Size of irrep 1 of <ab|cd> integrals:      0.011 (MW) /      0.090 (MB)
	Size of irrep 2 of <ab|cd> integrals:      0.010 (MW) /      0.082 (MB)
	Size of irrep 3 of <ab|cd> integrals:      0.011 (MW) /      0.090 (MB)
	Size of irrep 4 of <ab|cd> integrals:      0.007 (MW) /      0.056 (MB)
	Size of irrep 5 of <ab|cd> integrals:      0.013 (MW) /      0.104 (MB)
	Size of irrep 6 of <ab|cd> integrals:      0.014 (MW) /      0.115 (MB)
	Size of irrep 7 of <ab|cd> integrals:      0.013 (MW) /      0.104 (MB)
	Total:                                     0.094 (MW) /      0.749 (MB)

	Size of irrep 0 of <Ab|Cd> integrals:      0.071 (MW) /      0.566 (MB)
	Size of irrep 1 of <Ab|Cd> integrals:      0.042 (MW) /      0.336 (MB)
	Size of irrep 2 of <Ab|Cd> integrals:      0.040 (MW) /      0.320 (MB)
	Size of irrep 3 of <Ab|Cd> integrals:      0.042 (MW) /      0.336 (MB)
	Size of irrep 4 of <Ab|Cd> integrals:      0.027 (MW) /      0.218 (MB)
	Size of irrep 5 of <Ab|Cd> integrals:      0.051 (MW) /      0.405 (MB)
	Size of irrep 6 of <Ab|Cd> integrals:      0.053 (MW) /      0.427 (MB)
	Size of irrep 7 of <Ab|Cd> integrals:      0.051 (MW) /      0.405 (MB)
	Total:                                     0.377 (MW) /      3.013 (MB)

	Size of irrep 0 of <IA|BC> integrals:      0.008 (MW) /      0.062 (MB)
	Size of irrep 1 of <IA|BC> integrals:      0.004 (MW) /      0.030 (MB)
	Size of irrep 2 of <IA|BC> integrals:      0.004 (MW) /      0.030 (MB)
	Size of irrep 3 of <IA|BC> integrals:      0.004 (MW) /      0.030 (MB)
	Size of irrep 4 of <IA|BC> integrals:      0.002 (MW) /      0.014 (MB)
	Size of irrep 5 of <IA|BC> integrals:      0.005 (MW) /      0.039 (MB)
	Size of irrep 6 of <IA|BC> integrals:      0.005 (MW) /      0.039 (MB)
	Size of irrep 7 of <IA|BC> integrals:      0.005 (MW) /      0.039 (MB)
	Total:                                     0.035 (MW) /      0.284 (MB)

	Size of irrep 0 of <ia|bc> integrals:      0.006 (MW) /      0.050 (MB)
	Size of irrep 1 of <ia|bc> integrals:      0.003 (MW) /      0.022 (MB)
	Size of irrep 2 of <ia|bc> integrals:      0.003 (MW) /      0.027 (MB)
	Size of irrep 3 of <ia|bc> integrals:      0.003 (MW) /      0.022 (MB)
	Size of irrep 4 of <ia|bc> integrals:      0.001 (MW) /      0.011 (MB)
	Size of irrep 5 of <ia|bc> integrals:      0.004 (MW) /      0.035 (MB)
	Size of irrep 6 of <ia|bc> integrals:      0.003 (MW) /      0.027 (MB)
	Size of irrep 7 of <ia|bc> integrals:      0.004 (MW) /      0.035 (MB)
	Total:                                     0.029 (MW) /      0.229 (MB)

	Size of irrep 0 of <Ia|Bc> integrals:      0.008 (MW) /      0.066 (MB)
	Size of irrep 1 of <Ia|Bc> integrals:      0.004 (MW) /      0.033 (MB)
	Size of irrep 2 of <Ia|Bc> integrals:      0.004 (MW) /      0.030 (MB)
	Size of irrep 3 of <Ia|Bc> integrals:      0.004 (MW) /      0.033 (MB)
	Size of irrep 4 of <Ia|Bc> integrals:      0.002 (MW) /      0.015 (MB)
	Size of irrep 5 of <Ia|Bc> integrals:      0.005 (MW) /      0.040 (MB)
	Size of irrep 6 of <Ia|Bc> integrals:      0.005 (MW) /      0.043 (MB)
	Size of irrep 7 of <Ia|Bc> integrals:      0.005 (MW) /      0.040 (MB)
	Total:                                     0.037 (MW) /      0.298 (MB)

	Size of irrep 0 of <iA|bC> integrals:      0.006 (MW) /      0.049 (MB)
	Size of irrep 1 of <iA|bC> integrals:      0.002 (MW) /      0.020 (MB)
	Size of irrep 2 of <iA|bC> integrals:      0.003 (MW) /      0.027 (MB)
	Size of irrep 3 of <iA|bC> integrals:      0.002 (MW) /      0.020 (MB)
	Size of irrep 4 of <iA|bC> integrals:      0.001 (MW) /      0.011 (MB)
	Size of irrep 5 of <iA|bC> integrals:      0.004 (MW) /      0.034 (MB)
	Size of irrep 6 of <iA|bC> integrals:      0.003 (MW) /      0.024 (MB)
	Size of irrep 7 of <iA|bC> integrals:      0.004 (MW) /      0.034 (MB)
	Total:                                     0.027 (MW) /      0.218 (MB)

	Size of irrep 0 of tIjAb amplitudes:       0.001 (MW) /      0.006 (MB)
	Size of irrep 1 of tIjAb amplitudes:       0.000 (MW) /      0.002 (MB)
	Size of irrep 2 of tIjAb amplitudes:       0.000 (MW) /      0.003 (MB)
	Size of irrep 3 of tIjAb amplitudes:       0.000 (MW) /      0.002 (MB)
	Size of irrep 4 of tIjAb amplitudes:       0.000 (MW) /      0.000 (MB)
	Size of irrep 5 of tIjAb amplitudes:       0.000 (MW) /      0.004 (MB)
	Size of irrep 6 of tIjAb amplitudes:       0.000 (MW) /      0.002 (MB)
	Size of irrep 7 of tIjAb amplitudes:       0.000 (MW) /      0.004 (MB)
	Total:                                     0.003 (MW) /      0.022 (MB)

	Nuclear Rep. energy          =      0.00000000000000
	SCF energy                   =    -99.40687935285298
	One-electron energy          =    -41.03399982587180
	Two-electron (AA) energy     =      4.51420947224758
	Two-electron (BB) energy     =      2.14926232837870
	Two-electron (AB) energy     =     10.44154152807210
	Two-electron energy          =     17.10501332869838
	Reference energy             =    -99.40687935285308

*** tstop() called on n412-040.vsc4.prov at Tue Jan 26 18:05:05 2021
Module time:
	user time   =       0.10 seconds =       0.00 minutes
	system time =       0.22 seconds =       0.00 minutes
	total time  =          2 seconds =       0.03 minutes
Total time:
	user time   =       8.71 seconds =       0.15 minutes
	system time =       0.45 seconds =       0.01 minutes
	total time  =          3 seconds =       0.05 minutes
            **************************
            *                        *
            *        CCENERGY        *
            *                        *
            **************************

    Nuclear Rep. energy (wfn)     =    0.000000000000000
    SCF energy          (wfn)     =  -99.406879352852982
    Reference energy    (file100) =  -99.406879352853082

    Input parameters:
    -----------------
    Wave function   =     CCSD_T
    Reference wfn   =     UHF
    Brueckner       =     No
    Memory (Mbytes) =     250000.0
    Maxiter         =     50
    R_Convergence   =     1.0e-07
    E_Convergence   =     1.0e-06
    Restart         =     Yes
    DIIS            =     Yes
    AO Basis        =     NONE
    ABCD            =     NEW
    Cache Level     =     2
    Cache Type      =     LRU
    Print Level     =     1
    Num. of threads =     48
    # Amps to Print =     10
    Print MP2 Amps? =     No
    Analyze T2 Amps =     No
    Print Pair Ener =     No
    Local CC        =     No
    SCS-MP2         =     False
    SCSN-MP2        =     False
    SCS-CCSD        =     False

MP2 correlation energy -0.2052268293396107
                Solving CC Amplitude Equations
                ------------------------------
  Iter             Energy              RMS        T1Diag      D1Diag    New D1Diag    D2Diag
  ----     ---------------------    ---------   ----------  ----------  ----------   --------
     0        -0.205226829339611    0.000e+00    0.000000    0.000000    0.000000    0.000000
     1        -0.213011995158428    3.029e-02    0.008707    0.000000    0.000000    0.000000
     2        -0.215932419939720    8.457e-03    0.009435    0.000000    0.000000    0.000000
     3        -0.216616698197937    4.290e-03    0.010686    0.000000    0.000000    0.000000
     4        -0.216548890769850    1.471e-03    0.010887    0.000000    0.000000    0.000000
     5        -0.216562767735158    5.519e-04    0.010896    0.000000    0.000000    0.000000
     6        -0.216574224638496    1.579e-04    0.010880    0.000000    0.000000    0.000000
     7        -0.216573082696688    4.359e-05    0.010873    0.000000    0.000000    0.000000
     8        -0.216573158883286    1.181e-05    0.010874    0.000000    0.000000    0.000000
     9        -0.216573042341879    3.636e-06    0.010875    0.000000    0.000000    0.000000
    10        -0.216573076837631    1.040e-06    0.010875    0.000000    0.000000    0.000000
    11        -0.216573085542499    2.361e-07    0.010875    0.000000    0.000000    0.000000
    12        -0.216573088187999    6.558e-08    0.010875    0.000000    0.000000    0.000000

    Iterations converged.


    Largest TIA Amplitudes:
              2  27        -0.0107158477
              1  20        -0.0106760980
              3  34        -0.0106760980
              2  28        -0.0058824258
              0   0         0.0057405956
              1  21        -0.0051910929
              3  35        -0.0051910929
              1  24         0.0034178853
              3  38         0.0034178853
              2  31         0.0032063953

    Largest Tia Amplitudes:
              1  20        -0.0098468476
              2  35        -0.0098468476
              0   5         0.0054066214
              0   2        -0.0045154052
              1  24         0.0042847238
              2  39         0.0042847238
              0   0         0.0030446372
              1  21        -0.0029287231
              2  36        -0.0029287231
              0   8        -0.0016718158

    Largest TIJAB Amplitudes:
      3   1  35  21        -0.0178739468
      3   2  35  28        -0.0178031557
      2   1  28  21        -0.0178031557
      3   1  13   5        -0.0132647622
      3   2  10   4        -0.0110641273
      2   1  16   4         0.0110641273
      1   0  21   3        -0.0100747647
      3   0  35   3        -0.0100747647
      2   0  28   3        -0.0099301821
      3   1  34  21        -0.0096116935

    Largest Tijab Amplitudes:
      2   1  36  21        -0.0182922343
      2   1  13   4        -0.0130493230
      2   1  35  21        -0.0104278017
      2   1  36  20        -0.0104278017
      1   0  21   3        -0.0097504983
      2   0  36   3        -0.0097504983
      2   1  12   1        -0.0096513553
      1   0  27  16         0.0091511711
      2   0  27  10         0.0091511711
      1   0  27  15         0.0089602482

    Largest TIjAb Amplitudes:
      1   1  21  21        -0.0333491293
      3   2  35  36        -0.0333491293
      1   2  21  36        -0.0237905693
      3   1  35  21        -0.0237905693
      2   2  28  36        -0.0233281971
      2   1  28  21        -0.0233281971
      2   0   4  27        -0.0219286709
      0   1   3  21        -0.0191665844
      0   2   3  36        -0.0191665844
      1   0  16  27        -0.0190106901

    SCF energy       (wfn)                    =  -99.406879352852982
    Reference energy (file100)                =  -99.406879352853082

    Opposite-spin MP2 correlation energy      =   -0.155549471009418
    Same-spin MP2 correlation energy          =   -0.049677358330193
    Singles MP2 correlation energy            =   -0.000000000000000
    MP2 correlation energy                    =   -0.205226829339611
      * MP2 total energy                      =  -99.612106182192690

    Opposite-spin CCSD correlation energy     =   -0.168853796884330
    Same-spin CCSD correlation energy         =   -0.047719291303668
    Singles CCSD correlation energy           =   -0.000000000000000
    CCSD correlation energy                   =   -0.216573088187999
      * CCSD total energy                     =  -99.623452441041081

            **************************
            *                        *
            *        CCTRIPLES       *
            *                        *
            **************************


    Wave function   =    CCSD_T
    Reference wfn   =      UHF

    Nuclear Rep. energy (wfn)                =    0.000000000000000
    SCF energy          (wfn)                =  -99.406879352852982
    Reference energy    (file100)            =  -99.406879352853082
    CCSD energy         (file100)            =   -0.216573088187999
    Total CCSD energy   (file100)            =  -99.623452441041081

    Number of ijk index combinations:
    Spin Case AAA:                                   4
    Spin Case BBB:                                   1
    Spin Case AAB:                                  18
    Spin Case ABB:                                  12
    AAA (T) energy                             =   -0.000158284224124
    BBB (T) energy                             =   -0.000034012824672
    AAB (T) energy                             =   -0.002532504764168
    ABB (T) energy                             =   -0.001649843552340
    (T) energy                                   =   -0.004374645365304
      * CCSD(T) total energy                     =  -99.627827086406384


    Psi4 stopped on: Tuesday, 26 January 2021 06:05PM
    Psi4 wall time for execution: 0:00:07.21

*** Psi4 exiting successfully. Buy a developer a beer!
