
    -----------------------------------------------------------------------
          Psi4: An Open-Source Ab Initio Electronic Structure Package
                               Psi4 1.4a3.dev88 

                         Git: Rev {master} 262e345 


    D. G. A. Smith, L. A. Burns, A. C. Simmonett, R. M. Parrish,
    M. C. Schieber, R. Galvelis, P. Kraus, H. Kruse, R. Di Remigio,
    A. Alenaizan, A. M. James, S. Lehtola, J. P. Misiewicz, M. Scheurer,
    R. A. Shaw, J. B. Schriber, Y. Xie, Z. L. Glick, D. A. Sirianni,
    J. S. O'Brien, J. M. Waldrop, A. Kumar, E. G. Hohenstein,
    B. P. Pritchard, B. R. Brooks, H. F. Schaefer III, A. Yu. Sokolov,
    K. Patkowski, A. E. DePrince III, U. Bozkaya, R. A. King,
    F. A. Evangelista, J. M. Turney, T. D. Crawford, C. D. Sherrill,
    J. Chem. Phys. 152(18) 184108 (2020). https://doi.org/10.1063/5.0006002

                            Additional Code Authors
    E. T. Seidl, C. L. Janssen, E. F. Valeev, M. L. Leininger,
    J. F. Gonthier, R. M. Richard, H. R. McAlexander, M. Saitow, X. Wang,
    P. Verma, and M. H. Lechner

             Previous Authors, Complete List of Code Contributors,
                       and Citations for Specific Modules
    https://github.com/psi4/psi4/blob/master/codemeta.json
    https://github.com/psi4/psi4/graphs/contributors
    http://psicode.org/psi4manual/master/introduction.html#citing-psifour

    -----------------------------------------------------------------------


    Psi4 started on: Wednesday, 20 January 2021 08:50PM

    Process ID: 132967
    Host:       n412-052.vsc4.prov
    PSIDATADIR: /home/fs71337/gallo4/psi4/psi4/build/stage/share/psi4
    Memory:     500.0 MiB
    Threads:    48
    
  ==> Input File <==

--------------------------------------------------------------------------
# Any line starting with the # character is a comment line
memory 250000 mb
molecule molecule{
0 2
F          0.0000000000        0.0000000000        0.0000000000
}

set {
  reference uhf
  basis aug-cc-pv(q+d)z
  scf_type OUT_OF_CORE
  freeze_core true
}

energy('ccsd(t)')
--------------------------------------------------------------------------

  Memory set to 232.831 GiB by Python driver.

Scratch directory: /binfl/lv71337/airmler/temp/

*** tstart() called on n412-052.vsc4.prov
*** at Wed Jan 20 20:50:01 2021

   => Loading Basis Set <=

    Name: AUG-CC-PV(Q+D)Z
    Role: ORBITAL
    Keyword: BASIS
    atoms 1 entry F          line   511 file /home/fs71337/gallo4/psi4/psi4/build/stage/share/psi4/basis/aug-cc-pv_qpd_z.gbs 


         ---------------------------------------------------------
                                   SCF
               by Justin Turney, Rob Parrish, Andy Simmonett
                          and Daniel G. A. Smith
                              UHF Reference
                       48 Threads, 238418 MiB Core
         ---------------------------------------------------------

  ==> Geometry <==

    Molecular point group: d2h
    Geometry (in Angstrom), charge = 0, multiplicity = 2:

       Center              X                  Y                   Z               Mass       
    ------------   -----------------  -----------------  -----------------  -----------------
         F            0.000000000000     0.000000000000     0.000000000000    18.998403162730

  Running in d2h symmetry.

  Rotational constants: A = ************  B = ************  C = ************ [cm^-1]
  Rotational constants: A = ************  B = ************  C = ************ [MHz]
  Nuclear repulsion =    0.000000000000000

  Charge       = 0
  Multiplicity = 2
  Electrons    = 9
  Nalpha       = 5
  Nbeta        = 4

  ==> Algorithm <==

  SCF Algorithm Type is OUT_OF_CORE.
  DIIS enabled.
  MOM disabled.
  Fractional occupation disabled.
  Guess Type is CORE.
  Energy threshold   = 1.00e-08
  Density threshold  = 1.00e-08
  Integral threshold = 1.00e-12

  ==> Primary Basis <==

  Basis Set: AUG-CC-PV(Q+D)Z
    Blend: AUG-CC-PV(Q+D)Z
    Number of shells: 20
    Number of basis function: 80
    Number of Cartesian functions: 105
    Spherical Harmonics?: true
    Max angular momentum: 4

  ==> Integral Setup <==

  ==> DiskJK: Disk-Based J/K Matrices <==

    J tasked:                  Yes
    K tasked:                  Yes
    wK tasked:                  No
    Memory [MiB]:           178813
    Schwarz Cutoff:          1E-12

  Minimum eigenvalue in the overlap matrix is 3.4045524217E-03.
  Reciprocal condition number of the overlap matrix is 1.0185592886E-03.
    Using symmetric orthogonalization.

  ==> Pre-Iterations <==

  SCF Guess: Core (One-Electron) Hamiltonian.

   -------------------------------------------------------
    Irrep   Nso     Nmo     Nalpha   Nbeta   Ndocc  Nsocc
   -------------------------------------------------------
     Ag        20      20       2       1       1       1
     B1g        8       8       0       0       0       0
     B2g        8       8       0       0       0       0
     B3g        8       8       0       0       0       0
     Au         3       3       0       0       0       0
     B1u       11      11       1       1       1       0
     B2u       11      11       1       1       1       0
     B3u       11      11       1       1       1       0
   -------------------------------------------------------
    Total      80      80       5       4       4       1
   -------------------------------------------------------

  ==> Iterations <==

                        Total Energy        Delta E     RMS |[F,P]|

    Occupation by irrep:
             Ag   B1g   B2g   B3g    Au   B1u   B2u   B3u 
    DOCC [     2,    0,    0,    0,    0,    0,    1,    1 ]
    SOCC [     0,    0,    0,    0,    0,    1,    0,    0 ]

   @UHF iter   1:   -86.03345419110735   -8.60335e+01   3.29717e-01 DIIS
   @UHF iter   2:   -87.17647623510159   -1.14302e+00   1.00665e-01 DIIS
   @UHF iter   3:   -97.39850109433434   -1.02220e+01   9.63126e-02 DIIS
   @UHF iter   4:   -98.95495314445802   -1.55645e+00   4.11208e-02 DIIS
   @UHF iter   5:   -99.40528727264108   -4.50334e-01   4.19137e-03 DIIS
   @UHF iter   6:   -99.41401602838556   -8.72876e-03   5.19306e-04 DIIS
   @UHF iter   7:   -99.41408276052323   -6.67321e-05   9.13518e-05 DIIS
   @UHF iter   8:   -99.41408526499332   -2.50447e-06   1.03295e-05 DIIS
   @UHF iter   9:   -99.41408535338823   -8.83949e-08   3.51529e-06 DIIS
   @UHF iter  10:   -99.41408536578200   -1.23938e-08   3.93094e-07 DIIS
   @UHF iter  11:   -99.41408536588735   -1.05345e-10   7.89612e-08 DIIS
   @UHF iter  12:   -99.41408536589144   -4.09273e-12   9.49774e-09 DIIS
  Energy and wave function converged.


  ==> Post-Iterations <==

   @Spin Contamination Metric:   4.203140533E-03
   @S^2 Expected:                7.500000000E-01
   @S^2 Observed:                7.542031405E-01
   @S   Expected:                5.000000000E-01
   @S   Observed:                5.000000000E-01

    Orbital Energies [Eh]
    ---------------------

    Alpha Occupied:                                                       

       1Ag   -26.408044     2Ag    -1.673004     1B1u   -0.845465  
       1B3u   -0.731742     1B2u   -0.731742  

    Alpha Virtual:                                                        

       2B1u    0.160335     2B2u    0.168306     2B3u    0.168306  
       3Ag     0.169810     4Ag     0.619076     1B2g    0.623253  
       1B3g    0.623253     5Ag     0.636209     1B1g    0.636209  
       3B1u    0.823941     3B3u    0.860918     3B2u    0.860918  
       6Ag     1.106933     4B1u    1.840670     4B2u    1.844045  
       4B3u    1.844045     1Au     1.854251     5B1u    1.854251  
       5B3u    1.871605     5B2u    1.871605     7Ag     1.957395  
       2B2g    1.970628     2B3g    1.970628     8Ag     2.012864  
       2B1g    2.012864     6B1u    3.288578     6B2u    3.366339  
       6B3u    3.366339     9Ag     4.655184     3B2g    4.658434  
       3B3g    4.658434    10Ag     4.668223     3B1g    4.668223  
       4B2g    4.684679     4B3g    4.684679     4B1g    4.708033  
      11Ag     4.708033    12Ag     4.957229     7B1u    5.398353  
       7B2u    5.406441     7B3u    5.406441     2Au     5.430912  
       8B1u    5.430912     8B3u    5.472533     8B2u    5.472533  
      13Ag     5.597779     5B2g    5.619906     5B3g    5.619906  
      14Ag     5.689801     5B1g    5.689801     9B1u   12.850097  
       9B3u   12.934655     9B2u   12.934655    15Ag    13.528160  
       6B2g   13.534335     6B3g   13.534335    16Ag    13.552912  
       6B1g   13.552912     7B2g   13.584051     7B3g   13.584051  
       7B1g   13.628035    17Ag    13.628035    10B1u   15.676741  
      10B3u   15.688683    10B2u   15.688683     3Au    15.724715  
      11B1u   15.724715    11B3u   15.785566    11B2u   15.785566  
      18Ag    16.554988     8B2g   16.579350     8B3g   16.579350  
      19Ag    16.653774     8B1g   16.653774    20Ag    52.972486  

    Beta Occupied:                                                        

       1Ag   -26.359977     2Ag    -1.477482     1B3u   -0.679980  
       1B2u   -0.679980  

    Beta Virtual:                                                         

       1B1u    0.035278     2B3u    0.169843     2B2u    0.169843  
       3Ag     0.175442     2B1u    0.209680     4Ag     0.632627  
       1B2g    0.632939     1B3g    0.632939     5Ag     0.634610  
       1B1g    0.634610     3B2u    0.871850     3B3u    0.871850  
       3B1u    0.946630     6Ag     1.136107     4B1u    1.853065  
       4B2u    1.854942     4B3u    1.854942     1Au     1.860606  
       5B1u    1.860606     5B2u    1.870063     5B3u    1.870063  
       7Ag     2.016550     2B1g    2.016550     2B2g    2.032920  
       2B3g    2.032920     8Ag     2.039344     6B2u    3.389538  
       6B3u    3.389538     6B1u    3.449974     9Ag     4.672051  
       3B2g    4.674226     3B3g    4.674226    10Ag     4.680756  
       3B1g    4.680756     4B2g    4.691651     4B3g    4.691651  
       4B1g    4.706910    11Ag     4.706910    12Ag     5.012628  
       7B1u    5.449020     7B2u    5.451941     7B3u    5.451941  
       2Au     5.460696     8B1u    5.460696     8B3u    5.475232  
       8B2u    5.475232     5B1g    5.706907    13Ag     5.706907  
       5B2g    5.722664     5B3g    5.722664    14Ag     5.728792  
       9B3u   12.957215     9B2u   12.957215     9B1u   12.972241  
      15Ag    13.573479     6B3g   13.577104     6B2g   13.577104  
      16Ag    13.587986     6B1g   13.587986     7B2g   13.606149  
       7B3g   13.606149     7B1g   13.631623    17Ag    13.631623  
      10B1u   15.754950    10B3u   15.759527    10B2u   15.759527  
       3Au    15.773273    11B1u   15.773273    11B3u   15.796233  
      11B2u   15.796233    18Ag    16.658161     8B3g   16.661449  
       8B2g   16.661449    19Ag    16.671612     8B1g   16.671612  
      20Ag    53.001099  

    Final Occupation by Irrep:
             Ag   B1g   B2g   B3g    Au   B1u   B2u   B3u 
    DOCC [     2,    0,    0,    0,    0,    0,    1,    1 ]
    SOCC [     0,    0,    0,    0,    0,    1,    0,    0 ]

  @UHF Final Energy:   -99.41408536589144

   => Energetics <=

    Nuclear Repulsion Energy =              0.0000000000000000
    One-Electron Energy =                -139.2407537171203842
    Two-Electron Energy =                  39.8266683512289461
    Total Energy =                        -99.4140853658914381

  UHF NO Occupations:
  HONO-2 :    1B3u 1.9996569
  HONO-1 :    2 Ag 1.9985846
  HONO-0 :    1B1u 1.0000000
  LUNO+0 :    3 Ag 0.0014154
  LUNO+1 :    2B3u 0.0003431
  LUNO+2 :    2B2u 0.0003431
  LUNO+3 :    4 Ag 0.0000011


Computation Completed


Properties will be evaluated at   0.000000,   0.000000,   0.000000 [a0]

Properties computed using the SCF density matrix

  Nuclear Dipole Moment: [e a0]
     X:     0.0000      Y:     0.0000      Z:     0.0000

  Electronic Dipole Moment: [e a0]
     X:     0.0000      Y:     0.0000      Z:     0.0000

  Dipole Moment: [e a0]
     X:     0.0000      Y:     0.0000      Z:     0.0000     Total:     0.0000

  Dipole Moment: [D]
     X:     0.0000      Y:     0.0000      Z:     0.0000     Total:     0.0000


*** tstop() called on n412-052.vsc4.prov at Wed Jan 20 20:50:04 2021
Module time:
	user time   =      16.17 seconds =       0.27 minutes
	system time =       0.53 seconds =       0.01 minutes
	total time  =          3 seconds =       0.05 minutes
Total time:
	user time   =      16.17 seconds =       0.27 minutes
	system time =       0.53 seconds =       0.01 minutes
	total time  =          3 seconds =       0.05 minutes

*** tstart() called on n412-052.vsc4.prov
*** at Wed Jan 20 20:50:04 2021


	Wfn Parameters:
	--------------------
	Wavefunction         = CCSD_T
	Number of irreps     = 8
	Number of MOs        = 80
	Number of active MOs = 79
	AO-Basis             = NONE
	Semicanonical        = false
	Reference            = UHF
	Print Level          = 1

	IRREP	# MOs	# FZDC	# DOCC	# SOCC	# VIRT	# FZVR
	-----	-----	------	------	------	------	------
	 Ag	   20	    1	    1	    0	    18	    0
	 B1g	   8	    0	    0	    0	    8	    0
	 B2g	   8	    0	    0	    0	    8	    0
	 B3g	   8	    0	    0	    0	    8	    0
	 Au	   3	    0	    0	    0	    3	    0
	 B1u	   11	    0	    0	    1	    10	    0
	 B2u	   11	    0	    1	    0	    10	    0
	 B3u	   11	    0	    1	    0	    10	    0
	Transforming integrals...
	IWL integrals will be deleted.
	(OO|OO)...
	Presorting SO-basis two-electron integrals.
	Sorting File: SO Ints (nn|nn) nbuckets = 1
	Constructing frozen core operators
	Starting AA/AB first half-transformation.
	Sorting AA/AB half-transformed integrals.
	Starting BB first half-transformation.
	Sorting BB half-transformed integrals.
	First half integral transformation complete.
	Starting AA second half-transformation.
	Starting AB second half-transformation.
	Starting BB second half-transformation.
	Two-electron integral transformation complete.
	(OO|OV)...
	Starting AA second half-transformation.
	Starting AB second half-transformation.
	Starting BB second half-transformation.
	Two-electron integral transformation complete.
	(OO|VV)...
	Starting AA second half-transformation.
	Starting AB second half-transformation.
	Starting BB second half-transformation.
	Two-electron integral transformation complete.
	(OV|OO)...
	Starting AA/AB first half-transformation.
	Sorting AA/AB half-transformed integrals.
	Starting BB first half-transformation.
	Sorting BB half-transformed integrals.
	First half integral transformation complete.
	Starting AA second half-transformation.
	Starting AB second half-transformation.
	Starting BB second half-transformation.
	Two-electron integral transformation complete.
	(OV|OV)...
	Starting AA second half-transformation.
	Starting AB second half-transformation.
	Starting BB second half-transformation.
	Two-electron integral transformation complete.
	(OV|VV)...
	Starting AA second half-transformation.
	Starting AB second half-transformation.
	Starting BB second half-transformation.
	Two-electron integral transformation complete.
	(VV|OO)...
	Starting AA/AB first half-transformation.
	Sorting AA/AB half-transformed integrals.
	Starting BB first half-transformation.
	Sorting BB half-transformed integrals.
	First half integral transformation complete.
	Starting AA second half-transformation.
	Starting AB second half-transformation.
	Starting BB second half-transformation.
	Two-electron integral transformation complete.
	(VV|OV)...
	Starting AA second half-transformation.
	Starting AB second half-transformation.
	Starting BB second half-transformation.
	Two-electron integral transformation complete.
	(VV|VV)...
	Starting AA second half-transformation.
	Starting AB second half-transformation.
	Starting BB second half-transformation.
	Two-electron integral transformation complete.
	Frozen core energy     =    -75.47939044010137

	Size of irrep 0 of <AB|CD> integrals:      0.141 (MW) /      1.125 (MB)
	Size of irrep 1 of <AB|CD> integrals:      0.114 (MW) /      0.914 (MB)
	Size of irrep 2 of <AB|CD> integrals:      0.114 (MW) /      0.914 (MB)
	Size of irrep 3 of <AB|CD> integrals:      0.114 (MW) /      0.914 (MB)
	Size of irrep 4 of <AB|CD> integrals:      0.086 (MW) /      0.691 (MB)
	Size of irrep 5 of <AB|CD> integrals:      0.132 (MW) /      1.060 (MB)
	Size of irrep 6 of <AB|CD> integrals:      0.132 (MW) /      1.060 (MB)
	Size of irrep 7 of <AB|CD> integrals:      0.132 (MW) /      1.060 (MB)
	Total:                                     0.967 (MW) /      7.738 (MB)

	Size of irrep 0 of <ab|cd> integrals:      0.148 (MW) /      1.186 (MB)
	Size of irrep 1 of <ab|cd> integrals:      0.116 (MW) /      0.930 (MB)
	Size of irrep 2 of <ab|cd> integrals:      0.121 (MW) /      0.969 (MB)
	Size of irrep 3 of <ab|cd> integrals:      0.121 (MW) /      0.969 (MB)
	Size of irrep 4 of <ab|cd> integrals:      0.091 (MW) /      0.730 (MB)
	Size of irrep 5 of <ab|cd> integrals:      0.146 (MW) /      1.167 (MB)
	Size of irrep 6 of <ab|cd> integrals:      0.138 (MW) /      1.107 (MB)
	Size of irrep 7 of <ab|cd> integrals:      0.138 (MW) /      1.107 (MB)
	Total:                                     1.021 (MW) /      8.165 (MB)

	Size of irrep 0 of <Ab|Cd> integrals:      0.697 (MW) /      5.578 (MB)
	Size of irrep 1 of <Ab|Cd> integrals:      0.461 (MW) /      3.688 (MB)
	Size of irrep 2 of <Ab|Cd> integrals:      0.471 (MW) /      3.765 (MB)
	Size of irrep 3 of <Ab|Cd> integrals:      0.471 (MW) /      3.765 (MB)
	Size of irrep 4 of <Ab|Cd> integrals:      0.355 (MW) /      2.842 (MB)
	Size of irrep 5 of <Ab|Cd> integrals:      0.557 (MW) /      4.452 (MB)
	Size of irrep 6 of <Ab|Cd> integrals:      0.542 (MW) /      4.334 (MB)
	Size of irrep 7 of <Ab|Cd> integrals:      0.542 (MW) /      4.334 (MB)
	Total:                                     4.095 (MW) /     32.757 (MB)

	Size of irrep 0 of <IA|BC> integrals:      0.040 (MW) /      0.317 (MB)
	Size of irrep 1 of <IA|BC> integrals:      0.021 (MW) /      0.168 (MB)
	Size of irrep 2 of <IA|BC> integrals:      0.021 (MW) /      0.168 (MB)
	Size of irrep 3 of <IA|BC> integrals:      0.021 (MW) /      0.168 (MB)
	Size of irrep 4 of <IA|BC> integrals:      0.016 (MW) /      0.127 (MB)
	Size of irrep 5 of <IA|BC> integrals:      0.032 (MW) /      0.256 (MB)
	Size of irrep 6 of <IA|BC> integrals:      0.032 (MW) /      0.256 (MB)
	Size of irrep 7 of <IA|BC> integrals:      0.032 (MW) /      0.256 (MB)
	Total:                                     0.214 (MW) /      1.716 (MB)

	Size of irrep 0 of <ia|bc> integrals:      0.032 (MW) /      0.257 (MB)
	Size of irrep 1 of <ia|bc> integrals:      0.019 (MW) /      0.153 (MB)
	Size of irrep 2 of <ia|bc> integrals:      0.015 (MW) /      0.122 (MB)
	Size of irrep 3 of <ia|bc> integrals:      0.015 (MW) /      0.122 (MB)
	Size of irrep 4 of <ia|bc> integrals:      0.011 (MW) /      0.092 (MB)
	Size of irrep 5 of <ia|bc> integrals:      0.021 (MW) /      0.165 (MB)
	Size of irrep 6 of <ia|bc> integrals:      0.027 (MW) /      0.214 (MB)
	Size of irrep 7 of <ia|bc> integrals:      0.027 (MW) /      0.214 (MB)
	Total:                                     0.168 (MW) /      1.340 (MB)

	Size of irrep 0 of <Ia|Bc> integrals:      0.041 (MW) /      0.327 (MB)
	Size of irrep 1 of <Ia|Bc> integrals:      0.021 (MW) /      0.168 (MB)
	Size of irrep 2 of <Ia|Bc> integrals:      0.022 (MW) /      0.176 (MB)
	Size of irrep 3 of <Ia|Bc> integrals:      0.022 (MW) /      0.176 (MB)
	Size of irrep 4 of <Ia|Bc> integrals:      0.016 (MW) /      0.129 (MB)
	Size of irrep 5 of <Ia|Bc> integrals:      0.034 (MW) /      0.269 (MB)
	Size of irrep 6 of <Ia|Bc> integrals:      0.032 (MW) /      0.259 (MB)
	Size of irrep 7 of <Ia|Bc> integrals:      0.032 (MW) /      0.259 (MB)
	Total:                                     0.220 (MW) /      1.762 (MB)

	Size of irrep 0 of <iA|bC> integrals:      0.032 (MW) /      0.254 (MB)
	Size of irrep 1 of <iA|bC> integrals:      0.019 (MW) /      0.152 (MB)
	Size of irrep 2 of <iA|bC> integrals:      0.014 (MW) /      0.115 (MB)
	Size of irrep 3 of <iA|bC> integrals:      0.014 (MW) /      0.115 (MB)
	Size of irrep 4 of <iA|bC> integrals:      0.011 (MW) /      0.091 (MB)
	Size of irrep 5 of <iA|bC> integrals:      0.019 (MW) /      0.155 (MB)
	Size of irrep 6 of <iA|bC> integrals:      0.026 (MW) /      0.212 (MB)
	Size of irrep 7 of <iA|bC> integrals:      0.026 (MW) /      0.212 (MB)
	Total:                                     0.163 (MW) /      1.306 (MB)

	Size of irrep 0 of tIjAb amplitudes:       0.003 (MW) /      0.020 (MB)
	Size of irrep 1 of tIjAb amplitudes:       0.001 (MW) /      0.011 (MB)
	Size of irrep 2 of tIjAb amplitudes:       0.001 (MW) /      0.005 (MB)
	Size of irrep 3 of tIjAb amplitudes:       0.001 (MW) /      0.005 (MB)
	Size of irrep 4 of tIjAb amplitudes:       0.000 (MW) /      0.000 (MB)
	Size of irrep 5 of tIjAb amplitudes:       0.001 (MW) /      0.006 (MB)
	Size of irrep 6 of tIjAb amplitudes:       0.001 (MW) /      0.012 (MB)
	Size of irrep 7 of tIjAb amplitudes:       0.001 (MW) /      0.012 (MB)
	Total:                                     0.009 (MW) /      0.071 (MB)

	Nuclear Rep. energy          =      0.00000000000000
	SCF energy                   =    -99.41408536589144
	One-electron energy          =    -41.04999420988885
	Two-electron (AA) energy     =      4.51744278858089
	Two-electron (BB) energy     =      2.15034519029877
	Two-electron (AB) energy     =     10.44751130521882
	Two-electron energy          =     17.11529928409849
	Reference energy             =    -99.41408536589174

*** tstop() called on n412-052.vsc4.prov at Wed Jan 20 20:50:09 2021
Module time:
	user time   =       0.71 seconds =       0.01 minutes
	system time =       0.70 seconds =       0.01 minutes
	total time  =          5 seconds =       0.08 minutes
Total time:
	user time   =      16.88 seconds =       0.28 minutes
	system time =       1.23 seconds =       0.02 minutes
	total time  =          8 seconds =       0.13 minutes
            **************************
            *                        *
            *        CCENERGY        *
            *                        *
            **************************

    Nuclear Rep. energy (wfn)     =    0.000000000000000
    SCF energy          (wfn)     =  -99.414085365891438
    Reference energy    (file100) =  -99.414085365891737

    Input parameters:
    -----------------
    Wave function   =     CCSD_T
    Reference wfn   =     UHF
    Brueckner       =     No
    Memory (Mbytes) =     250000.0
    Maxiter         =     50
    R_Convergence   =     1.0e-07
    E_Convergence   =     1.0e-06
    Restart         =     Yes
    DIIS            =     Yes
    AO Basis        =     NONE
    ABCD            =     NEW
    Cache Level     =     2
    Cache Type      =     LRU
    Print Level     =     1
    Num. of threads =     48
    # Amps to Print =     10
    Print MP2 Amps? =     No
    Analyze T2 Amps =     No
    Print Pair Ener =     No
    Local CC        =     No
    SCS-MP2         =     False
    SCSN-MP2        =     False
    SCS-CCSD        =     False

MP2 correlation energy -0.2238912924224108
                Solving CC Amplitude Equations
                ------------------------------
  Iter             Energy              RMS        T1Diag      D1Diag    New D1Diag    D2Diag
  ----     ---------------------    ---------   ----------  ----------  ----------   --------
     0        -0.223891292422411    0.000e+00    0.000000    0.000000    0.000000    0.000000
     1        -0.230430735150005    2.859e-02    0.007949    0.000000    0.000000    0.000000
     2        -0.233290994969804    8.245e-03    0.008627    0.000000    0.000000    0.000000
     3        -0.233947580892605    4.129e-03    0.009806    0.000000    0.000000    0.000000
     4        -0.233872604897588    1.405e-03    0.009979    0.000000    0.000000    0.000000
     5        -0.233884613178539    5.603e-04    0.009995    0.000000    0.000000    0.000000
     6        -0.233896946314033    1.607e-04    0.009979    0.000000    0.000000    0.000000
     7        -0.233896090406244    4.639e-05    0.009973    0.000000    0.000000    0.000000
     8        -0.233896076326972    1.393e-05    0.009974    0.000000    0.000000    0.000000
     9        -0.233895927174978    4.082e-06    0.009974    0.000000    0.000000    0.000000
    10        -0.233895952061499    1.228e-06    0.009974    0.000000    0.000000    0.000000
    11        -0.233895975343617    2.773e-07    0.009974    0.000000    0.000000    0.000000
    12        -0.233895981445249    6.895e-08    0.009974    0.000000    0.000000    0.000000

    Iterations converged.


    Largest TIA Amplitudes:
              1  45        -0.0091697458
              2  55        -0.0087471354
              3  65        -0.0087471354
              1  46        -0.0071321798
              2  56        -0.0061109957
              3  66        -0.0061109957
              0   0        -0.0048522482
              0   3         0.0031942477
              2  59         0.0031037693
              3  69         0.0031037693

    Largest Tia Amplitudes:
              1  56        -0.0076921052
              2  66        -0.0076921052
              0   5        -0.0057373339
              1  60         0.0044101846
              2  70         0.0044101846
              1  57        -0.0037136628
              2  67        -0.0037136628
              0   1         0.0034117368
              0  11         0.0029432626
              0   9         0.0025555860

    Largest TIJAB Amplitudes:
      3   2  66  56        -0.0158968677
      3   1  66  46        -0.0156186473
      2   1  56  46        -0.0156186473
      3   2  19   5         0.0131562778
      3   1  27   4         0.0108111841
      2   1  35   4         0.0108111841
      3   1  66  49        -0.0100285974
      2   1  56  49        -0.0100285974
      3   1  69  49        -0.0096239676
      2   1  59  49        -0.0096239676

    Largest Tijab Amplitudes:
      2   1  67  57        -0.0166196662
      2   1  19   4         0.0131965589
      1   0  45  35         0.0097545831
      2   0  45  27         0.0097545831
      2   1  67  60        -0.0094422517
      2   1  70  57        -0.0094422517
      2   1  66  57        -0.0089471320
      2   1  67  56        -0.0089471320
      2   1  70  60        -0.0089365108
      1   0  57   3         0.0085360653

    Largest TIjAb Amplitudes:
      2   1  56  57        -0.0288616335
      3   2  66  67        -0.0288616335
      1   0   4  45         0.0219077636
      2   2  56  67        -0.0209405915
      3   1  66  57        -0.0209405915
      1   2  46  67        -0.0202630138
      1   1  46  57        -0.0202630138
      2   0  35  45        -0.0189003381
      3   0  27  45        -0.0189003381
      2   1  59  60        -0.0178041243

    SCF energy       (wfn)                    =  -99.414085365891438
    Reference energy (file100)                =  -99.414085365891737

    Opposite-spin MP2 correlation energy      =   -0.171750172123745
    Same-spin MP2 correlation energy          =   -0.052141120298666
    Singles MP2 correlation energy            =   -0.000000000000000
    MP2 correlation energy                    =   -0.223891292422411
      * MP2 total energy                      =  -99.637976658314145

    Opposite-spin CCSD correlation energy     =   -0.183952342718317
    Same-spin CCSD correlation energy         =   -0.049943638726932
    Singles CCSD correlation energy           =    0.000000000000000
    CCSD correlation energy                   =   -0.233895981445249
      * CCSD total energy                     =  -99.647981347336980

            **************************
            *                        *
            *        CCTRIPLES       *
            *                        *
            **************************


    Wave function   =    CCSD_T
    Reference wfn   =      UHF

    Nuclear Rep. energy (wfn)                =    0.000000000000000
    SCF energy          (wfn)                =  -99.414085365891438
    Reference energy    (file100)            =  -99.414085365891737
    CCSD energy         (file100)            =   -0.233895981445249
    Total CCSD energy   (file100)            =  -99.647981347336980

    Number of ijk index combinations:
    Spin Case AAA:                                   4
    Spin Case BBB:                                   1
    Spin Case AAB:                                  18
    Spin Case ABB:                                  12
    AAA (T) energy                             =   -0.000180846051218
    BBB (T) energy                             =   -0.000038424096828
    AAB (T) energy                             =   -0.002868198444001
    ABB (T) energy                             =   -0.001839351886195
    (T) energy                                   =   -0.004926820478243
      * CCSD(T) total energy                     =  -99.652908167815227


    Psi4 stopped on: Wednesday, 20 January 2021 08:50PM
    Psi4 wall time for execution: 0:00:15.19

*** Psi4 exiting successfully. Buy a developer a beer!
