
    -----------------------------------------------------------------------
          Psi4: An Open-Source Ab Initio Electronic Structure Package
                               Psi4 1.2a1.dev939 

                         Git: Rev {HEAD} fa1ec19 


    R. M. Parrish, L. A. Burns, D. G. A. Smith, A. C. Simmonett,
    A. E. DePrince III, E. G. Hohenstein, U. Bozkaya, A. Yu. Sokolov,
    R. Di Remigio, R. M. Richard, J. F. Gonthier, A. M. James,
    H. R. McAlexander, A. Kumar, M. Saitow, X. Wang, B. P. Pritchard,
    P. Verma, H. F. Schaefer III, K. Patkowski, R. A. King, E. F. Valeev,
    F. A. Evangelista, J. M. Turney, T. D. Crawford, and C. D. Sherrill,
    J. Chem. Theory Comput. 13(7) pp 3185--3197 (2017).
    (doi: 10.1021/acs.jctc.7b00174)

    -----------------------------------------------------------------------


    Psi4 started on: Wednesday, 01 May 2019 11:56AM

    Process ID:   6791
    PSIDATADIR: /home/grueneis/src/psi4/objdir/stage/usr/local/psi4/share/psi4
    Memory:     500.0 MiB
    Threads:    1
    
  ==> Input File <==

--------------------------------------------------------------------------
# Any line starting with the # character is a comment line

memory 32000 mb

molecule molecule {
0 1
N          0.0000000000        0.0000000000       -0.6018924656
C          0.0000000000        0.0000000000        0.5651392093
H          0.0000000000        0.0000000000        1.6297003342
}

set {
  reference rhf


  basis aug-cc-pv(5+d)z
  scf_type OUT_OF_CORE
  freeze_core true
}

energy('ccsd')
--------------------------------------------------------------------------

  Memory set to  29.802 GiB by Python driver.

*** tstart() called on cqc01
*** at Wed May  1 11:56:16 2019

   => Loading Basis Set <=

    Name: AUG-CC-PV(5+D)Z
    Role: ORBITAL
    Keyword: BASIS
    atoms 1 entry N          line   300 file /home/grueneis/src/psi4/objdir/stage/usr/local/psi4/share/psi4/basis/aug-cc-pv_5pd_z.gbs 
    atoms 2 entry C          line   223 file /home/grueneis/src/psi4/objdir/stage/usr/local/psi4/share/psi4/basis/aug-cc-pv_5pd_z.gbs 
    atoms 3 entry H          line    56 file /home/grueneis/src/psi4/objdir/stage/usr/local/psi4/share/psi4/basis/aug-cc-pv_5pd_z.gbs 


         ---------------------------------------------------------
                                   SCF
            by Justin Turney, Rob Parrish, Andy Simmonett
                             and Daniel Smith
                              RHF Reference
                        1 Threads,  30517 MiB Core
         ---------------------------------------------------------

  ==> Geometry <==

    Molecular point group: c2v
    Full point group: C_inf_v

    Geometry (in Angstrom), charge = 0, multiplicity = 1:

       Center              X                  Y                   Z               Mass       
    ------------   -----------------  -----------------  -----------------  -----------------
           N          0.000000000000     0.000000000000    -0.601736179223    14.003074004780
           C          0.000000000000     0.000000000000     0.565295495677    12.000000000000
           H          0.000000000000     0.000000000000     1.629856620577     1.007825032070

  Running in c2v symmetry.

  Rotational constants: A = ************  B =      1.45547  C =      1.45547 [cm^-1]
  Rotational constants: A = ************  B =  43633.92186  C =  43633.92186 [MHz]
  Nuclear repulsion =   23.686839070413566

  Charge       = 0
  Multiplicity = 1
  Electrons    = 14
  Nalpha       = 7
  Nbeta        = 7

  ==> Algorithm <==

  SCF Algorithm Type is OUT_OF_CORE.
  DIIS enabled.
  MOM disabled.
  Fractional occupation disabled.
  Guess Type is SAD.
  Energy threshold   = 1.00e-08
  Density threshold  = 1.00e-08
  Integral threshold = 0.00e+00

  ==> Primary Basis <==

  Basis Set: AUG-CC-PV(5+D)Z
    Blend: AUG-CC-PV(5+D)Z
    Number of shells: 74
    Number of basis function: 334
    Number of Cartesian functions: 469
    Spherical Harmonics?: true
    Max angular momentum: 5

  ==> Pre-Iterations <==

   -------------------------------------------------------
    Irrep   Nso     Nmo     Nalpha   Nbeta   Ndocc  Nsocc
   -------------------------------------------------------
     A1       123     123       0       0       0       0
     A2        49      49       0       0       0       0
     B1        81      81       0       0       0       0
     B2        81      81       0       0       0       0
   -------------------------------------------------------
    Total     334     334       7       7       7       0
   -------------------------------------------------------

  ==> Integral Setup <==

  ==> DiskJK: Disk-Based J/K Matrices <==

    J tasked:                  Yes
    K tasked:                  Yes
    wK tasked:                  No
    Memory (MB):             22888
    Schwarz Cutoff:          1E-12

  Minimum eigenvalue in the overlap matrix is 2.6484691905E-06.
  Using Symmetric Orthogonalization.

  SCF Guess: Superposition of Atomic Densities via on-the-fly atomic UHF.

  ==> Iterations <==

                        Total Energy        Delta E     RMS |[F,P]|

   @RHF iter   0:   -93.25579668900690   -9.32558e+01   1.33714e-02 
   @RHF iter   1:   -92.84902506196485    4.06772e-01   1.69057e-03 
   @RHF iter   2:   -92.87681187515049   -2.77868e-02   1.63767e-03 DIIS
   @RHF iter   3:   -92.91008706527552   -3.32752e-02   2.11666e-04 DIIS
   @RHF iter   4:   -92.91223258867390   -2.14552e-03   9.65280e-05 DIIS
   @RHF iter   5:   -92.91291177129479   -6.79183e-04   4.76912e-05 DIIS
   @RHF iter   6:   -92.91313974086762   -2.27970e-04   2.12269e-05 DIIS
   @RHF iter   7:   -92.91319126800116   -5.15271e-05   6.85284e-06 DIIS
   @RHF iter   8:   -92.91319403469359   -2.76669e-06   1.27672e-06 DIIS
   @RHF iter   9:   -92.91319407474437   -4.00508e-08   1.19901e-07 DIIS
   @RHF iter  10:   -92.91319407508080   -3.36428e-10   1.38330e-08 DIIS
   @RHF iter  11:   -92.91319407508612   -5.32907e-12   2.35908e-09 DIIS

  ==> Post-Iterations <==

    Orbital Energies (a.u.)
    -----------------------

    Doubly Occupied:                                                      

       1A1   -15.602994     2A1   -11.295976     3A1    -1.229931  
       4A1    -0.815690     5A1    -0.583053     1B1    -0.492879  
       1B2    -0.492879  

    Virtual:                                                              

       6A1     0.017524     2B1     0.052473     2B2     0.052473  
       7A1     0.053188     8A1     0.097697     9A1     0.099937  
       3B1     0.101215     3B2     0.101215     4B2     0.149560  
       4B1     0.149560    10A1     0.163686    11A1     0.193043  
      12A1     0.202897     1A2     0.202897     5B1     0.218629  
       5B2     0.218629     6B1     0.259125     6B2     0.259126  
      13A1     0.266098    14A1     0.280339    15A1     0.327283  
       2A2     0.327283    16A1     0.365361     7B1     0.368283  
       7B2     0.368283    17A1     0.396070     8B1     0.403893  
       8B2     0.403893    18A1     0.442007     9B1     0.516619  
       9B2     0.516619    19A1     0.538656     3A2     0.544262  
      20A1     0.544262    10B1     0.552229    10B2     0.552229  
      21A1     0.596461    11B1     0.599433    11B2     0.599433  
      22A1     0.644025    23A1     0.660859     4A2     0.660859  
      24A1     0.765171    12B1     0.768007    12B2     0.768007  
       5A2     0.769483    25A1     0.769483    26A1     0.846283  
      13B1     0.876607    13B2     0.876607    14B1     0.889254  
      14B2     0.889254    27A1     0.943629     6A2     0.957887  
      28A1     0.957887    15B1     0.960688    15B2     0.960688  
      29A1     1.054353    16B1     1.090104    16B2     1.090104  
      30A1     1.123262    17B1     1.185400    17B2     1.185400  
      31A1     1.227172    32A1     1.255214    18B1     1.272167  
      18B2     1.272167     7A2     1.286670    33A1     1.286670  
      19B1     1.363032    19B2     1.363032     8A2     1.370930  
      34A1     1.370930    20B1     1.457426    20B2     1.457426  
      35A1     1.480929    36A1     1.514929    37A1     1.563246  
       9A2     1.563246    21B1     1.642688    21B2     1.642688  
      38A1     1.646547    10A2     1.655461    39A1     1.655461  
      22B1     1.770996    22B2     1.770996    40A1     1.803032  
      11A2     1.803032    23B1     1.922220    23B2     1.922220  
      41A1     1.934673    24B1     1.974963    24B2     1.974963  
      42A1     1.984944    25B1     2.099629    25B2     2.099629  
      12A2     2.128301    43A1     2.128301    44A1     2.256800  
      45A1     2.305386    13A2     2.305386    46A1     2.320409  
      26B1     2.373217    26B2     2.373217    27B1     2.429097  
      27B2     2.429097    28B1     2.481720    28B2     2.481720  
      47A1     2.485470    14A2     2.525669    48A1     2.525669  
      29B1     2.622324    29B2     2.622324    49A1     2.714608  
      15A2     2.722769    50A1     2.722769    30B1     2.842692  
      30B2     2.842692    31B1     2.893898    31B2     2.893898  
      16A2     2.931266    51A1     2.931266    52A1     2.979915  
      53A1     3.051594    17A2     3.051594    54A1     3.080125  
      32B1     3.237016    32B2     3.237016    33B1     3.310906  
      33B2     3.310906    55A1     3.377655    18A2     3.380862  
      56A1     3.380862    34B1     3.451455    34B2     3.451455  
      35B2     3.482532    35B1     3.482532    19A2     3.487761  
      57A1     3.487761    58A1     3.595386    59A1     3.636023  
      36B1     3.856047    36B2     3.856047    60A1     3.884441  
      37B1     3.973826    37B2     3.973826    20A2     4.002730  
      61A1     4.002730    21A2     4.062943    62A1     4.062943  
      38B1     4.074246    38B2     4.074246    63A1     4.097802  
      22A2     4.097802    64A1     4.102706    39B1     4.154054  
      39B2     4.154054    40B1     4.184539    40B2     4.184539  
      23A2     4.416515    65A1     4.416515    66A1     4.454047  
      41B1     4.615397    41B2     4.615397    67A1     4.655977  
      42B1     4.791621    42B2     4.791621    43B2     4.863186  
      43B1     4.863186    44B2     4.979071    44B1     4.979071  
      24A2     4.980141    68A1     4.980141    69A1     5.091432  
      45B1     5.221763    45B2     5.221763    70A1     5.383176  
      25A2     5.383176    71A1     5.530784    26A2     5.530784  
      72A1     5.592789    46B1     5.644501    46B2     5.644501  
      47B2     5.667743    47B1     5.667743    48B1     5.752232  
      48B2     5.752232    49B1     5.768249    49B2     5.768249  
      73A1     5.804904    27A2     5.804904    28A2     5.852302  
      74A1     5.852302    29A2     5.943680    75A1     5.943680  
      76A1     5.967556    77A1     6.184727    50B2     6.188138  
      50B1     6.188138    51B1     6.268060    51B2     6.268060  
      78A1     6.483044    30A2     6.673442    79A1     6.673442  
      80A1     6.802386    52B2     6.956217    52B1     6.956217  
      31A2     6.982228    81A1     6.982228    82A1     7.038184  
      53B1     7.038417    53B2     7.038417    32A2     7.281310  
      83A1     7.281310    84A1     7.418340    85A1     7.678280  
      54B2     7.704447    54B1     7.704447    55B2     8.234759  
      55B1     8.234759    86A1     8.313292    33A2     8.313292  
      87A1     8.360330    56B2     8.391733    56B1     8.391733  
      57B2     8.879722    57B1     8.879722    58B1     8.940734  
      58B2     8.940734    88A1     8.987667    34A2     9.109451  
      89A1     9.109451    59B1     9.481104    59B2     9.481104  
      90A1     9.736212    35A2     9.814564    91A1     9.814564  
      60B2    10.043048    60B1    10.043048    61B1    10.317932  
      61B2    10.317932    92A1    10.380668    36A2    10.380668  
      62B2    10.462797    62B1    10.462797    93A1    10.522404  
      37A2    10.655665    94A1    10.655665    63B2    10.811607  
      63B1    10.811607    64B2    11.122314    64B1    11.122314  
      95A1    11.229145    96A1    11.425983    97A1    12.033041  
      38A2    12.033041    98A1    12.195105    65B2    12.437603  
      65B1    12.437603    66B1    12.454323    66B2    12.454323  
      99A1    12.504428    39A2    12.504428    40A2    12.771220  
     100A1    12.771220    41A2    13.135376   101A1    13.135376  
     102A1    13.196550    67B2    13.200684    67B1    13.200684  
      68B2    13.217956    68B1    13.217956    69B1    13.592393  
      69B2    13.592393    70B2    13.711749    70B1    13.711749  
     103A1    13.814339   104A1    13.913043    42A2    13.913043  
      71B2    13.992052    71B1    13.992052   105A1    14.296928  
      43A2    14.296928    72B2    14.321965    72B1    14.321965  
     106A1    14.554959   107A1    14.715752    44A2    14.715752  
     108A1    14.764355    45A2    14.764355    73B1    14.811080  
      73B2    14.811080   109A1    15.003552    74B2    15.087832  
      74B1    15.087832   110A1    15.171898    46A2    15.171898  
      75B1    15.196621    75B2    15.196621   111A1    15.619225  
     112A1    15.792541    47A2    15.792541    76B2    16.005649  
      76B1    16.005649   113A1    16.117105    77B2    16.479417  
      77B1    16.479417   114A1    16.888327   115A1    17.185734  
     116A1    17.284795    48A2    17.284795    78B2    17.340758  
      78B1    17.340758    79B2    18.382641    79B1    18.382641  
     117A1    18.504424    49A2    18.504424   118A1    19.113316  
      80B2    19.404324    80B1    19.404324   119A1    19.932998  
      81B2    20.355642    81B1    20.355642   120A1    22.382698  
     121A1    23.497167   122A1    40.206995   123A1    52.387071  

    Final Occupation by Irrep:
             A1    A2    B1    B2 
    DOCC [     5,    0,    1,    1 ]

  Energy converged.

  @RHF Final Energy:   -92.91319407508612

   => Energetics <=

    Nuclear Repulsion Energy =             23.6868390704135656
    One-Electron Energy =                -172.1732609148913298
    Two-Electron Energy =                  55.5732277693916501
    Total Energy =                        -92.9131940750861247



Properties will be evaluated at   0.000000,   0.000000,   0.000000 Bohr

Properties computed using the SCF density matrix

  Nuclear Dipole Moment: (a.u.)
     X:     0.0000      Y:     0.0000      Z:     1.5297

  Electronic Dipole Moment: (a.u.)
     X:     0.0000      Y:     0.0000      Z:    -0.2315

  Dipole Moment: (a.u.)
     X:     0.0000      Y:     0.0000      Z:     1.2981     Total:     1.2981

  Dipole Moment: (Debye)
     X:     0.0000      Y:     0.0000      Z:     3.2996     Total:     3.2996


*** tstop() called on cqc01 at Wed May  1 12:01:42 2019
Module time:
	user time   =     165.27 seconds =       2.75 minutes
	system time =      21.62 seconds =       0.36 minutes
	total time  =        326 seconds =       5.43 minutes
Total time:
	user time   =     165.27 seconds =       2.75 minutes
	system time =      21.62 seconds =       0.36 minutes
	total time  =        326 seconds =       5.43 minutes

*** tstart() called on cqc01
*** at Wed May  1 12:01:42 2019


	Wfn Parameters:
	--------------------
	Wavefunction         = CCSD
	Number of irreps     = 4
	Number of MOs        = 334
	Number of active MOs = 332
	AO-Basis             = NONE
	Semicanonical        = false
	Reference            = RHF
	Print Level          = 1

	IRREP	# MOs	# FZDC	# DOCC	# SOCC	# VIRT	# FZVR
	-----	-----	------	------	------	------	------
	 A1	   123	    2	    3	    0	    118	    0
	 A2	   49	    0	    0	    0	    49	    0
	 B1	   81	    0	    1	    0	    80	    0
	 B2	   81	    0	    1	    0	    80	    0
	Transforming integrals...
	IWL integrals will be deleted.
	(OO|OO)...
	Presorting SO-basis two-electron integrals.
	Sorting File: SO Ints (nn|nn) nbuckets = 1
	Transforming the one-electron integrals and constructing Fock matrices
	Starting first half-transformation.
	Sorting half-transformed integrals.
	First half integral transformation complete.
	Starting second half-transformation.
	Two-electron integral transformation complete.
	(OO|OV)...
	Starting second half-transformation.
	Two-electron integral transformation complete.
	(OO|VV)...
	Starting second half-transformation.
	Two-electron integral transformation complete.
	(OV|OO)...
	Starting first half-transformation.
	Sorting half-transformed integrals.
	First half integral transformation complete.
	Starting second half-transformation.
	Two-electron integral transformation complete.
	(OV|OV)...
	Starting second half-transformation.
	Two-electron integral transformation complete.
	(OV|VV)...
	Starting second half-transformation.
	Two-electron integral transformation complete.
	(VV|OO)...
	Starting first half-transformation.
	Sorting half-transformed integrals.
	First half integral transformation complete.
	Starting second half-transformation.
	Two-electron integral transformation complete.
	(VV|OV)...
	Starting second half-transformation.
	Two-electron integral transformation complete.
	(VV|VV)...
	Starting second half-transformation.
	Two-electron integral transformation complete.
	Frozen core energy     =    -88.53753522476248

	Size of irrep 0 of <ab|cd> integrals:    848.266 (MW) /   6786.125 (MB)
	Size of irrep 1 of <ab|cd> integrals:    593.604 (MW) /   4748.836 (MB)
	Size of irrep 2 of <ab|cd> integrals:    713.958 (MW) /   5711.667 (MB)
	Size of irrep 3 of <ab|cd> integrals:    713.958 (MW) /   5711.667 (MB)
	Total:                                  2869.787 (MW) /  22958.295 (MB)

	Size of irrep 0 of <ia|bc> integrals:     14.970 (MW) /    119.762 (MB)
	Size of irrep 1 of <ia|bc> integrals:      7.480 (MW) /     59.838 (MB)
	Size of irrep 2 of <ia|bc> integrals:     10.875 (MW) /     87.000 (MB)
	Size of irrep 3 of <ia|bc> integrals:     10.875 (MW) /     87.000 (MB)
	Total:                                    44.200 (MW) /    353.601 (MB)

	Size of irrep 0 of tijab amplitudes:       0.320 (MW) /      2.563 (MB)
	Size of irrep 1 of tijab amplitudes:       0.049 (MW) /      0.390 (MB)
	Size of irrep 2 of tijab amplitudes:       0.160 (MW) /      1.283 (MB)
	Size of irrep 3 of tijab amplitudes:       0.160 (MW) /      1.283 (MB)
	Total:                                     0.690 (MW) /      5.518 (MB)

	Nuclear Rep. energy          =     23.68683907041357
	SCF energy                   =    -92.91319407508612
	One-electron energy          =    -48.89613062533951
	Two-electron energy          =     20.83363270460184
	Reference energy             =    -92.91319407508658

*** tstop() called on cqc01 at Wed May  1 12:29:57 2019
Module time:
	user time   =     297.51 seconds =       4.96 minutes
	system time =     163.34 seconds =       2.72 minutes
	total time  =       1695 seconds =      28.25 minutes
Total time:
	user time   =     462.78 seconds =       7.71 minutes
	system time =     184.96 seconds =       3.08 minutes
	total time  =       2021 seconds =      33.68 minutes

*** tstart() called on cqc01
*** at Wed May  1 12:29:57 2019

            **************************
            *                        *
            *        CCENERGY        *
            *                        *
            **************************

    Nuclear Rep. energy (wfn)     =   23.686839070413566
    SCF energy          (wfn)     =  -92.913194075086125
    Reference energy    (file100) =  -92.913194075086579

    Input parameters:
    -----------------
    Wave function   =     CCSD
    Reference wfn   =     RHF
    Brueckner       =     No
    Memory (Mbytes) =     32000.0
    Maxiter         =     50
    R_Convergence   =     1.0e-07
    E_Convergence   =     1.0e-06
    Restart         =     Yes
    DIIS            =     Yes
    AO Basis        =     NONE
    ABCD            =     NEW
    Cache Level     =     2
    Cache Type      =     LOW
    Print Level     =     1
    Num. of threads =     1
    # Amps to Print =     10
    Print MP2 Amps? =     No
    Analyze T2 Amps =     No
    Print Pair Ener =     No
    Local CC        =     No
    SCS-MP2         =     False
    SCSN-MP2        =     False
    SCS-CCSD        =     False

MP2 correlation energy -0.3804215650620123
                Solving CC Amplitude Equations
                ------------------------------
  Iter             Energy              RMS        T1Diag      D1Diag    New D1Diag    D2Diag
  ----     ---------------------    ---------   ----------  ----------  ----------   --------
     0        -0.380421565061991    0.000e+00    0.000000    0.000000    0.000000    0.170371
     1        -0.379117479995929    3.017e-01    0.026673    0.054438    0.054438    0.185976
     2        -0.385198219075774    5.045e-02    0.015546    0.031401    0.031401    0.186382
     3        -0.376330469014178    1.319e-02    0.015713    0.031760    0.031760    0.180136
     4        -0.376555084659870    3.054e-03    0.015088    0.030540    0.030540    0.180066
     5        -0.376407631560167    9.052e-04    0.014948    0.030222    0.030222    0.179795
     6        -0.376332023642621    3.242e-04    0.014897    0.030132    0.030132    0.179674
     7        -0.376341303392802    8.600e-05    0.014888    0.030116    0.030116    0.179653
     8        -0.376341117149506    2.531e-05    0.014887    0.030116    0.030116    0.179646
     9        -0.376339072241769    1.083e-05    0.014886    0.030115    0.030115    0.179641
    10        -0.376338628270598    3.491e-06    0.014886    0.030115    0.030115    0.179639
    11        -0.376338602223150    1.038e-06    0.014886    0.030115    0.030115    0.179639
    12        -0.376338554477154    3.389e-07    0.014886    0.030115    0.030115    0.179639
    13        -0.376338560450508    7.923e-08    0.014886    0.030115    0.030115    0.179639
    13        -0.376338560450508    7.923e-08    0.014886    0.030115    0.030115    0.179639

    Iterations converged.


    CCSD corr. energy   =   -0.376338560450508
    PPL corr. energy    =    0.107777559756442
    OS PPL corr. energy =    0.091299742738390
    SS PPL corr. energy =    0.016477817018051
    Largest TIA Amplitudes:
              3 171         0.0141976268
              4 251         0.0141975173
              3 176         0.0140029638
              4 256         0.0140028887
              3 182         0.0095061042
              4 262         0.0095060751
              3 187         0.0089931382
              4 267         0.0089931322
              3 168        -0.0078535106
              4 248        -0.0078534713

    Largest TIjAb Amplitudes:
      4   4 249 249        -0.0704459499
      3   3 169 169        -0.0704459383
      3   4 169 249        -0.0432151788
      4   3 249 169        -0.0432151788
      3   3 169 170        -0.0431333222
      3   3 170 169        -0.0431333222
      4   4 249 250        -0.0431333203
      4   4 250 249        -0.0431333203
      3   3 169 172        -0.0417463691
      3   3 172 169        -0.0417463691

    SCF energy       (wfn)                    =  -92.913194075086125
    Reference energy (file100)                =  -92.913194075086579

    Opposite-spin MP2 correlation energy      =   -0.290998501729634
    Same-spin MP2 correlation energy          =   -0.089423063332357
    MP2 correlation energy                    =   -0.380421565062012
      * MP2 total energy                      =  -93.293615640148587

    Opposite-spin CCSD correlation energy     =   -0.301916246329875
    Same-spin CCSD correlation energy         =   -0.074422315508322
    CCSD correlation energy                   =   -0.376338560450508
      * CCSD total energy                     =  -93.289532635537086


*** tstop() called on cqc01 at Wed May  1 12:42:58 2019
Module time:
	user time   =      53.14 seconds =       0.89 minutes
	system time =      96.96 seconds =       1.62 minutes
	total time  =        781 seconds =      13.02 minutes
Total time:
	user time   =     515.92 seconds =       8.60 minutes
	system time =     281.92 seconds =       4.70 minutes
	total time  =       2802 seconds =      46.70 minutes

*** Psi4 exiting successfully. Buy a developer a beer!
