
    -----------------------------------------------------------------------
          Psi4: An Open-Source Ab Initio Electronic Structure Package
                               Psi4 1.2a1.dev939 

                         Git: Rev {HEAD} fa1ec19 


    R. M. Parrish, L. A. Burns, D. G. A. Smith, A. C. Simmonett,
    A. E. DePrince III, E. G. Hohenstein, U. Bozkaya, A. Yu. Sokolov,
    R. Di Remigio, R. M. Richard, J. F. Gonthier, A. M. James,
    H. R. McAlexander, A. Kumar, M. Saitow, X. Wang, B. P. Pritchard,
    P. Verma, H. F. Schaefer III, K. Patkowski, R. A. King, E. F. Valeev,
    F. A. Evangelista, J. M. Turney, T. D. Crawford, and C. D. Sherrill,
    J. Chem. Theory Comput. 13(7) pp 3185--3197 (2017).
    (doi: 10.1021/acs.jctc.7b00174)

    -----------------------------------------------------------------------


    Psi4 started on: Friday, 26 April 2019 06:38PM

    Process ID:  21239
    PSIDATADIR: /home/grueneis/src/psi4/objdir/stage/usr/local/psi4/share/psi4
    Memory:     500.0 MiB
    Threads:    1
    
  ==> Input File <==

--------------------------------------------------------------------------
# Any line starting with the # character is a comment line

memory 32000 mb

molecule molecule {
0 1
N          0.0000000000        0.0000000000       -0.6018924656
C          0.0000000000        0.0000000000        0.5651392093
H          0.0000000000        0.0000000000        1.6297003342
}

set {
  reference rhf
  basis aug-cc-pv(T+d)z
  scf_type OUT_OF_CORE
  freeze_core true
}

energy('ccsd')
--------------------------------------------------------------------------

  Memory set to  29.802 GiB by Python driver.

*** tstart() called on cqc01
*** at Fri Apr 26 18:38:00 2019

   => Loading Basis Set <=

    Name: AUG-CC-PV(T+D)Z
    Role: ORBITAL
    Keyword: BASIS
    atoms 1 entry N          line   301 file /home/grueneis/src/psi4/objdir/stage/usr/local/psi4/share/psi4/basis/aug-cc-pv_tpd_z.gbs 
    atoms 2 entry C          line   255 file /home/grueneis/src/psi4/objdir/stage/usr/local/psi4/share/psi4/basis/aug-cc-pv_tpd_z.gbs 
    atoms 3 entry H          line    56 file /home/grueneis/src/psi4/objdir/stage/usr/local/psi4/share/psi4/basis/aug-cc-pv_tpd_z.gbs 


         ---------------------------------------------------------
                                   SCF
            by Justin Turney, Rob Parrish, Andy Simmonett
                             and Daniel Smith
                              RHF Reference
                        1 Threads,  30517 MiB Core
         ---------------------------------------------------------

  ==> Geometry <==

    Molecular point group: c2v
    Full point group: C_inf_v

    Geometry (in Angstrom), charge = 0, multiplicity = 1:

       Center              X                  Y                   Z               Mass       
    ------------   -----------------  -----------------  -----------------  -----------------
           N          0.000000000000     0.000000000000    -0.601736179223    14.003074004780
           C          0.000000000000     0.000000000000     0.565295495677    12.000000000000
           H          0.000000000000     0.000000000000     1.629856620577     1.007825032070

  Running in c2v symmetry.

  Rotational constants: A = ************  B =      1.45547  C =      1.45547 [cm^-1]
  Rotational constants: A = ************  B =  43633.92186  C =  43633.92186 [MHz]
  Nuclear repulsion =   23.686839070413566

  Charge       = 0
  Multiplicity = 1
  Electrons    = 14
  Nalpha       = 7
  Nbeta        = 7

  ==> Algorithm <==

  SCF Algorithm Type is OUT_OF_CORE.
  DIIS enabled.
  MOM disabled.
  Fractional occupation disabled.
  Guess Type is SAD.
  Energy threshold   = 1.00e-08
  Density threshold  = 1.00e-08
  Integral threshold = 0.00e+00

  ==> Primary Basis <==

  Basis Set: AUG-CC-PV(T+D)Z
    Blend: AUG-CC-PV(T+D)Z
    Number of shells: 37
    Number of basis function: 115
    Number of Cartesian functions: 135
    Spherical Harmonics?: true
    Max angular momentum: 3

  ==> Pre-Iterations <==

   -------------------------------------------------------
    Irrep   Nso     Nmo     Nalpha   Nbeta   Ndocc  Nsocc
   -------------------------------------------------------
     A1        49      49       0       0       0       0
     A2        12      12       0       0       0       0
     B1        27      27       0       0       0       0
     B2        27      27       0       0       0       0
   -------------------------------------------------------
    Total     115     115       7       7       7       0
   -------------------------------------------------------

  ==> Integral Setup <==

  ==> DiskJK: Disk-Based J/K Matrices <==

    J tasked:                  Yes
    K tasked:                  Yes
    wK tasked:                  No
    Memory (MB):             22888
    Schwarz Cutoff:          1E-12

  Minimum eigenvalue in the overlap matrix is 8.6849935986E-05.
  Using Symmetric Orthogonalization.

  SCF Guess: Superposition of Atomic Densities via on-the-fly atomic UHF.

  ==> Iterations <==

                        Total Energy        Delta E     RMS |[F,P]|

   @RHF iter   0:   -93.32144522058587   -9.33214e+01   3.70179e-02 
   @RHF iter   1:   -92.83766783970309    4.83777e-01   4.61645e-03 
   @RHF iter   2:   -92.86977551821030   -3.21077e-02   4.45077e-03 DIIS
   @RHF iter   3:   -92.90220293244256   -3.24274e-02   6.51867e-04 DIIS
   @RHF iter   4:   -92.90518094319246   -2.97801e-03   3.21014e-04 DIIS
   @RHF iter   5:   -92.90627734876139   -1.09641e-03   1.54945e-04 DIIS
   @RHF iter   6:   -92.90661315710658   -3.35808e-04   6.48226e-05 DIIS
   @RHF iter   7:   -92.90667424805112   -6.10909e-05   1.92109e-05 DIIS
   @RHF iter   8:   -92.90667656256603   -2.31451e-06   3.02005e-06 DIIS
   @RHF iter   9:   -92.90667659130133   -2.87353e-08   3.12020e-07 DIIS
   @RHF iter  10:   -92.90667659161475   -3.13420e-10   3.93440e-08 DIIS
   @RHF iter  11:   -92.90667659162202   -7.26175e-12   7.25783e-09 DIIS

  ==> Post-Iterations <==

    Orbital Energies (a.u.)
    -----------------------

    Doubly Occupied:                                                      

       1A1   -15.605098     2A1   -11.297362     3A1    -1.230692  
       4A1    -0.815718     5A1    -0.582963     1B2    -0.492798  
       1B1    -0.492798  

    Virtual:                                                              

       6A1     0.023017     7A1     0.071517     2B2     0.072771  
       2B1     0.072771     8A1     0.127490     3B1     0.134862  
       3B2     0.134862     9A1     0.145861     4B1     0.194991  
       4B2     0.194991    10A1     0.223968    11A1     0.266108  
       1A2     0.293962    12A1     0.293962     5B2     0.302565  
       5B1     0.302565    13A1     0.374837    14A1     0.406299  
       6B2     0.438789     6B1     0.438789    15A1     0.550014  
       2A2     0.550014    16A1     0.560949     7B2     0.578668  
       7B1     0.578668    17A1     0.602780     8B2     0.653631  
       8B1     0.653631    18A1     0.778762    19A1     0.852911  
       9B2     0.874848     9B1     0.874848     3A2     0.878800  
      20A1     0.878800    21A1     0.958697    22A1     1.068235  
      10B2     1.078704    10B1     1.078704    11B2     1.087380  
      11B1     1.087380     4A2     1.119806    23A1     1.119806  
      24A1     1.235584    12B2     1.236908    12B1     1.236908  
      25A1     1.342854     5A2     1.342854    26A1     1.413733  
      13B2     1.585039    13B1     1.585039    14B2     1.635486  
      14B1     1.635486    15B2     1.651834    15B1     1.651834  
      27A1     1.762573     6A2     1.762573    28A1     1.874420  
      29A1     1.921118    16B2     2.066761    16B1     2.066761  
      30A1     2.074240     7A2     2.258105    31A1     2.258105  
      17B2     2.400742    17B1     2.400742    32A1     2.435526  
      33A1     2.577161    18B2     2.955931    18B1     2.955931  
      34A1     3.002959    19B2     3.308868    19B1     3.308868  
      35A1     3.389881     8A2     3.389881    20B2     3.439236  
      20B1     3.439236     9A2     3.449885    36A1     3.449885  
      37A1     3.710254    21B1     3.790523    21B2     3.790523  
      38A1     3.876503    10A2     4.217974    39A1     4.217974  
      22B1     4.359338    22B2     4.359338    40A1     4.500580  
      41A1     4.615735    23B2     4.742421    23B1     4.742421  
      24B2     4.965888    24B1     4.965888    11A2     5.226300  
      42A1     5.226300    43A1     5.332984    25B1     5.368323  
      25B2     5.368323    12A2     5.493747    44A1     5.493747  
      45A1     5.725064    26B1     5.739973    26B2     5.739973  
      46A1     6.357653    27B1     6.819838    27B2     6.819838  
      47A1     6.942168    48A1    14.208347    49A1    17.788328  

    Final Occupation by Irrep:
             A1    A2    B1    B2 
    DOCC [     5,    0,    1,    1 ]

  Energy converged.

  @RHF Final Energy:   -92.90667659162202

   => Energetics <=

    Nuclear Repulsion Energy =             23.6868390704135656
    One-Electron Energy =                -172.1521726836996606
    Two-Electron Energy =                  55.5586570216640894
    Total Energy =                        -92.9066765916220163



Properties will be evaluated at   0.000000,   0.000000,   0.000000 Bohr

Properties computed using the SCF density matrix

  Nuclear Dipole Moment: (a.u.)
     X:     0.0000      Y:     0.0000      Z:     1.5297

  Electronic Dipole Moment: (a.u.)
     X:     0.0000      Y:     0.0000      Z:    -0.2310

  Dipole Moment: (a.u.)
     X:     0.0000      Y:     0.0000      Z:     1.2987     Total:     1.2987

  Dipole Moment: (Debye)
     X:     0.0000      Y:     0.0000      Z:     3.3010     Total:     3.3010


*** tstop() called on cqc01 at Fri Apr 26 18:38:06 2019
Module time:
	user time   =       3.00 seconds =       0.05 minutes
	system time =       1.75 seconds =       0.03 minutes
	total time  =          6 seconds =       0.10 minutes
Total time:
	user time   =       3.00 seconds =       0.05 minutes
	system time =       1.75 seconds =       0.03 minutes
	total time  =          6 seconds =       0.10 minutes

*** tstart() called on cqc01
*** at Fri Apr 26 18:38:06 2019


	Wfn Parameters:
	--------------------
	Wavefunction         = CCSD
	Number of irreps     = 4
	Number of MOs        = 115
	Number of active MOs = 113
	AO-Basis             = NONE
	Semicanonical        = false
	Reference            = RHF
	Print Level          = 1

	IRREP	# MOs	# FZDC	# DOCC	# SOCC	# VIRT	# FZVR
	-----	-----	------	------	------	------	------
	 A1	   49	    2	    3	    0	    44	    0
	 A2	   12	    0	    0	    0	    12	    0
	 B1	   27	    0	    1	    0	    26	    0
	 B2	   27	    0	    1	    0	    26	    0
	Transforming integrals...
	IWL integrals will be deleted.
	(OO|OO)...
	Presorting SO-basis two-electron integrals.
	Sorting File: SO Ints (nn|nn) nbuckets = 1
	Transforming the one-electron integrals and constructing Fock matrices
	Starting first half-transformation.
	Sorting half-transformed integrals.
	First half integral transformation complete.
	Starting second half-transformation.
	Two-electron integral transformation complete.
	(OO|OV)...
	Starting second half-transformation.
	Two-electron integral transformation complete.
	(OO|VV)...
	Starting second half-transformation.
	Two-electron integral transformation complete.
	(OV|OO)...
	Starting first half-transformation.
	Sorting half-transformed integrals.
	First half integral transformation complete.
	Starting second half-transformation.
	Two-electron integral transformation complete.
	(OV|OV)...
	Starting second half-transformation.
	Two-electron integral transformation complete.
	(OV|VV)...
	Starting second half-transformation.
	Two-electron integral transformation complete.
	(VV|OO)...
	Starting first half-transformation.
	Sorting half-transformed integrals.
	First half integral transformation complete.
	Starting second half-transformation.
	Two-electron integral transformation complete.
	(VV|OV)...
	Starting second half-transformation.
	Two-electron integral transformation complete.
	(VV|VV)...
	Starting second half-transformation.
	Two-electron integral transformation complete.
	Frozen core energy     =    -88.53577418361870

	Size of irrep 0 of <ab|cd> integrals:     11.779 (MW) /     94.229 (MB)
	Size of irrep 1 of <ab|cd> integrals:      5.798 (MW) /     46.388 (MB)
	Size of irrep 2 of <ab|cd> integrals:      8.480 (MW) /     67.838 (MB)
	Size of irrep 3 of <ab|cd> integrals:      8.480 (MW) /     67.838 (MB)
	Total:                                    34.537 (MW) /    276.293 (MB)

	Size of irrep 0 of <ia|bc> integrals:      0.631 (MW) /      5.052 (MB)
	Size of irrep 1 of <ia|bc> integrals:      0.212 (MW) /      1.695 (MB)
	Size of irrep 2 of <ia|bc> integrals:      0.390 (MW) /      3.122 (MB)
	Size of irrep 3 of <ia|bc> integrals:      0.390 (MW) /      3.122 (MB)
	Total:                                     1.624 (MW) /     12.990 (MB)

	Size of irrep 0 of tijab amplitudes:       0.038 (MW) /      0.302 (MB)
	Size of irrep 1 of tijab amplitudes:       0.005 (MW) /      0.039 (MB)
	Size of irrep 2 of tijab amplitudes:       0.017 (MW) /      0.140 (MB)
	Size of irrep 3 of tijab amplitudes:       0.017 (MW) /      0.140 (MB)
	Total:                                     0.078 (MW) /      0.620 (MB)

	Nuclear Rep. energy          =     23.68683907041357
	SCF energy                   =    -92.90667659162202
	One-electron energy          =    -48.88554349718807
	Two-electron energy          =     20.82780201877087
	Reference energy             =    -92.90667659162233

*** tstop() called on cqc01 at Fri Apr 26 18:38:29 2019
Module time:
	user time   =       2.20 seconds =       0.04 minutes
	system time =       1.06 seconds =       0.02 minutes
	total time  =         23 seconds =       0.38 minutes
Total time:
	user time   =       5.20 seconds =       0.09 minutes
	system time =       2.81 seconds =       0.05 minutes
	total time  =         29 seconds =       0.48 minutes

*** tstart() called on cqc01
*** at Fri Apr 26 18:38:29 2019

            **************************
            *                        *
            *        CCENERGY        *
            *                        *
            **************************

    Nuclear Rep. energy (wfn)     =   23.686839070413566
    SCF energy          (wfn)     =  -92.906676591622016
    Reference energy    (file100) =  -92.906676591622329

    Input parameters:
    -----------------
    Wave function   =     CCSD
    Reference wfn   =     RHF
    Brueckner       =     No
    Memory (Mbytes) =     32000.0
    Maxiter         =     50
    R_Convergence   =     1.0e-07
    E_Convergence   =     1.0e-06
    Restart         =     Yes
    DIIS            =     Yes
    AO Basis        =     NONE
    ABCD            =     NEW
    Cache Level     =     2
    Cache Type      =     LOW
    Print Level     =     1
    Num. of threads =     1
    # Amps to Print =     10
    Print MP2 Amps? =     No
    Analyze T2 Amps =     No
    Print Pair Ener =     No
    Local CC        =     No
    SCS-MP2         =     False
    SCSN-MP2        =     False
    SCS-CCSD        =     False

MP2 correlation energy -0.3530733330529853
                Solving CC Amplitude Equations
                ------------------------------
  Iter             Energy              RMS        T1Diag      D1Diag    New D1Diag    D2Diag
  ----     ---------------------    ---------   ----------  ----------  ----------   --------
     0        -0.353073333052947    0.000e+00    0.000000    0.000000    0.000000    0.169040
     1        -0.365944398718918    2.893e-01    0.025562    0.051661    0.051661    0.189604
     2        -0.363292954597123    4.663e-02    0.015388    0.030635    0.030635    0.186843
     3        -0.355394017655291    1.167e-02    0.015423    0.030668    0.030668    0.181353
     4        -0.355727353997372    2.923e-03    0.014843    0.029569    0.029569    0.181378
     5        -0.355556119847645    8.719e-04    0.014709    0.029263    0.029263    0.181131
     6        -0.355479534726497    2.919e-04    0.014659    0.029179    0.029179    0.181025
     7        -0.355497194664663    7.413e-05    0.014651    0.029166    0.029166    0.181019
     8        -0.355496411804982    2.099e-05    0.014650    0.029165    0.029165    0.181014
     9        -0.355494619129304    8.376e-06    0.014650    0.029164    0.029164    0.181010
    10        -0.355494371064438    2.790e-06    0.014650    0.029164    0.029164    0.181009
    11        -0.355494333672671    8.753e-07    0.014650    0.029164    0.029164    0.181008
    12        -0.355494289380818    2.706e-07    0.014650    0.029164    0.029164    0.181008
    13        -0.355494298852596    6.700e-08    0.014650    0.029164    0.029164    0.181008
    13        -0.355494298852596    6.700e-08    0.014650    0.029164    0.029164    0.181008

    Iterations converged.


    CCSD corr. energy   =   -0.355494298852596
    PPL corr. energy    =    0.097534060025802
    OS PPL corr. energy =    0.081879945386842
    SS PPL corr. energy =    0.015654114638959
    Largest TIA Amplitudes:
              4  86         0.0150804831
              3  60         0.0150803474
              4  91         0.0138003999
              3  65         0.0138003396
              4  83        -0.0124771647
              3  57        -0.0124770803
              2   8        -0.0082429438
              4  93         0.0075935690
              3  67         0.0075935675
              2   5         0.0070034171

    Largest TIjAb Amplitudes:
      4   4  84  84        -0.0704902364
      3   3  58  58        -0.0704902348
      3   3  57  58        -0.0483830402
      3   3  58  57        -0.0483830402
      4   4  83  84        -0.0483830367
      4   4  84  83        -0.0483830367
      3   4  58  84        -0.0430875266
      4   3  84  58        -0.0430875266
      3   3  57  57        -0.0378781148
      4   4  83  83        -0.0378780968

    SCF energy       (wfn)                    =  -92.906676591622016
    Reference energy (file100)                =  -92.906676591622329

    Opposite-spin MP2 correlation energy      =   -0.266678763618782
    Same-spin MP2 correlation energy          =   -0.086394569434165
    MP2 correlation energy                    =   -0.353073333052985
      * MP2 total energy                      =  -93.259749924675319

    Opposite-spin CCSD correlation energy     =   -0.283676481449063
    Same-spin CCSD correlation energy         =   -0.071817820154062
    CCSD correlation energy                   =   -0.355494298852596
      * CCSD total energy                     =  -93.262170890474920


*** tstop() called on cqc01 at Fri Apr 26 18:39:07 2019
Module time:
	user time   =       2.15 seconds =       0.04 minutes
	system time =       4.58 seconds =       0.08 minutes
	total time  =         38 seconds =       0.63 minutes
Total time:
	user time   =       7.35 seconds =       0.12 minutes
	system time =       7.39 seconds =       0.12 minutes
	total time  =         67 seconds =       1.12 minutes

*** Psi4 exiting successfully. Buy a developer a beer!
