
    -----------------------------------------------------------------------
          Psi4: An Open-Source Ab Initio Electronic Structure Package
                               Psi4 1.2a1.dev939 

                         Git: Rev {HEAD} fa1ec19 dirty


    R. M. Parrish, L. A. Burns, D. G. A. Smith, A. C. Simmonett,
    A. E. DePrince III, E. G. Hohenstein, U. Bozkaya, A. Yu. Sokolov,
    R. Di Remigio, R. M. Richard, J. F. Gonthier, A. M. James,
    H. R. McAlexander, A. Kumar, M. Saitow, X. Wang, B. P. Pritchard,
    P. Verma, H. F. Schaefer III, K. Patkowski, R. A. King, E. F. Valeev,
    F. A. Evangelista, J. M. Turney, T. D. Crawford, and C. D. Sherrill,
    J. Chem. Theory Comput. 13(7) pp 3185--3197 (2017).
    (doi: 10.1021/acs.jctc.7b00174)

    -----------------------------------------------------------------------


    Psi4 started on: Friday, 30 October 2020 11:35AM

    Process ID: 307219
    PSIDATADIR: /home/fs71337/airmler/src/psi4_uhf/build/stage/usr/local/psi4/share/psi4
    Memory:     500.0 MiB
    Threads:    48
    
  ==> Input File <==

--------------------------------------------------------------------------
# Any line starting with the # character is a comment line
memory 250000 mb
molecule molecule{
0 2
O          0.0000000000        0.0000000000       -0.5412437487
N          0.0000000000        0.0000000000        0.6182452136
}

set {
  reference uhf
  basis aug-cc-pv(5+d)z
  scf_type OUT_OF_CORE
  freeze_core true
}

energy('ccsd')
--------------------------------------------------------------------------

  Memory set to 232.831 GiB by Python driver.

*** tstart() called on n412-036.vsc4.prov
*** at Fri Oct 30 11:35:22 2020

   => Loading Basis Set <=

    Name: AUG-CC-PV(5+D)Z
    Role: ORBITAL
    Keyword: BASIS
    atoms 1 entry O          line   377 file /home/fs71337/airmler/src/psi4_uhf/build/stage/usr/local/psi4/share/psi4/basis/aug-cc-pv_5pd_z.gbs 
    atoms 2 entry N          line   300 file /home/fs71337/airmler/src/psi4_uhf/build/stage/usr/local/psi4/share/psi4/basis/aug-cc-pv_5pd_z.gbs 


         ---------------------------------------------------------
                                   SCF
            by Justin Turney, Rob Parrish, Andy Simmonett
                             and Daniel Smith
                              UHF Reference
                       48 Threads, 238418 MiB Core
         ---------------------------------------------------------

  ==> Geometry <==

    Molecular point group: c2v
    Full point group: C_inf_v

    Geometry (in Angstrom), charge = 0, multiplicity = 2:

       Center              X                  Y                   Z               Mass       
    ------------   -----------------  -----------------  -----------------  -----------------
           O          0.000000000000     0.000000000000    -0.541249946793    15.994914619560
           N          0.000000000000     0.000000000000     0.618239015507    14.003074004780

  Running in c2v symmetry.

  Rotational constants: A = ************  B =      1.67938  C =      1.67938 [cm^-1]
  Rotational constants: A = ************  B =  50346.67388  C =  50346.67388 [MHz]
  Nuclear repulsion =   25.557745390052858

  Charge       = 0
  Multiplicity = 2
  Electrons    = 15
  Nalpha       = 8
  Nbeta        = 7

  ==> Algorithm <==

  SCF Algorithm Type is OUT_OF_CORE.
  DIIS enabled.
  MOM disabled.
  Fractional occupation disabled.
  Guess Type is GWH.
  Energy threshold   = 1.00e-08
  Density threshold  = 1.00e-08
  Integral threshold = 0.00e+00

  ==> Primary Basis <==

  Basis Set: AUG-CC-PV(5+D)Z
    Blend: AUG-CC-PV(5+D)Z
    Number of shells: 54
    Number of basis function: 254
    Number of Cartesian functions: 364
    Spherical Harmonics?: true
    Max angular momentum: 5

  ==> Pre-Iterations <==

   -------------------------------------------------------
    Irrep   Nso     Nmo     Nalpha   Nbeta   Ndocc  Nsocc
   -------------------------------------------------------
     A1        92      92       0       0       0       0
     A2        38      38       0       0       0       0
     B1        62      62       0       0       0       0
     B2        62      62       0       0       0       0
   -------------------------------------------------------
    Total     254     254       8       7       7       1
   -------------------------------------------------------

  ==> Integral Setup <==

  ==> DiskJK: Disk-Based J/K Matrices <==

    J tasked:                  Yes
    K tasked:                  Yes
    wK tasked:                  No
    Memory (MB):            178813
    Schwarz Cutoff:          1E-12

  Minimum eigenvalue in the overlap matrix is 1.3711410933E-05.
  Using Symmetric Orthogonalization.

  SCF Guess: Generalized Wolfsberg-Helmholtz.

  ==> Iterations <==

                        Total Energy        Delta E     RMS |[F,P]|

    Occupation by irrep:
             A1    A2    B1    B2 
    DOCC [     5,    0,    1,    1 ]
    SOCC [     0,    0,    0,    1 ]

   @UHF iter   1:  -117.95678029461884   -1.17957e+02   2.87441e-01 
    Occupation by irrep:
             A1    A2    B1    B2 
    DOCC [     5,    0,    1,    1 ]
    SOCC [     1,    0,    0,    0 ]

   @UHF iter   2:  -118.93754852575314   -9.80768e-01   8.57296e-02 DIIS
    Occupation by irrep:
             A1    A2    B1    B2 
    DOCC [     5,    0,    1,    1 ]
    SOCC [     0,    0,    0,    1 ]

   @UHF iter   3:  -120.77526403892593   -1.83772e+00   1.45408e-01 DIIS
   @UHF iter   4:  -126.96860827423636   -6.19334e+00   7.56192e-02 DIIS
   @UHF iter   5:  -128.48689503556244   -1.51829e+00   3.51695e-02 DIIS
   @UHF iter   6:  -129.25435799620101   -7.67463e-01   9.12551e-03 DIIS
   @UHF iter   7:  -129.30130985963956   -4.69519e-02   2.53658e-03 DIIS
   @UHF iter   8:  -129.30635820956240   -5.04835e-03   6.26754e-04 DIIS
   @UHF iter   9:  -129.30695799333523   -5.99784e-04   3.28486e-04 DIIS
   @UHF iter  10:  -129.30712317101967   -1.65178e-04   8.47190e-05 DIIS
   @UHF iter  11:  -129.30714904631554   -2.58753e-05   6.67446e-05 DIIS
   @UHF iter  12:  -129.30717045046305   -2.14041e-05   6.27135e-05 DIIS
   @UHF iter  13:  -129.30721215440644   -4.17039e-05   5.04365e-05 DIIS
   @UHF iter  14:  -129.30726893841984   -5.67840e-05   4.94653e-05 DIIS
   @UHF iter  15:  -129.30736213304721   -9.31946e-05   4.83122e-05 DIIS
   @UHF iter  16:  -129.30746338231097   -1.01249e-04   2.06603e-05 DIIS
   @UHF iter  17:  -129.30746965993404   -6.27762e-06   9.63216e-06 DIIS
   @UHF iter  18:  -129.30747027631054   -6.16376e-07   1.12678e-05 DIIS
   @UHF iter  19:  -129.30747075468020   -4.78370e-07   1.17757e-06 DIIS
   @UHF iter  20:  -129.30747076423097   -9.55077e-09   2.14079e-07 DIIS
   @UHF iter  21:  -129.30747076456282   -3.31852e-10   2.05321e-07 DIIS
   @UHF iter  22:  -129.30747076490820   -3.45381e-10   5.36448e-08 DIIS
   @UHF iter  23:  -129.30747076493270   -2.44995e-11   4.05245e-09 DIIS

  ==> Post-Iterations <==

   @Spin Contamination Metric:   7.671024417E-02
   @S^2 Expected:                7.500000000E-01
   @S^2 Observed:                8.267102442E-01
   @S   Expected:                5.000000000E-01
   @S   Observed:                5.000000000E-01

    Orbital Energies (a.u.)
    -----------------------

    Alpha Occupied:                                                       

       1A1   -20.697617     2A1   -15.736051     3A1    -1.603846  
       4A1    -0.972380     1B2    -0.786493     5A1    -0.698298  
       1B1    -0.639221     2B2    -0.431836  

    Alpha Virtual:                                                        

       6A1     0.061743     2B1     0.067189     7A1     0.083712  
       3B2     0.084985     3B1     0.090472     8A1     0.132230  
       4B2     0.133957     4B1     0.143933     9A1     0.223987  
       1A2     0.284620    10A1     0.284620    11A1     0.321563  
       5B2     0.332086     5B1     0.333324     6B2     0.369330  
       6B1     0.378522    12A1     0.395332    13A1     0.452841  
       2A2     0.460992    14A1     0.461611     7B2     0.499861  
       7B1     0.516263    15A1     0.571876    16A1     0.684396  
       8B2     0.687651     8B1     0.695526    17A1     0.768066  
       9B2     0.769757     9B1     0.769757     3A2     0.864144  
      18A1     0.864425    10B1     0.879927    10B2     0.880498  
      19A1     0.899314     4A2     0.922198    20A1     0.922917  
      11B2     1.078504    11B1     1.078520    12B2     1.099666  
      12B1     1.106426    21A1     1.110007     5A2     1.162878  
      22A1     1.162882    23A1     1.229516    13B2     1.271712  
      13B1     1.278780    24A1     1.290412    14B2     1.430301  
      14B1     1.450768    25A1     1.510393     6A2     1.510452  
      26A1     1.571439    15B2     1.571511    15B1     1.585222  
      27A1     1.780632    16B2     2.086748    16B1     2.097289  
      28A1     2.115177     7A2     2.115177    29A1     2.240388  
      17B1     2.241452    17B2     2.241453     8A2     2.315935  
      30A1     2.317047    18B2     2.347723    18B1     2.347755  
      31A1     2.367894     9A2     2.367907    19B2     2.368516  
      19B1     2.368857    32A1     2.505789    33A1     2.515261  
      20B1     2.631440    20B2     2.634522    10A2     2.645973  
      34A1     2.646259    35A1     2.664029    11A2     2.728108  
      36A1     2.728108    21B2     2.881688    21B1     2.881688  
      22B1     3.031685    22B2     3.038212    37A1     3.059726  
      12A2     3.060088    38A1     3.095778    23B1     3.219272  
      23B2     3.220652    24B1     3.308477    24B2     3.308481  
      39A1     3.339244    13A2     3.359686    40A1     3.359894  
      25B2     3.653131    25B1     3.662413    41A1     3.809104  
      26B2     3.992326    26B1     3.992954    42A1     4.100575  
      14A2     4.226300    43A1     4.226664    27B2     4.686213  
      27B1     4.686213    44A1     4.819464    15A2     4.885597  
      45A1     4.885597    28B1     4.974113    28B2     4.976164  
      46A1     5.083328    29B2     5.290631    29B1     5.298975  
      30B1     5.469774    30B2     5.469779    47A1     5.519324  
      16A2     5.519607    31B1     5.591221    48A1     5.594584  
      17A2     5.594584    31B2     5.603684    49A1     5.632039  
      32B1     5.637097    32B2     5.637206    50A1     5.795960  
      18A2     5.797290    51A1     5.823721    33B1     5.862921  
      33B2     5.862958    19A2     5.898237    52A1     5.898354  
      34B1     5.924581    34B2     5.939238    35B1     6.211093  
      35B2     6.211093    53A1     6.267560    36B1     6.743590  
      36B2     6.757482    20A2     6.786142    54A1     6.786142  
      55A1     6.978587    21A2     7.077892    56A1     7.077893  
      22A2     7.104902    57A1     7.105151    37B1     7.174228  
      37B2     7.174234    38B1     7.290923    38B2     7.301319  
      58A1     7.375425    23A2     7.375486    39B1     7.407341  
      39B2     7.419298    40B1     7.496209    40B2     7.496215  
      59A1     7.586136    60A1     7.948346    61A1     8.119544  
      24A2     8.119559    41B1     8.207624    41B2     8.207626  
      25A2     8.338511    62A1     8.338592    42B1     8.541332  
      42B2     8.551909    63A1     8.601870    64A1     8.968412  
      65A1     9.672352    43B1     9.870521    43B2     9.883516  
      26A2    10.143580    66A1    10.143685    44B1    10.920759  
      44B2    10.931055    67A1    11.546692    45B1    12.322101  
      45B2    12.322101    68A1    12.403137    27A2    12.403137  
      46B1    12.674634    46B2    12.677979    47B1    12.681663  
      47B2    12.686858    69A1    13.077771    28A2    13.080057  
      70A1    13.149568    48B1    13.259490    48B2    13.279559  
      71A1    13.371685    49B1    14.490088    49B2    14.490088  
      72A1    14.565884    29A2    14.565885    73A1    14.666381  
      50B1    14.672072    50B2    14.690926    51B1    14.708505  
      51B2    14.710533    74A1    14.724883    30A2    14.724958  
      75A1    14.842017    31A2    15.436752    76A1    15.436954  
      52B1    16.008902    52B2    16.015782    53B1    16.180185  
      53B2    16.180185    77A1    16.383012    32A2    16.383012  
      78A1    16.770832    54B1    16.935954    54B2    16.935958  
      55B1    17.140241    55B2    17.156924    33A2    17.263184  
      79A1    17.263334    56B1    17.550357    56B2    17.569832  
      80A1    17.967063    34A2    17.979954    81A1    17.980157  
      82A1    18.306890    83A1    19.031637    35A2    19.031637  
      84A1    19.036595    57B1    19.200533    57B2    19.200571  
      58B1    19.208411    58B2    19.224227    59B1    19.272449  
      59B2    19.272472    85A1    19.575328    36A2    19.575381  
      60B1    19.985108    60B2    20.005644    86A1    20.108871  
      37A2    20.109281    87A1    20.246955    61B1    22.497366  
      61B2    22.514896    38A2    22.638140    88A1    22.638163  
      62B1    23.872101    89A1    23.874904    62B2    23.885844  
      90A1    25.082560    91A1    51.751139    92A1    65.775231  

    Beta Occupied:                                                        

       1A1   -20.693190     2A1   -15.699739     3A1    -1.573106  
       4A1    -0.888334     1B1    -0.666803     5A1    -0.651041  
       1B2    -0.613975  

    Beta Virtual:                                                         

       6A1     0.061926     2B1     0.070168     2B2     0.079532  
       7A1     0.085722     3B1     0.112004     3B2     0.124417  
       8A1     0.132960     4B1     0.146514     4B2     0.171216  
       9A1     0.224641    10A1     0.287299     1A2     0.287350  
      11A1     0.322808     5B1     0.331114     5B2     0.335559  
       6B1     0.393048     6B2     0.404111    12A1     0.406111  
      13A1     0.452470     2A2     0.460533    14A1     0.461429  
       7B1     0.518559     7B2     0.531506    15A1     0.574968  
       8B1     0.688834     8B2     0.699097    16A1     0.700591  
       9B1     0.772214     9B2     0.772219    17A1     0.790557  
      18A1     0.880660    10B1     0.880772     3A2     0.881137  
      10B2     0.888693    19A1     0.906152     4A2     0.932659  
      20A1     0.932934    11B1     1.078589    11B2     1.078607  
      12B1     1.111200    21A1     1.112657    12B2     1.125733  
       5A2     1.164501    22A1     1.164659    23A1     1.232157  
      13B1     1.285798    24A1     1.294810    13B2     1.298814  
      14B1     1.470094    14B2     1.494256    25A1     1.515849  
       6A2     1.516306    15B1     1.570493    26A1     1.576408  
      15B2     1.591218    27A1     1.796878    16B1     2.090970  
      16B2     2.113164     7A2     2.120556    28A1     2.120556  
      29A1     2.251018    17B1     2.257729    17B2     2.257737  
       8A2     2.340539    30A1     2.341313    18B1     2.354607  
      18B2     2.354805    19B1     2.374173    19B2     2.393487  
      31A1     2.407531     9A2     2.408018    32A1     2.512426  
      33A1     2.517423    20B1     2.635039    10A2     2.652582  
      34A1     2.652808    20B2     2.654850    35A1     2.682580  
      11A2     2.728518    36A1     2.728519    21B1     2.883041  
      21B2     2.883052    22B1     3.031667    22B2     3.047219  
      37A1     3.062792    12A2     3.064464    38A1     3.099407  
      23B1     3.213669    23B2     3.235980    24B1     3.309999  
      24B2     3.310009    39A1     3.341822    13A2     3.365588  
      40A1     3.370434    25B1     3.688363    25B2     3.722216  
      41A1     3.822733    26B1     3.993187    26B2     4.020614  
      42A1     4.106622    14A2     4.244176    43A1     4.245471  
      27B1     4.695663    27B2     4.695663    44A1     4.839408  
      15A2     4.891540    45A1     4.891540    28B1     4.979763  
      28B2     5.012647    46A1     5.092648    29B1     5.289450  
      29B2     5.328548    30B1     5.482711    30B2     5.482759  
      47A1     5.532785    16A2     5.533715    31B1     5.592317  
      31B2     5.612357    48A1     5.616807    17A2     5.616808  
      49A1     5.638008    32B1     5.650627    32B2     5.650878  
      50A1     5.814061    18A2     5.825944    51A1     5.846012  
      33B1     5.897989    33B2     5.898328    19A2     5.913275  
      52A1     5.913470    34B1     5.927493    34B2     5.954845  
      35B1     6.210781    35B2     6.210781    53A1     6.279923  
      36B1     6.750905    36B2     6.778803    20A2     6.787764  
      54A1     6.787764    55A1     6.981701    21A2     7.078454  
      56A1     7.078459    22A2     7.122602    57A1     7.123205  
      37B1     7.177116    37B2     7.177137    38B1     7.290341  
      38B2     7.318402    23A2     7.402225    58A1     7.402541  
      39B1     7.404785    39B2     7.429302    40B1     7.497961  
      40B2     7.497990    59A1     7.593417    60A1     7.961933  
      24A2     8.127125    61A1     8.127531    41B1     8.211973  
      41B2     8.211985    25A2     8.342006    62A1     8.342348  
      42B1     8.547535    42B2     8.582317    63A1     8.607006  
      64A1     8.980390    65A1     9.678182    43B1     9.869413  
      43B2     9.900969    26A2    10.154998    66A1    10.155564  
      44B1    10.918263    44B2    10.950526    67A1    11.563599  
      45B1    12.345600    45B2    12.345600    68A1    12.421195  
      27A2    12.421195    46B1    12.690119    46B2    12.692357  
      47B1    12.700167    47B2    12.736521    69A1    13.088226  
      28A2    13.092285    70A1    13.159993    48B1    13.267431  
      48B2    13.299021    71A1    13.382192    49B1    14.534768  
      49B2    14.534773    72A1    14.601104    29A2    14.601112  
      50B1    14.678722    73A1    14.683476    50B2    14.707505  
      51B1    14.735670    51B2    14.738546    74A1    14.743575  
      30A2    14.744142    75A1    14.854927    31A2    15.463467  
      76A1    15.464074    52B1    16.001922    52B2    16.041103  
      53B1    16.181661    53B2    16.181661    77A1    16.383817  
      32A2    16.383817    78A1    16.778733    54B1    16.937522  
      54B2    16.937535    55B1    17.141602    55B2    17.179823  
      33A2    17.272636    79A1    17.273009    56B1    17.553342  
      56B2    17.585362    80A1    17.973986    81A1    18.013730  
      34A2    18.013783    82A1    18.311034    83A1    19.035173  
      35A2    19.035174    84A1    19.045075    57B1    19.205376  
      57B2    19.205801    58B1    19.215693    58B2    19.246897  
      59B1    19.274646    59B2    19.274875    85A1    19.578446  
      36A2    19.578497    60B1    19.981715    60B2    20.016326  
      86A1    20.110743    37A2    20.112100    87A1    20.249300  
      61B1    22.493008    61B2    22.527386    38A2    22.644000  
      88A1    22.644067    62B1    23.864939    89A1    23.878126  
      62B2    23.898608    90A1    25.084468    91A1    51.764872  
      92A1    65.777412  

    Final Occupation by Irrep:
             A1    A2    B1    B2 
    DOCC [     5,    0,    1,    1 ]
    SOCC [     0,    0,    0,    1 ]

  Energy converged.

  @UHF Final Energy:  -129.30747076493270

   => Energetics <=

    Nuclear Repulsion Energy =             25.5577453900528582
    One-Electron Energy =                -227.3785015485561303
    Two-Electron Energy =                  72.5132853935705981
    Total Energy =                       -129.3074707649327024


  UHF NO Occupations:
  HONO-2 :    1 B2 1.9963987
  HONO-1 :    1 B1 1.9676975
  HONO-0 :    2 B2 1.0000000
  LUNO+0 :    2 B1 0.0323025
  LUNO+1 :    3 B2 0.0036013
  LUNO+2 :    6 A1 0.0024414
  LUNO+3 :    7 A1 0.0003536



Properties will be evaluated at   0.000000,   0.000000,   0.000000 Bohr

Properties computed using the SCF density matrix

  Nuclear Dipole Moment: (a.u.)
     X:     0.0000      Y:     0.0000      Z:    -0.0044

  Electronic Dipole Moment: (a.u.)
     X:     0.0000      Y:     0.0000      Z:     0.1026

  Dipole Moment: (a.u.)
     X:     0.0000      Y:     0.0000      Z:     0.0982     Total:     0.0982

  Dipole Moment: (Debye)
     X:     0.0000      Y:     0.0000      Z:     0.2497     Total:     0.2497


*** tstop() called on n412-036.vsc4.prov at Fri Oct 30 11:40:02 2020
Module time:
	user time   =     494.56 seconds =       8.24 minutes
	system time =      28.28 seconds =       0.47 minutes
	total time  =        280 seconds =       4.67 minutes
Total time:
	user time   =     494.56 seconds =       8.24 minutes
	system time =      28.28 seconds =       0.47 minutes
	total time  =        280 seconds =       4.67 minutes

*** tstart() called on n412-036.vsc4.prov
*** at Fri Oct 30 11:40:02 2020


	Wfn Parameters:
	--------------------
	Wavefunction         = CCSD
	Number of irreps     = 4
	Number of MOs        = 254
	Number of active MOs = 252
	AO-Basis             = NONE
	Semicanonical        = false
	Reference            = UHF
	Print Level          = 1

	IRREP	# MOs	# FZDC	# DOCC	# SOCC	# VIRT	# FZVR
	-----	-----	------	------	------	------	------
	 A1	   92	    2	    3	    0	    87	    0
	 A2	   38	    0	    0	    0	    38	    0
	 B1	   62	    0	    1	    0	    61	    0
	 B2	   62	    0	    1	    1	    60	    0
	Transforming integrals...
	IWL integrals will be deleted.
	(OO|OO)...
	Presorting SO-basis two-electron integrals.
	Sorting File: SO Ints (nn|nn) nbuckets = 1
	Transforming the one-electron integrals and constructing Fock matrices
	Starting AA/AB first half-transformation.
	Sorting AA/AB half-transformed integrals.
	Starting BB first half-transformation.
	Sorting BB half-transformed integrals.
	First half integral transformation complete.
	Starting AA second half-transformation.
	Starting AB second half-transformation.
	Starting BB second half-transformation.
	Two-electron integral transformation complete.
	(OO|OV)...
	Starting AA second half-transformation.
	Starting AB second half-transformation.
	Starting BB second half-transformation.
	Two-electron integral transformation complete.
	(OO|VV)...
	Starting AA second half-transformation.
	Starting AB second half-transformation.
	Starting BB second half-transformation.
	Two-electron integral transformation complete.
	(OV|OO)...
	Starting AA/AB first half-transformation.
	Sorting AA/AB half-transformed integrals.
	Starting BB first half-transformation.
	Sorting BB half-transformed integrals.
	First half integral transformation complete.
	Starting AA second half-transformation.
	Starting AB second half-transformation.
	Starting BB second half-transformation.
	Two-electron integral transformation complete.
	(OV|OV)...
	Starting AA second half-transformation.
	Starting AB second half-transformation.
	Starting BB second half-transformation.
	Two-electron integral transformation complete.
	(OV|VV)...
	Starting AA second half-transformation.
	Starting AB second half-transformation.
	Starting BB second half-transformation.
	Two-electron integral transformation complete.
	(VV|OO)...
	Starting AA/AB first half-transformation.
	Sorting AA/AB half-transformed integrals.
	Starting BB first half-transformation.
	Sorting BB half-transformed integrals.
	First half integral transformation complete.
	Starting AA second half-transformation.
	Starting AB second half-transformation.
	Starting BB second half-transformation.
	Two-electron integral transformation complete.
	(VV|OV)...
	Starting AA second half-transformation.
	Starting AB second half-transformation.
	Starting BB second half-transformation.
	Two-electron integral transformation complete.
	(VV|VV)...
	Starting AA second half-transformation.
	Starting AB second half-transformation.
	Starting BB second half-transformation.
	Two-electron integral transformation complete.
	Frozen core energy     =   -115.70862129588266

	Size of irrep 0 of <AB|CD> integrals:     64.706 (MW) /    517.647 (MB)
	Size of irrep 1 of <AB|CD> integrals:     48.525 (MW) /    388.201 (MB)
	Size of irrep 2 of <AB|CD> integrals:     57.563 (MW) /    460.501 (MB)
	Size of irrep 3 of <AB|CD> integrals:     56.821 (MW) /    454.572 (MB)
	Total:                                   227.615 (MW) /   1820.921 (MB)

	Size of irrep 0 of <ab|cd> integrals:     65.675 (MW) /    525.399 (MB)
	Size of irrep 1 of <ab|cd> integrals:     49.379 (MW) /    395.030 (MB)
	Size of irrep 2 of <ab|cd> integrals:     58.141 (MW) /    465.125 (MB)
	Size of irrep 3 of <ab|cd> integrals:     58.141 (MW) /    465.125 (MB)
	Total:                                   231.335 (MW) /   1850.678 (MB)

	Size of irrep 0 of <Ab|Cd> integrals:    268.763 (MW) /   2150.106 (MB)
	Size of irrep 1 of <Ab|Cd> integrals:    195.804 (MW) /   1566.432 (MB)
	Size of irrep 2 of <Ab|Cd> integrals:    231.405 (MW) /   1851.240 (MB)
	Size of irrep 3 of <Ab|Cd> integrals:    229.917 (MW) /   1839.333 (MB)
	Total:                                   925.889 (MW) /   7407.110 (MB)

	Size of irrep 0 of <IA|BC> integrals:      7.220 (MW) /     57.757 (MB)
	Size of irrep 1 of <IA|BC> integrals:      4.124 (MW) /     32.991 (MB)
	Size of irrep 2 of <IA|BC> integrals:      5.250 (MW) /     42.002 (MB)
	Size of irrep 3 of <IA|BC> integrals:      5.910 (MW) /     47.278 (MB)
	Total:                                    22.503 (MW) /    180.028 (MB)

	Size of irrep 0 of <ia|bc> integrals:      6.302 (MW) /     50.418 (MB)
	Size of irrep 1 of <ia|bc> integrals:      3.317 (MW) /     26.534 (MB)
	Size of irrep 2 of <ia|bc> integrals:      4.697 (MW) /     37.576 (MB)
	Size of irrep 3 of <ia|bc> integrals:      4.697 (MW) /     37.576 (MB)
	Total:                                    19.013 (MW) /    152.104 (MB)

	Size of irrep 0 of <Ia|Bc> integrals:      7.279 (MW) /     58.231 (MB)
	Size of irrep 1 of <Ia|Bc> integrals:      4.156 (MW) /     33.247 (MB)
	Size of irrep 2 of <Ia|Bc> integrals:      5.263 (MW) /     42.107 (MB)
	Size of irrep 3 of <Ia|Bc> integrals:      5.989 (MW) /     47.915 (MB)
	Total:                                    22.688 (MW) /    181.501 (MB)

	Size of irrep 0 of <iA|bC> integrals:      6.263 (MW) /     50.100 (MB)
	Size of irrep 1 of <iA|bC> integrals:      3.288 (MW) /     26.307 (MB)
	Size of irrep 2 of <iA|bC> integrals:      4.685 (MW) /     37.482 (MB)
	Size of irrep 3 of <iA|bC> integrals:      4.625 (MW) /     36.998 (MB)
	Total:                                    18.861 (MW) /    150.887 (MB)

	Size of irrep 0 of tIjAb amplitudes:       0.197 (MW) /      1.574 (MB)
	Size of irrep 1 of tIjAb amplitudes:       0.042 (MW) /      0.336 (MB)
	Size of irrep 2 of tIjAb amplitudes:       0.091 (MW) /      0.730 (MB)
	Size of irrep 3 of tIjAb amplitudes:       0.136 (MW) /      1.092 (MB)
	Total:                                     0.466 (MW) /      3.732 (MB)

	Nuclear Rep. energy          =     25.55774539005286
	SCF energy                   =   -129.30747076493270
	One-electron energy          =    -68.78785661195539
	Two-electron (AA) energy     =      7.34630729186155
	Two-electron (BB) energy     =      4.98112730255638
	Two-electron (AB) energy     =     17.30382715843522
	Two-electron energy          =     29.63126175285315
	Reference energy             =   -129.30747076493205

*** tstop() called on n412-036.vsc4.prov at Fri Oct 30 11:45:38 2020
Module time:
	user time   =    2028.14 seconds =      33.80 minutes
	system time =      86.51 seconds =       1.44 minutes
	total time  =        336 seconds =       5.60 minutes
Total time:
	user time   =    2522.77 seconds =      42.05 minutes
	system time =     114.80 seconds =       1.91 minutes
	total time  =        616 seconds =      10.27 minutes

*** tstart() called on n412-036.vsc4.prov
*** at Fri Oct 30 11:45:38 2020

            **************************
            *                        *
            *        CCENERGY        *
            *                        *
            **************************

    Nuclear Rep. energy (wfn)     =   25.557745390052858
    SCF energy          (wfn)     = -129.307470764932702
    Reference energy    (file100) = -129.307470764932049

    Input parameters:
    -----------------
    Wave function   =     CCSD
    Reference wfn   =     UHF
    Brueckner       =     No
    Memory (Mbytes) =     250000.0
    Maxiter         =     50
    R_Convergence   =     1.0e-07
    E_Convergence   =     1.0e-06
    Restart         =     Yes
    DIIS            =     Yes
    AO Basis        =     NONE
    ABCD            =     NEW
    Cache Level     =     2
    Cache Type      =     LRU
    Print Level     =     1
    Num. of threads =     48
    # Amps to Print =     10
    Print MP2 Amps? =     No
    Analyze T2 Amps =     No
    Print Pair Ener =     No
    Local CC        =     No
    SCS-MP2         =     False
    SCSN-MP2        =     False
    SCS-CCSD        =     False

MP2 correlation energy -0.4370008488988311
                Solving CC Amplitude Equations
                ------------------------------
  Iter             Energy              RMS        T1Diag      D1Diag    New D1Diag    D2Diag
  ----     ---------------------    ---------   ----------  ----------  ----------   --------
     0        -0.437000848898846    0.000e+00    0.000000    0.000000    0.000000    0.000000
     1        -0.417303220202794    1.024e-01    0.025540    0.000000    0.000000    0.000000
     2        -0.433640620694303    3.798e-02    0.028129    0.000000    0.000000    0.000000
     3        -0.438838991040696    2.651e-02    0.040120    0.000000    0.000000    0.000000
     4        -0.438872526631722    1.188e-02    0.045751    0.000000    0.000000    0.000000
     5        -0.439035974805657    5.988e-03    0.049955    0.000000    0.000000    0.000000
     6        -0.439112924851784    1.635e-03    0.050549    0.000000    0.000000    0.000000
     7        -0.439114002786918    4.960e-04    0.050580    0.000000    0.000000    0.000000
     8        -0.439118827697193    1.932e-04    0.050587    0.000000    0.000000    0.000000
     9        -0.439116539415735    8.050e-05    0.050586    0.000000    0.000000    0.000000
    10        -0.439116694614966    3.912e-05    0.050581    0.000000    0.000000    0.000000
    11        -0.439117337547617    1.643e-05    0.050583    0.000000    0.000000    0.000000
    12        -0.439117918666859    6.293e-06    0.050583    0.000000    0.000000    0.000000
    13        -0.439118192401978    2.115e-06    0.050583    0.000000    0.000000    0.000000
    14        -0.439118215695326    5.577e-07    0.050584    0.000000    0.000000    0.000000
    15        -0.439118218603158    2.519e-07    0.050584    0.000000    0.000000    0.000000
    16        -0.439118216210460    1.064e-07    0.050584    0.000000    0.000000    0.000000
    17        -0.439118217668888    4.007e-08    0.050584    0.000000    0.000000    0.000000
    17        -0.439118217668888    4.007e-08    0.050584    0.000000    0.000000    0.000000

    Iterations converged.


    CCSD corr. energy   =   -0.439118217668888
    PPL corr. energy    =    0.107580986881681
    OS PPL corr. energy =    0.089280016021256
    SS PPL corr. energy =    0.018300970860429
    Largest TIA Amplitudes:
              3 125         0.0576130185
              3 127         0.0309243280
              3 126         0.0227018156
              3 131         0.0211023015
              3 128         0.0161610345
              3 130         0.0134749838
              3 137         0.0123094777
              3 138         0.0120439837
              3 139         0.0117148163
              5 189         0.0112106957

    Largest Tia Amplitudes:
              3 126        -0.0695815086
              4 188        -0.0596300453
              3 127        -0.0584621258
              3 125        -0.0551738991
              4 187        -0.0351754685
              3 129        -0.0301216864
              4 190        -0.0252674588
              3 130        -0.0221146443
              4 186        -0.0203145022
              4 191        -0.0185587507

    Largest TIJAB Amplitudes:
      3   2 125  10        -0.0253768256
      3   2 125  11         0.0176925072
      3   2 126  10        -0.0143961791
      3   2 127  10        -0.0137250397
      5   3 197 125        -0.0123275914
      5   3 191 125        -0.0108047834
      3   2 126  11         0.0100749668
      5   2 197  10        -0.0100500745
      3   2 127  11         0.0095490438
      3   2 130  10        -0.0093629473

    Largest Tijab Amplitudes:
      4   3 188 127        -0.0288193596
      4   3 188 126        -0.0276401915
      4   3 188 125        -0.0267149534
      4   2 188  10         0.0226358167
      4   2 188  11         0.0183317143
      3   2 127  10         0.0156668260
      3   2 126  10         0.0156062293
      3   2 125  10         0.0143401618
      4   3 188 130        -0.0143043138
      4   3 187 126        -0.0128092595

    Largest TIjAb Amplitudes:
      3   3 125 127        -0.0745037033
      3   3 125 126        -0.0731101304
      3   3 125 125        -0.0689186851
      3   4 125 188        -0.0674070397
      3   3 126 126        -0.0427629294
      3   3 126 127        -0.0410102264
      3   3 127 127        -0.0403395170
      3   3 127 126        -0.0387585329
      3   4 126 188        -0.0375590976
      3   3 127 125        -0.0373013866

    SCF energy       (wfn)                    = -129.307470764932702
    Reference energy (file100)                = -129.307470764932049

    Opposite-spin MP2 correlation energy      =   -0.327613896689402
    Same-spin MP2 correlation energy          =   -0.109386952209278
    MP2 correlation energy                    =   -0.437000848898831
      * MP2 total energy                      = -129.744471613830882

    Opposite-spin CCSD correlation energy     =   -0.344836814169123
    Same-spin CCSD correlation energy         =   -0.094281448049051
    CCSD correlation energy                   =   -0.439118217668888
      * CCSD total energy                     = -129.746588982600940


*** tstop() called on n412-036.vsc4.prov at Fri Oct 30 11:53:25 2020
Module time:
	user time   =    6674.96 seconds =     111.25 minutes
	system time =     192.80 seconds =       3.21 minutes
	total time  =        467 seconds =       7.78 minutes
Total time:
	user time   =    9197.73 seconds =     153.30 minutes
	system time =     307.60 seconds =       5.13 minutes
	total time  =       1083 seconds =      18.05 minutes

*** Psi4 exiting successfully. Buy a developer a beer!
