
    -----------------------------------------------------------------------
          Psi4: An Open-Source Ab Initio Electronic Structure Package
                               Psi4 1.2a1.dev939 

                         Git: Rev {HEAD} fa1ec19 


    R. M. Parrish, L. A. Burns, D. G. A. Smith, A. C. Simmonett,
    A. E. DePrince III, E. G. Hohenstein, U. Bozkaya, A. Yu. Sokolov,
    R. Di Remigio, R. M. Richard, J. F. Gonthier, A. M. James,
    H. R. McAlexander, A. Kumar, M. Saitow, X. Wang, B. P. Pritchard,
    P. Verma, H. F. Schaefer III, K. Patkowski, R. A. King, E. F. Valeev,
    F. A. Evangelista, J. M. Turney, T. D. Crawford, and C. D. Sherrill,
    J. Chem. Theory Comput. 13(7) pp 3185--3197 (2017).
    (doi: 10.1021/acs.jctc.7b00174)

    -----------------------------------------------------------------------


    Psi4 started on: Friday, 26 April 2019 03:31PM

    Process ID:  20783
    PSIDATADIR: /home/grueneis/src/psi4/objdir/stage/usr/local/psi4/share/psi4
    Memory:     500.0 MiB
    Threads:    1
    
  ==> Input File <==

--------------------------------------------------------------------------
# Any line starting with the # character is a comment line

memory 32000 mb

molecule molecule {
0 1
C          0.0000000000        0.0000000000       -0.0000000000
H          0.8868624468        0.0000000000        0.6271064501
H         -0.8868624468        0.0000000000        0.6271064501
H          0.0000000000       -0.8868624468       -0.6271064501
H          0.0000000000        0.8868624468       -0.6271064501
}

set {
  reference rhf
  basis aug-cc-pv(D+d)z
  scf_type OUT_OF_CORE
  freeze_core true
}

energy('ccsd')
--------------------------------------------------------------------------

  Memory set to  29.802 GiB by Python driver.

*** tstart() called on cqc01
*** at Fri Apr 26 15:31:45 2019

   => Loading Basis Set <=

    Name: AUG-CC-PV(D+D)Z
    Role: ORBITAL
    Keyword: BASIS
    atoms 1   entry C          line   198 file /home/grueneis/src/psi4/objdir/stage/usr/local/psi4/share/psi4/basis/aug-cc-pv_dpd_z.gbs 
    atoms 2-5 entry H          line    56 file /home/grueneis/src/psi4/objdir/stage/usr/local/psi4/share/psi4/basis/aug-cc-pv_dpd_z.gbs 


         ---------------------------------------------------------
                                   SCF
            by Justin Turney, Rob Parrish, Andy Simmonett
                             and Daniel Smith
                              RHF Reference
                        1 Threads,  30517 MiB Core
         ---------------------------------------------------------

  ==> Geometry <==

    Molecular point group: c2v
    Full point group: Td

    Geometry (in Angstrom), charge = 0, multiplicity = 1:

       Center              X                  Y                   Z               Mass       
    ------------   -----------------  -----------------  -----------------  -----------------
           C         -0.000000000000    -0.000000000000    -0.000000000000    12.000000000000
           H          0.886862446800     0.000000000000     0.627106450100     1.007825032070
           H         -0.886862446800    -0.000000000000     0.627106450100     1.007825032070
           H          0.000000000000    -0.886862446800    -0.627106450100     1.007825032070
           H         -0.000000000000     0.886862446800    -0.627106450100     1.007825032070

  Running in c2v symmetry.

  Rotational constants: A =      5.31666  B =      5.31666  C =      5.31666 [cm^-1]
  Rotational constants: A = 159389.43550  B = 159389.43550  C = 159389.43550 [MHz]
  Nuclear repulsion =   13.482637386933288

  Charge       = 0
  Multiplicity = 1
  Electrons    = 10
  Nalpha       = 5
  Nbeta        = 5

  ==> Algorithm <==

  SCF Algorithm Type is OUT_OF_CORE.
  DIIS enabled.
  MOM disabled.
  Fractional occupation disabled.
  Guess Type is SAD.
  Energy threshold   = 1.00e-08
  Density threshold  = 1.00e-08
  Integral threshold = 0.00e+00

  ==> Primary Basis <==

  Basis Set: AUG-CC-PV(D+D)Z
    Blend: AUG-CC-PV(D+D)Z
    Number of shells: 29
    Number of basis function: 59
    Number of Cartesian functions: 61
    Spherical Harmonics?: true
    Max angular momentum: 2

  ==> Pre-Iterations <==

   -------------------------------------------------------
    Irrep   Nso     Nmo     Nalpha   Nbeta   Ndocc  Nsocc
   -------------------------------------------------------
     A1        25      25       0       0       0       0
     A2         6       6       0       0       0       0
     B1        14      14       0       0       0       0
     B2        14      14       0       0       0       0
   -------------------------------------------------------
    Total      59      59       5       5       5       0
   -------------------------------------------------------

  ==> Integral Setup <==

  ==> DiskJK: Disk-Based J/K Matrices <==

    J tasked:                  Yes
    K tasked:                  Yes
    wK tasked:                  No
    Memory (MB):             22888
    Schwarz Cutoff:          1E-12

  Minimum eigenvalue in the overlap matrix is 7.9116703707E-04.
  Using Symmetric Orthogonalization.

  SCF Guess: Superposition of Atomic Densities via on-the-fly atomic UHF.

  ==> Iterations <==

                        Total Energy        Delta E     RMS |[F,P]|

   @RHF iter   0:   -40.25940710227109   -4.02594e+01   5.64334e-02 
   @RHF iter   1:   -40.18546504334238    7.39421e-02   4.43490e-03 
   @RHF iter   2:   -40.19818487306452   -1.27198e-02   1.25458e-03 DIIS
   @RHF iter   3:   -40.19942364078968   -1.23877e-03   4.44711e-04 DIIS
   @RHF iter   4:   -40.19959917714819   -1.75536e-04   6.63374e-05 DIIS
   @RHF iter   5:   -40.19960503472962   -5.85758e-06   6.45950e-06 DIIS
   @RHF iter   6:   -40.19960509269344   -5.79638e-08   1.11039e-06 DIIS
   @RHF iter   7:   -40.19960509426656   -1.57312e-09   1.69167e-07 DIIS
   @RHF iter   8:   -40.19960509431299   -4.64269e-11   3.08976e-08 DIIS
   @RHF iter   9:   -40.19960509431439   -1.39977e-12   2.89490e-09 DIIS

  ==> Post-Iterations <==

    Orbital Energies (a.u.)
    -----------------------

    Doubly Occupied:                                                      

       1A1   -11.214021     2A1    -0.944919     3A1    -0.544660  
       1B2    -0.544660     1B1    -0.544660  

    Virtual:                                                              

       4A1     0.037006     2B2     0.063673     5A1     0.063673  
       2B1     0.063673     6A1     0.146265     3B1     0.146265  
       3B2     0.146265     7A1     0.174372     4B2     0.301081  
       4B1     0.301081     8A1     0.301081     9A1     0.306411  
       1A2     0.306411    10A1     0.419693    11A1     0.440093  
       5B2     0.440093     5B1     0.440093     6B2     0.523340  
       2A2     0.523340     6B1     0.523340    12A1     0.567712  
       7B2     0.608006     7B1     0.608006    13A1     0.608006  
       8B2     0.667557    14A1     0.667557     8B1     0.667557  
      15A1     0.733963     3A2     0.733963     9B2     0.988898  
       9B1     0.988898    16A1     0.988898    17A1     1.128920  
      18A1     1.343494    10B2     1.343494    10B1     1.343494  
      19A1     1.741041     4A2     1.741041    11B2     1.892522  
       5A2     1.892522    11B1     1.892522    20A1     1.985513  
      12B2     2.216026    21A1     2.216026    12B1     2.216026  
      13B1     2.293594    13B2     2.293594    22A1     2.293594  
      23A1     2.640323     6A2     2.640323    24A1     2.839302  
      14B2     2.935550    25A1     2.935550    14B1     2.935550  

    Final Occupation by Irrep:
             A1    A2    B1    B2 
    DOCC [     3,    0,    1,    1 ]

  Energy converged.

  @RHF Final Energy:   -40.19960509431439

   => Energetics <=

    Nuclear Repulsion Energy =             13.4826373869332876
    One-Electron Energy =                 -79.7786442085572247
    Two-Electron Energy =                  26.0964017273095443
    Total Energy =                        -40.1996050943143928



Properties will be evaluated at   0.000000,   0.000000,   0.000000 Bohr

Properties computed using the SCF density matrix

  Nuclear Dipole Moment: (a.u.)
     X:    -0.0000      Y:     0.0000      Z:     0.0000

  Electronic Dipole Moment: (a.u.)
     X:     0.0000      Y:     0.0000      Z:    -0.0000

  Dipole Moment: (a.u.)
     X:    -0.0000      Y:     0.0000      Z:    -0.0000     Total:     0.0000

  Dipole Moment: (Debye)
     X:    -0.0000      Y:     0.0000      Z:    -0.0000     Total:     0.0000


*** tstop() called on cqc01 at Fri Apr 26 15:31:46 2019
Module time:
	user time   =       0.67 seconds =       0.01 minutes
	system time =       0.49 seconds =       0.01 minutes
	total time  =          1 seconds =       0.02 minutes
Total time:
	user time   =       0.67 seconds =       0.01 minutes
	system time =       0.49 seconds =       0.01 minutes
	total time  =          1 seconds =       0.02 minutes

*** tstart() called on cqc01
*** at Fri Apr 26 15:31:46 2019


	Wfn Parameters:
	--------------------
	Wavefunction         = CCSD
	Number of irreps     = 4
	Number of MOs        = 59
	Number of active MOs = 58
	AO-Basis             = NONE
	Semicanonical        = false
	Reference            = RHF
	Print Level          = 1

	IRREP	# MOs	# FZDC	# DOCC	# SOCC	# VIRT	# FZVR
	-----	-----	------	------	------	------	------
	 A1	   25	    1	    2	    0	    22	    0
	 A2	   6	    0	    0	    0	    6	    0
	 B1	   14	    0	    1	    0	    13	    0
	 B2	   14	    0	    1	    0	    13	    0
	Transforming integrals...
	IWL integrals will be deleted.
	(OO|OO)...
	Presorting SO-basis two-electron integrals.
	Sorting File: SO Ints (nn|nn) nbuckets = 1
	Transforming the one-electron integrals and constructing Fock matrices
	Starting first half-transformation.
	Sorting half-transformed integrals.
	First half integral transformation complete.
	Starting second half-transformation.
	Two-electron integral transformation complete.
	(OO|OV)...
	Starting second half-transformation.
	Two-electron integral transformation complete.
	(OO|VV)...
	Starting second half-transformation.
	Two-electron integral transformation complete.
	(OV|OO)...
	Starting first half-transformation.
	Sorting half-transformed integrals.
	First half integral transformation complete.
	Starting second half-transformation.
	Two-electron integral transformation complete.
	(OV|OV)...
	Starting second half-transformation.
	Two-electron integral transformation complete.
	(OV|VV)...
	Starting second half-transformation.
	Two-electron integral transformation complete.
	(VV|OO)...
	Starting first half-transformation.
	Sorting half-transformed integrals.
	First half integral transformation complete.
	Starting second half-transformation.
	Two-electron integral transformation complete.
	(VV|OV)...
	Starting second half-transformation.
	Two-electron integral transformation complete.
	(VV|VV)...
	Starting second half-transformation.
	Two-electron integral transformation complete.
	Frozen core energy     =    -36.25594964280596

	Size of irrep 0 of <ab|cd> integrals:      0.736 (MW) /      5.889 (MB)
	Size of irrep 1 of <ab|cd> integrals:      0.362 (MW) /      2.899 (MB)
	Size of irrep 2 of <ab|cd> integrals:      0.530 (MW) /      4.240 (MB)
	Size of irrep 3 of <ab|cd> integrals:      0.530 (MW) /      4.240 (MB)
	Total:                                     2.159 (MW) /     17.268 (MB)

	Size of irrep 0 of <ia|bc> integrals:      0.060 (MW) /      0.480 (MB)
	Size of irrep 1 of <ia|bc> integrals:      0.023 (MW) /      0.183 (MB)
	Size of irrep 2 of <ia|bc> integrals:      0.039 (MW) /      0.314 (MB)
	Size of irrep 3 of <ia|bc> integrals:      0.039 (MW) /      0.314 (MB)
	Total:                                     0.162 (MW) /      1.292 (MB)

	Size of irrep 0 of tijab amplitudes:       0.005 (MW) /      0.041 (MB)
	Size of irrep 1 of tijab amplitudes:       0.001 (MW) /      0.010 (MB)
	Size of irrep 2 of tijab amplitudes:       0.003 (MW) /      0.023 (MB)
	Size of irrep 3 of tijab amplitudes:       0.003 (MW) /      0.023 (MB)
	Total:                                     0.012 (MW) /      0.097 (MB)

	Nuclear Rep. energy          =     13.48263738693329
	SCF energy                   =    -40.19960509431439
	One-electron energy          =    -29.69478623763190
	Two-electron energy          =     12.26849339919029
	Reference energy             =    -40.19960509431428

*** tstop() called on cqc01 at Fri Apr 26 15:31:47 2019
Module time:
	user time   =       0.15 seconds =       0.00 minutes
	system time =       0.10 seconds =       0.00 minutes
	total time  =          1 seconds =       0.02 minutes
Total time:
	user time   =       0.82 seconds =       0.01 minutes
	system time =       0.59 seconds =       0.01 minutes
	total time  =          2 seconds =       0.03 minutes

*** tstart() called on cqc01
*** at Fri Apr 26 15:31:47 2019

            **************************
            *                        *
            *        CCENERGY        *
            *                        *
            **************************

    Nuclear Rep. energy (wfn)     =   13.482637386933288
    SCF energy          (wfn)     =  -40.199605094314386
    Reference energy    (file100) =  -40.199605094314279

    Input parameters:
    -----------------
    Wave function   =     CCSD
    Reference wfn   =     RHF
    Brueckner       =     No
    Memory (Mbytes) =     32000.0
    Maxiter         =     50
    R_Convergence   =     1.0e-07
    E_Convergence   =     1.0e-06
    Restart         =     Yes
    DIIS            =     Yes
    AO Basis        =     NONE
    ABCD            =     NEW
    Cache Level     =     2
    Cache Type      =     LOW
    Print Level     =     1
    Num. of threads =     1
    # Amps to Print =     10
    Print MP2 Amps? =     No
    Analyze T2 Amps =     No
    Print Pair Ener =     No
    Local CC        =     No
    SCS-MP2         =     False
    SCSN-MP2        =     False
    SCS-CCSD        =     False

MP2 correlation energy -0.1677458474906534
                Solving CC Amplitude Equations
                ------------------------------
  Iter             Energy              RMS        T1Diag      D1Diag    New D1Diag    D2Diag
  ----     ---------------------    ---------   ----------  ----------  ----------   --------
     0        -0.167745847490652    0.000e+00    0.000000    0.000000    0.000000    0.112153
     1        -0.209810556252330    1.561e-01    0.010222    0.016425    0.016425    0.147650
     2        -0.192363876369693    2.529e-02    0.007095    0.011303    0.011303    0.135535
     3        -0.191312650990411    3.674e-03    0.006874    0.011000    0.011000    0.134316
     4        -0.191110474593903    9.829e-04    0.006767    0.010831    0.010831    0.133976
     5        -0.191051321235022    2.566e-04    0.006746    0.010799    0.010799    0.133876
     6        -0.191050739804036    5.907e-05    0.006742    0.010793    0.010793    0.133864
     7        -0.191051763378116    1.298e-05    0.006742    0.010791    0.010791    0.133863
     8        -0.191051234013754    3.882e-06    0.006742    0.010791    0.010791    0.133862
     9        -0.191051123595783    1.125e-06    0.006742    0.010791    0.010791    0.133862
    10        -0.191051124572053    2.832e-07    0.006742    0.010791    0.010791    0.133862
    11        -0.191051124931119    5.978e-08    0.006742    0.010791    0.010791    0.133862
    11        -0.191051124931119    5.978e-08    0.006742    0.010791    0.010791    0.133862

    Iterations converged.


    CCSD corr. energy   =   -0.191051124931119
    PPL corr. energy    =    0.045821682876072
    OS PPL corr. energy =    0.040416015217644
    SS PPL corr. energy =    0.005405667658429
    Largest TIA Amplitudes:
              3  46         0.0046573891
              2  33         0.0046573851
              1   9         0.0046573794
              1   7        -0.0045189772
              2  31        -0.0045189705
              3  44        -0.0045189629
              1   2        -0.0040332672
              2  29        -0.0040332615
              3  42        -0.0040332555
              3  51         0.0039684584

    Largest TIjAb Amplitudes:
      2   2  30  30        -0.0385193513
      3   3  43  43        -0.0385193504
      3   3  48  48        -0.0322371738
      2   2  35  35        -0.0322371730
      3   3  43  48        -0.0281217912
      3   3  48  43        -0.0281217912
      2   2  30  35        -0.0281217908
      2   2  35  30        -0.0281217908
      1   1   4   4        -0.0268043804
      1   1  12  12        -0.0251057677

    SCF energy       (wfn)                    =  -40.199605094314386
    Reference energy (file100)                =  -40.199605094314279

    Opposite-spin MP2 correlation energy      =   -0.135879136867963
    Same-spin MP2 correlation energy          =   -0.031866710622689
    MP2 correlation energy                    =   -0.167745847490653
      * MP2 total energy                      =  -40.367350941804929

    Opposite-spin CCSD correlation energy     =   -0.160007207966359
    Same-spin CCSD correlation energy         =   -0.031043917525135
    CCSD correlation energy                   =   -0.191051124931119
      * CCSD total energy                     =  -40.390656219245400


*** tstop() called on cqc01 at Fri Apr 26 15:31:51 2019
Module time:
	user time   =       0.58 seconds =       0.01 minutes
	system time =       1.88 seconds =       0.03 minutes
	total time  =          4 seconds =       0.07 minutes
Total time:
	user time   =       1.40 seconds =       0.02 minutes
	system time =       2.47 seconds =       0.04 minutes
	total time  =          6 seconds =       0.10 minutes

*** Psi4 exiting successfully. Buy a developer a beer!
