
    -----------------------------------------------------------------------
          Psi4: An Open-Source Ab Initio Electronic Structure Package
                               Psi4 1.2a1.dev939 

                         Git: Rev {HEAD} fa1ec19 


    R. M. Parrish, L. A. Burns, D. G. A. Smith, A. C. Simmonett,
    A. E. DePrince III, E. G. Hohenstein, U. Bozkaya, A. Yu. Sokolov,
    R. Di Remigio, R. M. Richard, J. F. Gonthier, A. M. James,
    H. R. McAlexander, A. Kumar, M. Saitow, X. Wang, B. P. Pritchard,
    P. Verma, H. F. Schaefer III, K. Patkowski, R. A. King, E. F. Valeev,
    F. A. Evangelista, J. M. Turney, T. D. Crawford, and C. D. Sherrill,
    J. Chem. Theory Comput. 13(7) pp 3185--3197 (2017).
    (doi: 10.1021/acs.jctc.7b00174)

    -----------------------------------------------------------------------


    Psi4 started on: Friday, 03 May 2019 05:28AM

    Process ID:   2845
    PSIDATADIR: /home/grueneis/src/psi4/objdir/stage/usr/local/psi4/share/psi4
    Memory:     500.0 MiB
    Threads:    1
    
  ==> Input File <==

--------------------------------------------------------------------------
# Any line starting with the # character is a comment line

memory 32000 mb

molecule molecule {
0 1
C          0.0000000000        0.0000000000       -0.0000000000
H          0.8868624468        0.0000000000        0.6271064501
H         -0.8868624468        0.0000000000        0.6271064501
H          0.0000000000       -0.8868624468       -0.6271064501
H          0.0000000000        0.8868624468       -0.6271064501
}

set {
  reference rhf


  basis aug-cc-pv(5+d)z
  scf_type OUT_OF_CORE
  freeze_core true
}

energy('ccsd')
--------------------------------------------------------------------------

  Memory set to  29.802 GiB by Python driver.

*** tstart() called on cqc01
*** at Fri May  3 05:28:31 2019

   => Loading Basis Set <=

    Name: AUG-CC-PV(5+D)Z
    Role: ORBITAL
    Keyword: BASIS
    atoms 1   entry C          line   223 file /home/grueneis/src/psi4/objdir/stage/usr/local/psi4/share/psi4/basis/aug-cc-pv_5pd_z.gbs 
    atoms 2-5 entry H          line    56 file /home/grueneis/src/psi4/objdir/stage/usr/local/psi4/share/psi4/basis/aug-cc-pv_5pd_z.gbs 


         ---------------------------------------------------------
                                   SCF
            by Justin Turney, Rob Parrish, Andy Simmonett
                             and Daniel Smith
                              RHF Reference
                        1 Threads,  30517 MiB Core
         ---------------------------------------------------------

  ==> Geometry <==

    Molecular point group: c2v
    Full point group: Td

    Geometry (in Angstrom), charge = 0, multiplicity = 1:

       Center              X                  Y                   Z               Mass       
    ------------   -----------------  -----------------  -----------------  -----------------
           C         -0.000000000000    -0.000000000000    -0.000000000000    12.000000000000
           H          0.886862446800     0.000000000000     0.627106450100     1.007825032070
           H         -0.886862446800    -0.000000000000     0.627106450100     1.007825032070
           H          0.000000000000    -0.886862446800    -0.627106450100     1.007825032070
           H         -0.000000000000     0.886862446800    -0.627106450100     1.007825032070

  Running in c2v symmetry.

  Rotational constants: A =      5.31666  B =      5.31666  C =      5.31666 [cm^-1]
  Rotational constants: A = 159389.43550  B = 159389.43550  C = 159389.43550 [MHz]
  Nuclear repulsion =   13.482637386933288

  Charge       = 0
  Multiplicity = 1
  Electrons    = 10
  Nalpha       = 5
  Nbeta        = 5

  ==> Algorithm <==

  SCF Algorithm Type is OUT_OF_CORE.
  DIIS enabled.
  MOM disabled.
  Fractional occupation disabled.
  Guess Type is SAD.
  Energy threshold   = 1.00e-08
  Density threshold  = 1.00e-08
  Integral threshold = 0.00e+00

  ==> Primary Basis <==

  Basis Set: AUG-CC-PV(5+D)Z
    Blend: AUG-CC-PV(5+D)Z
    Number of shells: 107
    Number of basis function: 447
    Number of Cartesian functions: 602
    Spherical Harmonics?: true
    Max angular momentum: 5

  ==> Pre-Iterations <==

   -------------------------------------------------------
    Irrep   Nso     Nmo     Nalpha   Nbeta   Ndocc  Nsocc
   -------------------------------------------------------
     A1       146     146       0       0       0       0
     A2        79      79       0       0       0       0
     B1       111     111       0       0       0       0
     B2       111     111       0       0       0       0
   -------------------------------------------------------
    Total     447     447       5       5       5       0
   -------------------------------------------------------

  ==> Integral Setup <==

  ==> DiskJK: Disk-Based J/K Matrices <==

    J tasked:                  Yes
    K tasked:                  Yes
    wK tasked:                  No
    Memory (MB):             22888
    Schwarz Cutoff:          1E-12

  Minimum eigenvalue in the overlap matrix is 2.2310546481E-06.
  Using Symmetric Orthogonalization.

  SCF Guess: Superposition of Atomic Densities via on-the-fly atomic UHF.

  ==> Iterations <==

                        Total Energy        Delta E     RMS |[F,P]|

   @RHF iter   0:   -40.30369357624826   -4.03037e+01   8.27061e-03 
   @RHF iter   1:   -40.19466803026878    1.09026e-01   7.61503e-04 
   @RHF iter   2:   -40.21478190148393   -2.01139e-02   2.19098e-04 DIIS
   @RHF iter   3:   -40.21669324396600   -1.91134e-03   7.88030e-05 DIIS
   @RHF iter   4:   -40.21697986843229   -2.86624e-04   1.63146e-05 DIIS
   @RHF iter   5:   -40.21699515467861   -1.52862e-05   3.14675e-06 DIIS
   @RHF iter   6:   -40.21699588230438   -7.27626e-07   5.03035e-07 DIIS
   @RHF iter   7:   -40.21699590053801   -1.82336e-08   6.87303e-08 DIIS
   @RHF iter   8:   -40.21699590087084   -3.32832e-10   9.90236e-09 DIIS

  ==> Post-Iterations <==

    Orbital Energies (a.u.)
    -----------------------

    Doubly Occupied:                                                      

       1A1   -11.204247     2A1    -0.943796     1B2    -0.545713  
       1B1    -0.545713     3A1    -0.545713  

    Virtual:                                                              

       4A1     0.023452     2B2     0.039802     5A1     0.039802  
       2B1     0.039802     3B1     0.087657     6A1     0.087657  
       3B2     0.087657     7A1     0.103962     8A1     0.167819  
       1A2     0.167819     4B2     0.171748     9A1     0.171748  
       4B1     0.171748    10A1     0.223666     5B1     0.225253  
       5B2     0.225253    11A1     0.225253     6B2     0.239574  
       2A2     0.239574     6B1     0.239574     7B1     0.253127  
       7B2     0.253127    12A1     0.253127    13A1     0.280583  
       8B2     0.335108    14A1     0.335108     8B1     0.335108  
      15A1     0.360405     3A2     0.360405     9B2     0.399002  
      16A1     0.399002     9B1     0.399002    17A1     0.467904  
       4A2     0.467904    18A1     0.492388    10B2     0.512447  
      19A1     0.512447    10B1     0.512447    11B2     0.577538  
       5A2     0.577538    11B1     0.577538    12B2     0.620382  
       6A2     0.620382    12B1     0.620382    13B1     0.623173  
      20A1     0.623173    13B2     0.623173    21A1     0.624700  
      22A1     0.644241    14B2     0.698177    14B1     0.698177  
      23A1     0.698177    15B2     0.711475    24A1     0.711475  
      15B1     0.711475    25A1     0.735185     7A2     0.735185  
      16B2     0.784316     8A2     0.784316    16B1     0.784316  
      17B2     0.803500    17B1     0.803500    26A1     0.803500  
       9A2     0.843460    27A1     0.843460    28A1     0.866892  
      18B2     0.877742    29A1     0.877742    18B1     0.877742  
      19B2     1.096403    30A1     1.096403    19B1     1.096403  
      20B2     1.114242    10A2     1.114242    20B1     1.114242  
      31A1     1.230510    11A2     1.235152    32A1     1.235152  
      21B1     1.240374    33A1     1.240374    21B2     1.240374  
      22B2     1.356566    12A2     1.356566    22B1     1.356566  
      23B2     1.360609    34A1     1.360609    23B1     1.360609  
      35A1     1.365828    24B2     1.406351    36A1     1.406351  
      24B1     1.406351    25B1     1.427309    37A1     1.427309  
      25B2     1.427309    26B1     1.427371    13A2     1.427371  
      26B2     1.427371    38A1     1.429626    14A2     1.471392  
      39A1     1.471392    40A1     1.589145    27B2     1.618188  
      41A1     1.618188    27B1     1.618188    28B2     1.641721  
      15A2     1.641721    28B1     1.641721    16A2     1.652315  
      17A2     1.709662    42A1     1.709662    29B2     1.740929  
      43A1     1.740929    29B1     1.740929    30B2     1.791943  
      44A1     1.791943    30B1     1.791943    18A2     1.863011  
      45A1     1.863011    31B2     2.007388    46A1     2.007388  
      31B1     2.007388    32B2     2.013760    19A2     2.013760  
      32B1     2.013760    20A2     2.098791    47A1     2.098791  
      33B2     2.177204    21A2     2.177204    33B1     2.177204  
      34B2     2.200021    48A1     2.200021    34B1     2.200021  
      49A1     2.235652    35B2     2.321064    50A1     2.321064  
      35B1     2.321064    51A1     2.323842    22A2     2.491082  
      52A1     2.491082    36B2     2.584343    53A1     2.584343  
      36B1     2.584343    54A1     2.629972    37B1     2.686099  
      55A1     2.686099    37B2     2.686099    38B2     2.833716  
      23A2     2.833716    38B1     2.833716    39B2     2.955208  
      24A2     2.955208    39B1     2.955208    25A2     3.010744  
      56A1     3.010744    40B2     3.044475    57A1     3.044475  
      40B1     3.044475    41B2     3.098950    58A1     3.098950  
      41B1     3.098950    59A1     3.250003    26A2     3.250003  
      60A1     3.250845    42B2     3.256073    61A1     3.256073  
      42B1     3.256073    43B1     3.322479    27A2     3.322479  
      43B2     3.322479    44B2     3.396296    62A1     3.396296  
      44B1     3.396296    45B2     3.440654    28A2     3.440654  
      45B1     3.440654    46B2     3.520009    63A1     3.520009  
      46B1     3.520009    64A1     3.564369    29A2     3.564369  
      47B2     3.596464    30A2     3.596464    47B1     3.596464  
      65A1     3.604080    48B1     3.699987    31A2     3.699987  
      48B2     3.699987    66A1     3.729545    32A2     3.729545  
      49B2     3.741853    67A1     3.741853    49B1     3.741853  
      33A2     3.825709    50B2     3.847564    68A1     3.847564  
      50B1     3.847564    51B2     3.892828    69A1     3.892828  
      51B1     3.892829    34A2     3.973161    70A1     3.973161  
      71A1     4.059553    52B2     4.073994    35A2     4.073994  
      52B1     4.073994    72A1     4.079353    53B2     4.161859  
      53B1     4.161859    73A1     4.161859    74A1     4.259639  
      54B2     4.348210    75A1     4.348210    54B1     4.348210  
      55B2     4.380702    36A2     4.380702    55B1     4.380702  
      76A1     4.699031    77A1     4.706488    56B1     4.706488  
      56B2     4.706488    37A2     4.718184    78A1     4.718184  
      57B2     4.864841    79A1     4.864841    57B1     4.864841  
      38A2     5.010500    58B1     5.010500    58B2     5.010500  
      39A2     5.013144    80A1     5.013144    40A2     5.063383  
      81A1     5.151921    41A2     5.151921    59B2     5.238696  
      82A1     5.238696    59B1     5.238696    60B2     5.379335  
      83A1     5.379335    60B1     5.379335    61B2     5.417391  
      42A2     5.417391    61B1     5.417391    62B2     5.487894  
      84A1     5.487894    62B1     5.487894    85A1     5.628703  
      63B2     5.790669    43A2     5.790669    63B1     5.790669  
      64B1     6.019682    86A1     6.019682    64B2     6.019682  
      44A2     6.158646    87A1     6.158646    65B2     6.219175  
      88A1     6.219175    65B1     6.219175    89A1     6.315497  
      66B2     6.485577    45A2     6.485577    66B1     6.485577  
      67B2     6.536349    90A1     6.536349    67B1     6.536349  
      91A1     6.599772    46A2     6.599772    68B2     6.607293  
      47A2     6.607293    68B1     6.607293    69B2     6.886544  
      92A1     6.886544    69B1     6.886544    93A1     7.042967  
      48A2     7.042967    94A1     7.065013    70B1     7.067532  
      95A1     7.067532    70B2     7.067532    71B2     7.318045  
      49A2     7.318045    71B1     7.318045    96A1     7.471121  
      72B2     7.666371    72B1     7.666371    97A1     7.666371  
      73B2     7.939297    50A2     7.939297    73B1     7.939297  
      74B1     8.060228    98A1     8.060228    74B2     8.060228  
      99A1     8.301854    51A2     8.301854    52A2     8.318735  
     100A1     8.318735   101A1     8.398815    75B1     8.398815  
      75B2     8.398815    76B2     8.536911    53A2     8.536911  
      76B1     8.536911   102A1     8.705685    77B2     8.739953  
     103A1     8.739953    77B1     8.739953    78B2    10.198488  
     104A1    10.198488    78B1    10.198488    79B1    10.245987  
      54A2    10.245987    79B2    10.245987   105A1    10.380759  
      80B2    10.610038    80B1    10.610038   106A1    10.610038  
      55A2    10.681506   107A1    10.681506   108A1    10.853001  
      56A2    10.853002    81B1    11.130220    81B2    11.130220  
      57A2    11.130220   109A1    11.239161    82B2    11.239161  
      82B1    11.239161   110A1    11.329194   111A1    11.693142  
      83B1    11.693142    83B2    11.693142    84B2    11.987673  
     112A1    11.987673    84B1    11.987673   113A1    12.193737  
      85B2    12.353697    58A2    12.353697    85B1    12.353697  
     114A1    13.094971    59A2    13.094971    60A2    13.180202  
      86B2    13.307400    61A2    13.307400    86B1    13.307400  
      87B1    13.387668   115A1    13.387668    87B2    13.387668  
     116A1    13.429257    62A2    13.429257    63A2    13.446557  
      88B1    13.499211    88B2    13.499211    64A2    13.499211  
     117A1    13.578911    89B2    13.676836   118A1    13.676836  
      89B1    13.676836    90B2    13.721024    90B1    13.721024  
     119A1    13.721024   120A1    13.776653    91B2    14.028478  
     121A1    14.028478    91B1    14.028478    92B1    14.149372  
      65A2    14.149372    92B2    14.149372    93B1    14.196252  
      93B2    14.196252   122A1    14.196252   123A1    14.419161  
      66A2    14.419161    94B1    14.654094   124A1    14.654095  
      94B2    14.654095    95B1    14.762694    67A2    14.762694  
      95B2    14.762694    96B2    14.813924    68A2    14.813924  
      96B1    14.813924   125A1    14.886537    69A2    14.886537  
     126A1    14.990075    70A2    14.990075    97B1    15.131425  
     127A1    15.131425    97B2    15.131425    98B2    15.144190  
      71A2    15.144190    98B1    15.144190   128A1    15.454794  
      99B2    15.669318   129A1    15.669318    99B1    15.669318  
     100B2    15.783766    72A2    15.783766   100B1    15.783766  
     101B2    15.817739   130A1    15.817739   101B1    15.817739  
     102B2    16.072321   131A1    16.072321   102B1    16.072321  
     132A1    16.109417   133A1    16.232617    73A2    16.232617  
     134A1    16.290359    74A2    16.290359   103B2    16.478302  
     135A1    16.478302   103B1    16.478302   136A1    16.585903  
     104B2    17.107307    75A2    17.107307   104B1    17.107307  
     105B2    17.187294   137A1    17.187294   105B1    17.187294  
     106B2    18.142827    76A2    18.142827   106B1    18.142827  
     138A1    18.435656    77A2    18.435656   107B1    18.450055  
     139A1    18.450055   107B2    18.450055    78A2    19.048074  
     140A1    19.048074   108B1    19.106298   141A1    19.106298  
     108B2    19.106298   109B1    19.250586   109B2    19.250586  
      79A2    19.250586   110B1    19.744408   142A1    19.744408  
     110B2    19.744408   143A1    19.851370   144A1    21.325683  
     111B2    21.969171   145A1    21.969171   111B1    21.969171  
     146A1    44.182374  

    Final Occupation by Irrep:
             A1    A2    B1    B2 
    DOCC [     3,    0,    1,    1 ]

  Energy converged.

  @RHF Final Energy:   -40.21699590087084

   => Energetics <=

    Nuclear Repulsion Energy =             13.4826373869332876
    One-Electron Energy =                 -79.8289047063942689
    Two-Electron Energy =                  26.1292714185901325
    Total Energy =                        -40.2169959008708418



Properties will be evaluated at   0.000000,   0.000000,   0.000000 Bohr

Properties computed using the SCF density matrix

  Nuclear Dipole Moment: (a.u.)
     X:    -0.0000      Y:     0.0000      Z:     0.0000

  Electronic Dipole Moment: (a.u.)
     X:     0.0000      Y:     0.0000      Z:    -0.0000

  Dipole Moment: (a.u.)
     X:    -0.0000      Y:     0.0000      Z:    -0.0000     Total:     0.0000

  Dipole Moment: (Debye)
     X:    -0.0000      Y:     0.0000      Z:    -0.0000     Total:     0.0000


*** tstop() called on cqc01 at Fri May  3 05:41:15 2019
Module time:
	user time   =     361.68 seconds =       6.03 minutes
	system time =      71.63 seconds =       1.19 minutes
	total time  =        764 seconds =      12.73 minutes
Total time:
	user time   =     361.68 seconds =       6.03 minutes
	system time =      71.63 seconds =       1.19 minutes
	total time  =        764 seconds =      12.73 minutes

*** tstart() called on cqc01
*** at Fri May  3 05:41:15 2019


	Wfn Parameters:
	--------------------
	Wavefunction         = CCSD
	Number of irreps     = 4
	Number of MOs        = 447
	Number of active MOs = 446
	AO-Basis             = NONE
	Semicanonical        = false
	Reference            = RHF
	Print Level          = 1

	IRREP	# MOs	# FZDC	# DOCC	# SOCC	# VIRT	# FZVR
	-----	-----	------	------	------	------	------
	 A1	   146	    1	    2	    0	    143	    0
	 A2	   79	    0	    0	    0	    79	    0
	 B1	   111	    0	    1	    0	    110	    0
	 B2	   111	    0	    1	    0	    110	    0
	Transforming integrals...
	IWL integrals will be deleted.
	(OO|OO)...
	Presorting SO-basis two-electron integrals.
	Sorting File: SO Ints (nn|nn) nbuckets = 1
	Transforming the one-electron integrals and constructing Fock matrices
	Starting first half-transformation.
	Sorting half-transformed integrals.
	First half integral transformation complete.
	Starting second half-transformation.
	Two-electron integral transformation complete.
	(OO|OV)...
	Starting second half-transformation.
	Two-electron integral transformation complete.
	(OO|VV)...
	Starting second half-transformation.
	Two-electron integral transformation complete.
	(OV|OO)...
	Starting first half-transformation.
	Sorting half-transformed integrals.
	First half integral transformation complete.
	Starting second half-transformation.
	Two-electron integral transformation complete.
	(OV|OV)...
	Starting second half-transformation.
	Two-electron integral transformation complete.
	(OV|VV)...
	Starting second half-transformation.
	Two-electron integral transformation complete.
	(VV|OO)...
	Starting first half-transformation.
	Sorting half-transformed integrals.
	First half integral transformation complete.
	Starting second half-transformation.
	Two-electron integral transformation complete.
	(VV|OV)...
	Starting second half-transformation.
	Two-electron integral transformation complete.
	(VV|VV)...
	Starting second half-transformation.
	Two-electron integral transformation complete.
	Frozen core energy     =    -36.25684883154513

	Size of irrep 0 of <ab|cd> integrals:   2589.792 (MW) /  20718.337 (MB)
	Size of irrep 1 of <ab|cd> integrals:   2189.678 (MW) /  17517.427 (MB)
	Size of irrep 2 of <ab|cd> integrals:   2385.346 (MW) /  19082.765 (MB)
	Size of irrep 3 of <ab|cd> integrals:   2385.346 (MW) /  19082.765 (MB)
	Total:                                  9550.162 (MW) /  76401.294 (MB)

	Size of irrep 0 of <ia|bc> integrals:     25.750 (MW) /    206.003 (MB)
	Size of irrep 1 of <ia|bc> integrals:     17.688 (MW) /    141.505 (MB)
	Size of irrep 2 of <ia|bc> integrals:     21.587 (MW) /    172.698 (MB)
	Size of irrep 3 of <ia|bc> integrals:     21.587 (MW) /    172.698 (MB)
	Total:                                    86.613 (MW) /    692.904 (MB)

	Size of irrep 0 of tijab amplitudes:       0.305 (MW) /      2.443 (MB)
	Size of irrep 1 of tijab amplitudes:       0.094 (MW) /      0.749 (MB)
	Size of irrep 2 of tijab amplitudes:       0.195 (MW) /      1.563 (MB)
	Size of irrep 3 of tijab amplitudes:       0.195 (MW) /      1.563 (MB)
	Total:                                     0.790 (MW) /      6.317 (MB)

	Nuclear Rep. energy          =     13.48263738693329
	SCF energy                   =    -40.21699590087084
	One-electron energy          =    -29.72370061902644
	Two-electron energy          =     12.28091616276028
	Reference energy             =    -40.21699590087800

*** tstop() called on cqc01 at Fri May  3 07:01:31 2019
Module time:
	user time   =    1151.34 seconds =      19.19 minutes
	system time =     391.64 seconds =       6.53 minutes
	total time  =       4816 seconds =      80.27 minutes
Total time:
	user time   =    1513.02 seconds =      25.22 minutes
	system time =     463.27 seconds =       7.72 minutes
	total time  =       5580 seconds =      93.00 minutes

*** tstart() called on cqc01
*** at Fri May  3 07:01:31 2019

            **************************
            *                        *
            *        CCENERGY        *
            *                        *
            **************************

    Nuclear Rep. energy (wfn)     =   13.482637386933288
    SCF energy          (wfn)     =  -40.216995900870842
    Reference energy    (file100) =  -40.216995900878004

    Input parameters:
    -----------------
    Wave function   =     CCSD
    Reference wfn   =     RHF
    Brueckner       =     No
    Memory (Mbytes) =     32000.0
    Maxiter         =     50
    R_Convergence   =     1.0e-07
    E_Convergence   =     1.0e-06
    Restart         =     Yes
    DIIS            =     Yes
    AO Basis        =     NONE
    ABCD            =     NEW
    Cache Level     =     2
    Cache Type      =     LOW
    Print Level     =     1
    Num. of threads =     1
    # Amps to Print =     10
    Print MP2 Amps? =     No
    Analyze T2 Amps =     No
    Print Pair Ener =     No
    Local CC        =     No
    SCS-MP2         =     False
    SCSN-MP2        =     False
    SCS-CCSD        =     False

MP2 correlation energy -0.2148967029875438
                Solving CC Amplitude Equations
                ------------------------------
  Iter             Energy              RMS        T1Diag      D1Diag    New D1Diag    D2Diag
  ----     ---------------------    ---------   ----------  ----------  ----------   --------
     0        -0.214896702986519    0.000e+00    0.000000    0.000000    0.000000    0.117363
     1        -0.242171903039598    1.854e-01    0.013841    0.021760    0.021760    0.145231
     2        -0.234413082670612    2.793e-02    0.007970    0.012695    0.012695    0.137696
     3        -0.231071056735022    6.107e-03    0.008292    0.013229    0.013229    0.135206
     4        -0.230824828219474    1.255e-03    0.008133    0.012973    0.012973    0.134760
     5        -0.230778430822835    3.051e-04    0.008125    0.012961    0.012961    0.134657
     6        -0.230768606839044    8.051e-05    0.008124    0.012958    0.012958    0.134636
     7        -0.230769283340216    2.130e-05    0.008122    0.012956    0.012956    0.134633
     8        -0.230769657524207    5.027e-06    0.008122    0.012955    0.012955    0.134633
     9        -0.230769399512585    1.560e-06    0.008122    0.012955    0.012955    0.134633
    10        -0.230769357348790    4.123e-07    0.008122    0.012955    0.012955    0.134633
    11        -0.230769366401945    1.080e-07    0.008122    0.012955    0.012955    0.134633
    12        -0.230769365423909    2.846e-08    0.008122    0.012955    0.012955    0.134633
    12        -0.230769365423909    2.846e-08    0.008122    0.012955    0.012955    0.134633

    Iterations converged.


    CCSD corr. energy   =   -0.230769365423909
    PPL corr. energy    =    0.063415515995441
    OS PPL corr. energy =    0.056473793028622
    SS PPL corr. energy =    0.006941722966820
    Largest TIA Amplitudes:
              3 339         0.0067871345
              2 229         0.0067869852
              1  12         0.0067869306
              3 345         0.0044678088
              1  20         0.0044676970
              2 235         0.0044676682
              3 353         0.0042974332
              1  30         0.0042973651
              2 243         0.0042973431
              3 338         0.0039499126

    Largest TIjAb Amplitudes:
      2   2 229 229        -0.0248450454
      3   3 339 339        -0.0248450383
      2   2 229 235        -0.0176949054
      2   2 235 229        -0.0176949054
      3   3 339 345        -0.0176948956
      3   3 345 339        -0.0176948956
      1   1 229 229        -0.0163814012
      2   2  12  12        -0.0163813978
      1   1 339 339        -0.0163813973
      3   3  12  12        -0.0163813847

    SCF energy       (wfn)                    =  -40.216995900870842
    Reference energy (file100)                =  -40.216995900878004

    Opposite-spin MP2 correlation energy      =   -0.177105621967618
    Same-spin MP2 correlation energy          =   -0.037791081018901
    MP2 correlation energy                    =   -0.214896702987544
      * MP2 total energy                      =  -40.431892603865549

    Opposite-spin CCSD correlation energy     =   -0.194298744795822
    Same-spin CCSD correlation energy         =   -0.036470638599020
    CCSD correlation energy                   =   -0.230769365423909
      * CCSD total energy                     =  -40.447765266301914


*** tstop() called on cqc01 at Fri May  3 07:16:23 2019
Module time:
	user time   =     116.17 seconds =       1.94 minutes
	system time =     258.72 seconds =       4.31 minutes
	total time  =        892 seconds =      14.87 minutes
Total time:
	user time   =    1629.19 seconds =      27.15 minutes
	system time =     722.00 seconds =      12.03 minutes
	total time  =       6472 seconds =     107.87 minutes

*** Psi4 exiting successfully. Buy a developer a beer!
