
    -----------------------------------------------------------------------
          Psi4: An Open-Source Ab Initio Electronic Structure Package
                               Psi4 1.2a1.dev938 

                         Git: Rev {HEAD} fc51d9a dirty


    R. M. Parrish, L. A. Burns, D. G. A. Smith, A. C. Simmonett,
    A. E. DePrince III, E. G. Hohenstein, U. Bozkaya, A. Yu. Sokolov,
    R. Di Remigio, R. M. Richard, J. F. Gonthier, A. M. James,
    H. R. McAlexander, A. Kumar, M. Saitow, X. Wang, B. P. Pritchard,
    P. Verma, H. F. Schaefer III, K. Patkowski, R. A. King, E. F. Valeev,
    F. A. Evangelista, J. M. Turney, T. D. Crawford, and C. D. Sherrill,
    J. Chem. Theory Comput. 13(7) pp 3185--3197 (2017).
    (doi: 10.1021/acs.jctc.7b00174)

    -----------------------------------------------------------------------


    Psi4 started on: Friday, 21 August 2020 04:33AM

    Process ID: 427210
    PSIDATADIR: /home/irmler/Programs/psi4/beforeGrueneis3/stage/usr/local/psi4/share/psi4
    Memory:     500.0 MiB
    Threads:    4
    
  ==> Input File <==

--------------------------------------------------------------------------
# Any line starting with the # character is a comment line
memory 250000 mb
molecule molecule{
1 2
P          0.0000000000        0.0000000000        0.9966955025
P          0.0000000000        0.0000000000       -0.9966955025
}

set {
  reference uhf
  basis aug-cc-pv(5+d)z
  scf_type OUT_OF_CORE
  freeze_core true
}

energy('ccsd')
--------------------------------------------------------------------------

  Memory set to 232.831 GiB by Python driver.

*** tstart() called on cqc05
*** at Fri Aug 21 04:33:33 2020

   => Loading Basis Set <=

    Name: AUG-CC-PV(5+D)Z
    Role: ORBITAL
    Keyword: BASIS
    atoms 1-2 entry P          line   850 file /home/irmler/Programs/psi4/beforeGrueneis3/stage/usr/local/psi4/share/psi4/basis/aug-cc-pv_5pd_z.gbs 


         ---------------------------------------------------------
                                   SCF
            by Justin Turney, Rob Parrish, Andy Simmonett
                             and Daniel Smith
                              UHF Reference
                        4 Threads, 238418 MiB Core
         ---------------------------------------------------------

  ==> Geometry <==

    Molecular point group: d2h
    Full point group: D_inf_h

    Geometry (in Angstrom), charge = 1, multiplicity = 2:

       Center              X                  Y                   Z               Mass       
    ------------   -----------------  -----------------  -----------------  -----------------
           P          0.000000000000     0.000000000000     0.996695502500    30.973761629000
           P          0.000000000000     0.000000000000    -0.996695502500    30.973761629000

  Running in d2h symmetry.

  Rotational constants: A = ************  B =      0.27394  C =      0.27394 [cm^-1]
  Rotational constants: A = ************  B =   8212.36515  C =   8212.36515 [MHz]
  Nuclear repulsion =   59.729812984056267

  Charge       = 1
  Multiplicity = 2
  Electrons    = 29
  Nalpha       = 15
  Nbeta        = 14

  ==> Algorithm <==

  SCF Algorithm Type is OUT_OF_CORE.
  DIIS enabled.
  MOM disabled.
  Fractional occupation disabled.
  Guess Type is GWH.
  Energy threshold   = 1.00e-08
  Density threshold  = 1.00e-08
  Integral threshold = 0.00e+00

  ==> Primary Basis <==

  Basis Set: AUG-CC-PV(5+D)Z
    Blend: AUG-CC-PV(5+D)Z
    Number of shells: 60
    Number of basis function: 272
    Number of Cartesian functions: 384
    Spherical Harmonics?: true
    Max angular momentum: 5

  ==> Pre-Iterations <==

   -------------------------------------------------------
    Irrep   Nso     Nmo     Nalpha   Nbeta   Ndocc  Nsocc
   -------------------------------------------------------
     Ag        50      50       0       0       0       0
     B1g       20      20       0       0       0       0
     B2g       33      33       0       0       0       0
     B3g       33      33       0       0       0       0
     Au        20      20       0       0       0       0
     B1u       50      50       0       0       0       0
     B2u       33      33       0       0       0       0
     B3u       33      33       0       0       0       0
   -------------------------------------------------------
    Total     272     272      15      14      14       1
   -------------------------------------------------------

  ==> Integral Setup <==

  ==> DiskJK: Disk-Based J/K Matrices <==

    J tasked:                  Yes
    K tasked:                  Yes
    wK tasked:                  No
    Memory (MB):            178813
    Schwarz Cutoff:          1E-12

  Minimum eigenvalue in the overlap matrix is 1.4341466405E-05.
  Using Symmetric Orthogonalization.

  SCF Guess: Generalized Wolfsberg-Helmholtz.

  ==> Iterations <==

                        Total Energy        Delta E     RMS |[F,P]|

    Occupation by irrep:
             Ag   B1g   B2g   B3g    Au   B1u   B2u   B3u 
    DOCC [     4,    0,    1,    1,    0,    4,    2,    2 ]
    SOCC [     1,    0,    0,    0,    0,    0,    0,    0 ]

   @UHF iter   1:  -669.70927074617066   -6.69709e+02   9.41855e-02 
   @UHF iter   2:  -679.81221255966057   -1.01029e+01   2.79074e-02 DIIS
   @UHF iter   3:  -680.97337161501298   -1.16116e+00   1.25637e-02 DIIS
   @UHF iter   4:  -681.11336444089761   -1.39993e-01   1.50234e-03 DIIS
   @UHF iter   5:  -681.11797537825169   -4.61094e-03   3.77353e-04 DIIS
   @UHF iter   6:  -681.11875362648084   -7.78248e-04   1.24657e-04 DIIS
   @UHF iter   7:  -681.11884624811182   -9.26216e-05   3.19360e-05 DIIS
   @UHF iter   8:  -681.11885257366885   -6.32556e-06   1.29865e-05 DIIS
   @UHF iter   9:  -681.11885381049569   -1.23683e-06   4.04527e-06 DIIS
   @UHF iter  10:  -681.11885393155967   -1.21064e-07   9.41400e-07 DIIS
   @UHF iter  11:  -681.11885393790067   -6.34100e-09   2.38444e-07 DIIS
   @UHF iter  12:  -681.11885393829812   -3.97449e-10   5.11899e-08 DIIS
   @UHF iter  13:  -681.11885393831744   -1.93268e-11   5.40662e-09 DIIS

  ==> Post-Iterations <==

   @Spin Contamination Metric:   3.894981851E-02
   @S^2 Expected:                7.500000000E-01
   @S^2 Observed:                7.889498185E-01
   @S   Expected:                5.000000000E-01
   @S   Observed:                5.000000000E-01

    Orbital Energies (a.u.)
    -----------------------

    Alpha Occupied:                                                       

       1Ag   -80.300697     1B1u  -80.300691     2Ag    -7.835350  
       2B1u   -7.834856     3Ag    -5.735706     3B1u   -5.734218  
       1B2u   -5.723888     1B3u   -5.723888     1B3g   -5.723732  
       1B2g   -5.723732     4Ag    -1.185151     4B1u   -0.925754  
       5Ag    -0.732849     2B2u   -0.622857     2B3u   -0.622857  

    Alpha Virtual:                                                        

       2B3g   -0.246334     2B2g   -0.246334     5B1u   -0.100493  
       6Ag    -0.096467     3B3u   -0.067458     3B2u   -0.067458  
       7Ag    -0.058609     6B1u   -0.049096     3B3g   -0.036235  
       3B2g   -0.036235     8Ag    -0.030025     1B1g   -0.030025  
       7B1u    0.012162     4B3u    0.015533     4B2u    0.015533  
       9Ag     0.029874     8B1u    0.044540     1Au     0.044540  
       4B3g    0.070218     4B2g    0.070218     9B1u    0.073488  
       5B2u    0.111039     5B3u    0.111039    10Ag     0.120613  
      11Ag     0.158654     2B1g    0.158654     6B2u    0.165491  
       6B3u    0.165491     7B2u    0.178891     7B3u    0.178891  
      12Ag     0.185847    10B1u    0.201744     5B3g    0.220413  
       5B2g    0.220413     2Au     0.229960    11B1u    0.229960  
      13Ag     0.238421     3B1g    0.259458    14Ag     0.259458  
       6B2g    0.267327     6B3g    0.267327     7B3g    0.273203  
       7B2g    0.273203    12B1u    0.303064     8B2u    0.353639  
       8B3u    0.353639    13B1u    0.392433     3Au     0.392433  
      14B1u    0.411207    15Ag     0.463091     8B3g    0.539520  
       8B2g    0.539520    15B1u    0.615197     9B2u    0.633150  
       9B3u    0.633150     4B1g    0.659227    16Ag     0.659227  
      17Ag     0.667033     5B1g    0.689838    18Ag     0.689838  
      10B3u    0.700435    10B2u    0.700435     9B3g    0.750995  
       9B2g    0.750995    11B3u    0.767562    11B2u    0.767562  
       4Au     0.769428    16B1u    0.769428     6B1g    0.770166  
      19Ag     0.770166    17B1u    0.792063     5Au     0.792063  
      18B1u    0.795596    10B3g    0.816213    10B2g    0.816213  
      12B2u    0.819531    12B3u    0.819531    20Ag     0.821454  
      13B2u    0.857037    13B3u    0.857037     6Au     0.880322  
      19B1u    0.880322    11B3g    0.894906    11B2g    0.894906  
      21Ag     0.915122    22Ag     0.957382     7B1g    0.957382  
      12B2g    0.988978    12B3g    0.988978    20B1u    1.021107  
      13B3g    1.060827    13B2g    1.060827    21B1u    1.153362  
      23Ag     1.168363     7Au     1.297984    22B1u    1.297984  
      14B2u    1.331298    14B3u    1.331298    23B1u    1.332036  
      14B3g    1.585971    14B2g    1.585971    24Ag     1.709978  
      24B1u    1.717477     8B1g    1.811340    25Ag     1.811340  
      15B2u    1.830666    15B3u    1.830666    26Ag     1.836444  
       9B1g    1.836444    16B3u    1.871169    16B2u    1.871169  
      17B3u    1.871359    17B2u    1.871359    27Ag     1.915830  
      18B2u    1.981489    18B3u    1.981489    15B2g    1.991596  
      15B3g    1.991596    16B2g    2.009286    16B3g    2.009286  
      10B1g    2.045253    28Ag     2.045253    11B1g    2.051727  
      29Ag     2.051727    17B3g    2.068166    17B2g    2.068166  
       8Au     2.073329    25B1u    2.073329    30Ag     2.107702  
       9Au     2.131827    26B1u    2.131827    19B2u    2.132233  
      19B3u    2.132233    10Au     2.135712    27B1u    2.135712  
      12B1g    2.136020    31Ag     2.136020    28B1u    2.141248  
      20B3u    2.181648    20B2u    2.181648    21B2u    2.214522  
      21B3u    2.214522    18B3g    2.222920    18B2g    2.222920  
      11Au     2.263083    29B1u    2.263083    12Au     2.329487  
      30B1u    2.329487    19B3g    2.340678    19B2g    2.340678  
      31B1u    2.436005    20B3g    2.439469    20B2g    2.439469  
      32Ag     2.446895    33Ag     2.613177    13B1g    2.613177  
      22B2u    2.709337    22B3u    2.709337    21B3g    2.729722  
      21B2g    2.729722    32B1u    2.751846    34Ag     3.078669  
      33B1u    3.165472    13Au     3.315105    34B1u    3.315105  
      22B3g    3.517254    22B2g    3.517254    23B2u    3.843802  
      23B3u    3.843802    23B3g    3.882748    23B2g    3.882748  
      35Ag     3.931689    24B3u    4.301698    24B2u    4.301698  
      14B1g    4.319972    36Ag     4.319972    24B2g    4.364474  
      24B3g    4.364474    25B2u    4.386830    25B3u    4.386830  
      37Ag     4.392252    35B1u    4.423965    14Au     4.570661  
      36B1u    4.570661    15B1g    4.588036    38Ag     4.588036  
      37B1u    4.593812    39Ag     4.623247    26B2u    4.722165  
      26B3u    4.722165    38B1u    4.740572    15Au     4.740572  
      25B3g    4.804229    25B2g    4.804229    40Ag     4.806064  
      16B1g    4.806064    27B3u    4.828690    27B2u    4.828690  
      41Ag     4.887314    17B1g    4.887314    28B2u    4.917782  
      28B3u    4.917782    42Ag     4.940780    29B2u    4.976659  
      29B3u    4.976659    26B3g    4.977035    26B2g    4.977035  
      43Ag     4.999920    18B1g    4.999920    27B3g    5.014444  
      27B2g    5.014444    30B2u    5.029224    30B3u    5.029224  
      16Au     5.056535    39B1u    5.056535    17Au     5.095239  
      40B1u    5.095239    28B2g    5.173461    28B3g    5.173461  
      44Ag     5.193132    45Ag     5.236724    19B1g    5.236724  
      41B1u    5.344336    29B3g    5.387014    29B2g    5.387014  
      42B1u    5.467305    18Au     5.467305    43B1u    5.502091  
      44B1u    5.672151    31B2u    5.777242    31B3u    5.777242  
      30B3g    5.821152    30B2g    5.821152    19Au     5.847180  
      45B1u    5.847180    31B3g    6.462356    31B2g    6.462356  
      46B1u    6.801721    46Ag     7.391632    20B1g   12.817057  
      47Ag    12.817057    47B1u   12.947234    20Au    12.947234  
      32B2u   12.970134    32B3u   12.970134    48Ag    13.251831  
      32B3g   13.484250    32B2g   13.484250    48B1u   13.554472  
      33B2u   16.831339    33B3u   16.831339    33B3g   17.425176  
      33B2g   17.425176    49Ag    17.639961    49B1u   19.982323  
      50B1u   51.055109    50Ag    51.627831  

    Beta Occupied:                                                        

       1Ag   -80.295935     1B1u  -80.295933     2Ag    -7.830714  
       2B1u   -7.830403     1B3u   -5.721509     1B2u   -5.721509  
       1B3g   -5.721387     1B2g   -5.721387     3Ag    -5.711631  
       3B1u   -5.710303     4Ag    -1.113002     4B1u   -0.823067  
       2B2u   -0.617930     2B3u   -0.617930  

    Beta Virtual:                                                         

       5Ag    -0.331768     2B3g   -0.231667     2B2g   -0.231667  
       5B1u   -0.089494     6Ag    -0.088848     3B3u   -0.066312  
       3B2u   -0.066312     7Ag    -0.052177     3B3g   -0.036057  
       3B2g   -0.036057     8Ag    -0.030621     1B1g   -0.030621  
       6B1u   -0.021917     7B1u    0.023373     4B3u    0.029242  
       4B2u    0.029242     9Ag     0.042394     8B1u    0.045094  
       1Au     0.045094     4B3g    0.070218     4B2g    0.070218  
       9B1u    0.088046     5B2u    0.116004     5B3u    0.116004  
      10Ag     0.135976    11Ag     0.157632     2B1g    0.157632  
       6B3u    0.178576     6B2u    0.178576     7B2u    0.190126  
       7B3u    0.190126    12Ag     0.199595    10B1u    0.221990  
       5B3g    0.222184     5B2g    0.222184     2Au     0.232237  
      11B1u    0.232237    13Ag     0.251073     3B1g    0.261608  
      14Ag     0.261608     6B2g    0.267449     6B3g    0.267449  
       7B3g    0.277886     7B2g    0.277886    12B1u    0.308061  
       8B2u    0.359052     8B3u    0.359052    13B1u    0.391701  
       3Au     0.391701    14B1u    0.412528    15Ag     0.484470  
       8B3g    0.551518     8B2g    0.551518    15B1u    0.636396  
       9B2u    0.644898     9B3u    0.644898     4B1g    0.658804  
      16Ag     0.658804    17Ag     0.682285     5B1g    0.691052  
      18Ag     0.691052    10B3u    0.699017    10B2u    0.699017  
       9B3g    0.763595     9B2g    0.763595    11B3u    0.769525  
      11B2u    0.769525     4Au     0.774267    16B1u    0.774267  
       6B1g    0.778523    19Ag     0.778523    17B1u    0.792023  
       5Au     0.792023    18B1u    0.811019    10B3g    0.817645  
      10B2g    0.817645    12B2u    0.830509    12B3u    0.830509  
      20Ag     0.849007    13B2u    0.865803    13B3u    0.865803  
       6Au     0.880314    19B1u    0.880314    11B3g    0.898618  
      11B2g    0.898618    21Ag     0.921129    22Ag     0.959059  
       7B1g    0.959059    12B2g    0.988352    12B3g    0.988352  
      20B1u    1.042852    13B3g    1.065755    13B2g    1.065755  
      21B1u    1.171386    23Ag     1.177464     7Au     1.301054  
      22B1u    1.301054    14B2u    1.337779    14B3u    1.337779  
      23B1u    1.342057    14B3g    1.594546    14B2g    1.594546  
      24B1u    1.722745    24Ag     1.728735     8B1g    1.823798  
      25Ag     1.823798    26Ag     1.837328     9B1g    1.837328  
      15B2u    1.849997    15B3u    1.849997    16B3u    1.870882  
      16B2u    1.870882    17B3u    1.871814    17B2u    1.871814  
      27Ag     1.938376    18B2u    1.986324    18B3u    1.986324  
      15B2g    1.992805    15B3g    1.992805    16B2g    2.008911  
      16B3g    2.008911    10B1g    2.045817    28Ag     2.045817  
      11B1g    2.052025    29Ag     2.052025     8Au     2.076829  
      25B1u    2.076829    17B3g    2.085013    17B2g    2.085013  
      30Ag     2.120236     9Au     2.132783    26B1u    2.132783  
      19B2u    2.144055    19B3u    2.144055    10Au     2.144670  
      27B1u    2.144670    12B1g    2.148833    31Ag     2.148833  
      28B1u    2.157796    20B3u    2.185691    20B2u    2.185691  
      21B2u    2.226285    21B3u    2.226285    18B3g    2.227819  
      18B2g    2.227819    11Au     2.263173    29B1u    2.263173  
      12Au     2.334788    30B1u    2.334788    19B3g    2.346483  
      19B2g    2.346483    20B3g    2.443233    20B2g    2.443233  
      31B1u    2.447873    32Ag     2.453493    33Ag     2.617007  
      13B1g    2.617007    22B2u    2.717396    22B3u    2.717396  
      21B3g    2.730857    21B2g    2.730857    32B1u    2.772253  
      34Ag     3.099452    33B1u    3.169867    13Au     3.319052  
      34B1u    3.319052    22B3g    3.525397    22B2g    3.525397  
      23B2u    3.849735    23B3u    3.849735    23B3g    3.888899  
      23B2g    3.888899    35Ag     3.955512    24B3u    4.301370  
      24B2u    4.301370    14B1g    4.327640    36Ag     4.327640  
      24B2g    4.364758    24B3g    4.364758    25B2u    4.400462  
      25B3u    4.400462    37Ag     4.407743    35B1u    4.438520  
      14Au     4.578750    36B1u    4.578750    15B1g    4.590949  
      38Ag     4.590949    37B1u    4.599500    39Ag     4.632867  
      26B2u    4.730071    26B3u    4.730071    38B1u    4.741390  
      15Au     4.741390    25B3g    4.811049    25B2g    4.811049  
      40Ag     4.814257    16B1g    4.814257    27B3u    4.835771  
      27B2u    4.835771    41Ag     4.891496    17B1g    4.891496  
      28B2u    4.917109    28B3u    4.917109    42Ag     4.953827  
      26B2g    4.976330    26B3g    4.976330    29B2u    4.989031  
      29B3u    4.989031    18B1g    4.998848    43Ag     4.998848  
      27B3g    5.027691    27B2g    5.027691    30B3u    5.035861  
      30B2u    5.035861    16Au     5.055948    39B1u    5.055948  
      17Au     5.098507    40B1u    5.098507    28B3g    5.179617  
      28B2g    5.179617    44Ag     5.205200    45Ag     5.248247  
      19B1g    5.248247    41B1u    5.358639    29B3g    5.392383  
      29B2g    5.392383    42B1u    5.476572    18Au     5.476572  
      43B1u    5.515387    44B1u    5.680493    31B2u    5.788934  
      31B3u    5.788934    30B3g    5.832019    30B2g    5.832019  
      19Au     5.855082    45B1u    5.855082    31B3g    6.470158  
      31B2g    6.470158    46B1u    6.817179    46Ag     7.400804  
      20B1g   12.817800    47Ag    12.817800    47B1u   12.947898  
      20Au    12.947898    32B2u   12.976570    32B3u   12.976570  
      48Ag    13.260663    32B3g   13.490530    32B2g   13.490530  
      48B1u   13.562865    33B2u   16.833292    33B3u   16.833292  
      33B3g   17.427400    33B2g   17.427400    49Ag    17.656601  
      49B1u   19.997243    50B1u   51.057946    50Ag    51.630343  

    Final Occupation by Irrep:
             Ag   B1g   B2g   B3g    Au   B1u   B2u   B3u 
    DOCC [     4,    0,    1,    1,    0,    4,    2,    2 ]
    SOCC [     1,    0,    0,    0,    0,    0,    0,    0 ]

  Energy converged.

  @UHF Final Energy:  -681.11885393831744

   => Energetics <=

    Nuclear Repulsion Energy =             59.7298129840562666
    One-Electron Energy =               -1053.2384659172175816
    Two-Electron Energy =                 312.3897989948438862
    PCM Polarization Energy =               0.0000000000000000
    Total Energy =                       -681.1188539383174430

    Alert: EFP and PCM quantities not currently incorporated into SCF psivars.
  UHF NO Occupations:
  HONO-2 :    4 Ag 1.9966927
  HONO-1 :    4B1u 1.9843818
  HONO-0 :    5 Ag 1.0000000
  LUNO+0 :    5B1u 0.0156182
  LUNO+1 :    6 Ag 0.0033073
  LUNO+2 :    3B3u 0.0003349
  LUNO+3 :    3B2u 0.0003349



Properties will be evaluated at   0.000000,   0.000000,   0.000000 Bohr

Properties computed using the SCF density matrix

  Nuclear Dipole Moment: (a.u.)
     X:     0.0000      Y:     0.0000      Z:    -0.0000

  Electronic Dipole Moment: (a.u.)
     X:     0.0000      Y:     0.0000      Z:     0.0000

  Dipole Moment: (a.u.)
     X:     0.0000      Y:     0.0000      Z:    -0.0000     Total:     0.0000

  Dipole Moment: (Debye)
     X:     0.0000      Y:     0.0000      Z:    -0.0000     Total:     0.0000


*** tstop() called on cqc05 at Fri Aug 21 04:35:24 2020
Module time:
	user time   =     107.26 seconds =       1.79 minutes
	system time =       3.66 seconds =       0.06 minutes
	total time  =        111 seconds =       1.85 minutes
Total time:
	user time   =     107.26 seconds =       1.79 minutes
	system time =       3.66 seconds =       0.06 minutes
	total time  =        111 seconds =       1.85 minutes

*** tstart() called on cqc05
*** at Fri Aug 21 04:35:24 2020


	Wfn Parameters:
	--------------------
	Wavefunction         = CCSD
	Number of irreps     = 8
	Number of MOs        = 272
	Number of active MOs = 262
	AO-Basis             = NONE
	Semicanonical        = false
	Reference            = UHF
	Print Level          = 1

	IRREP	# MOs	# FZDC	# DOCC	# SOCC	# VIRT	# FZVR
	-----	-----	------	------	------	------	------
	 Ag	   50	    3	    1	    1	    45	    0
	 B1g	   20	    0	    0	    0	    20	    0
	 B2g	   33	    1	    0	    0	    32	    0
	 B3g	   33	    1	    0	    0	    32	    0
	 Au	   20	    0	    0	    0	    20	    0
	 B1u	   50	    3	    1	    0	    46	    0
	 B2u	   33	    1	    1	    0	    31	    0
	 B3u	   33	    1	    1	    0	    31	    0
	Transforming integrals...
	IWL integrals will be deleted.
	(OO|OO)...
	Presorting SO-basis two-electron integrals.
	Sorting File: SO Ints (nn|nn) nbuckets = 1
	Transforming the one-electron integrals and constructing Fock matrices
	Starting AA/AB first half-transformation.
	Sorting AA/AB half-transformed integrals.
	Starting BB first half-transformation.
	Sorting BB half-transformed integrals.
	First half integral transformation complete.
	Starting AA second half-transformation.
	Starting AB second half-transformation.
	Starting BB second half-transformation.
	Two-electron integral transformation complete.
	(OO|OV)...
	Starting AA second half-transformation.
	Starting AB second half-transformation.
	Starting BB second half-transformation.
	Two-electron integral transformation complete.
	(OO|VV)...
	Starting AA second half-transformation.
	Starting AB second half-transformation.
	Starting BB second half-transformation.
	Two-electron integral transformation complete.
	(OV|OO)...
	Starting AA/AB first half-transformation.
	Sorting AA/AB half-transformed integrals.
	Starting BB first half-transformation.
	Sorting BB half-transformed integrals.
	First half integral transformation complete.
	Starting AA second half-transformation.
	Starting AB second half-transformation.
	Starting BB second half-transformation.
	Two-electron integral transformation complete.
	(OV|OV)...
	Starting AA second half-transformation.
	Starting AB second half-transformation.
	Starting BB second half-transformation.
	Two-electron integral transformation complete.
	(OV|VV)...
	Starting AA second half-transformation.
	Starting AB second half-transformation.
	Starting BB second half-transformation.
	Two-electron integral transformation complete.
	(VV|OO)...
	Starting AA/AB first half-transformation.
	Sorting AA/AB half-transformed integrals.
	Starting BB first half-transformation.
	Sorting BB half-transformed integrals.
	First half integral transformation complete.
	Starting AA second half-transformation.
	Starting AB second half-transformation.
	Starting BB second half-transformation.
	Two-electron integral transformation complete.
	(VV|OV)...
	Starting AA second half-transformation.
	Starting AB second half-transformation.
	Starting BB second half-transformation.
	Two-electron integral transformation complete.
	(VV|VV)...
	Starting AA second half-transformation.
	Starting AB second half-transformation.
	Starting BB second half-transformation.
	Two-electron integral transformation complete.
	Frozen core energy     =   -721.81847055968876

	Size of irrep 0 of <AB|CD> integrals:     18.723 (MW) /    149.783 (MB)
	Size of irrep 1 of <AB|CD> integrals:     14.478 (MW) /    115.824 (MB)
	Size of irrep 2 of <AB|CD> integrals:     17.024 (MW) /    136.191 (MB)
	Size of irrep 3 of <AB|CD> integrals:     17.024 (MW) /    136.191 (MB)
	Size of irrep 4 of <AB|CD> integrals:     14.470 (MW) /    115.763 (MB)
	Size of irrep 5 of <AB|CD> integrals:     19.838 (MW) /    158.705 (MB)
	Size of irrep 6 of <AB|CD> integrals:     17.032 (MW) /    136.257 (MB)
	Size of irrep 7 of <AB|CD> integrals:     17.032 (MW) /    136.257 (MB)
	Total:                                   135.621 (MW) /   1084.972 (MB)

	Size of irrep 0 of <ab|cd> integrals:     19.114 (MW) /    152.915 (MB)
	Size of irrep 1 of <ab|cd> integrals:     14.631 (MW) /    117.045 (MB)
	Size of irrep 2 of <ab|cd> integrals:     17.289 (MW) /    138.312 (MB)
	Size of irrep 3 of <ab|cd> integrals:     17.289 (MW) /    138.312 (MB)
	Size of irrep 4 of <ab|cd> integrals:     14.623 (MW) /    116.984 (MB)
	Size of irrep 5 of <ab|cd> integrals:     20.250 (MW) /    162.000 (MB)
	Size of irrep 6 of <ab|cd> integrals:     17.289 (MW) /    138.312 (MB)
	Size of irrep 7 of <ab|cd> integrals:     17.289 (MW) /    138.312 (MB)
	Total:                                   137.774 (MW) /   1102.191 (MB)

	Size of irrep 0 of <Ab|Cd> integrals:     80.210 (MW) /    641.679 (MB)
	Size of irrep 1 of <Ab|Cd> integrals:     58.217 (MW) /    465.735 (MB)
	Size of irrep 2 of <Ab|Cd> integrals:     68.625 (MW) /    548.997 (MB)
	Size of irrep 3 of <Ab|Cd> integrals:     68.625 (MW) /    548.997 (MB)
	Size of irrep 4 of <Ab|Cd> integrals:     58.186 (MW) /    465.491 (MB)
	Size of irrep 5 of <Ab|Cd> integrals:     80.174 (MW) /    641.393 (MB)
	Size of irrep 6 of <Ab|Cd> integrals:     68.641 (MW) /    549.130 (MB)
	Size of irrep 7 of <Ab|Cd> integrals:     68.641 (MW) /    549.130 (MB)
	Total:                                   551.319 (MW) /   4410.553 (MB)

	Size of irrep 0 of <IA|BC> integrals:      1.764 (MW) /     14.115 (MB)
	Size of irrep 1 of <IA|BC> integrals:      0.928 (MW) /      7.427 (MB)
	Size of irrep 2 of <IA|BC> integrals:      1.329 (MW) /     10.629 (MB)
	Size of irrep 3 of <IA|BC> integrals:      1.329 (MW) /     10.629 (MB)
	Size of irrep 4 of <IA|BC> integrals:      0.943 (MW) /      7.547 (MB)
	Size of irrep 5 of <IA|BC> integrals:      1.791 (MW) /     14.324 (MB)
	Size of irrep 6 of <IA|BC> integrals:      1.312 (MW) /     10.499 (MB)
	Size of irrep 7 of <IA|BC> integrals:      1.312 (MW) /     10.499 (MB)
	Total:                                    10.709 (MW) /     85.669 (MB)

	Size of irrep 0 of <ia|bc> integrals:      1.386 (MW) /     11.090 (MB)
	Size of irrep 1 of <ia|bc> integrals:      0.780 (MW) /      6.242 (MB)
	Size of irrep 2 of <ia|bc> integrals:      1.073 (MW) /      8.582 (MB)
	Size of irrep 3 of <ia|bc> integrals:      1.073 (MW) /      8.582 (MB)
	Size of irrep 4 of <ia|bc> integrals:      0.795 (MW) /      6.363 (MB)
	Size of irrep 5 of <ia|bc> integrals:      1.404 (MW) /     11.232 (MB)
	Size of irrep 6 of <ia|bc> integrals:      1.073 (MW) /      8.582 (MB)
	Size of irrep 7 of <ia|bc> integrals:      1.073 (MW) /      8.582 (MB)
	Total:                                     8.657 (MW) /     69.256 (MB)

	Size of irrep 0 of <Ia|Bc> integrals:      1.791 (MW) /     14.330 (MB)
	Size of irrep 1 of <Ia|Bc> integrals:      0.931 (MW) /      7.447 (MB)
	Size of irrep 2 of <Ia|Bc> integrals:      1.334 (MW) /     10.670 (MB)
	Size of irrep 3 of <Ia|Bc> integrals:      1.334 (MW) /     10.670 (MB)
	Size of irrep 4 of <Ia|Bc> integrals:      0.946 (MW) /      7.567 (MB)
	Size of irrep 5 of <Ia|Bc> integrals:      1.809 (MW) /     14.470 (MB)
	Size of irrep 6 of <Ia|Bc> integrals:      1.326 (MW) /     10.605 (MB)
	Size of irrep 7 of <Ia|Bc> integrals:      1.326 (MW) /     10.605 (MB)
	Total:                                    10.795 (MW) /     86.362 (MB)

	Size of irrep 0 of <iA|bC> integrals:      1.370 (MW) /     10.962 (MB)
	Size of irrep 1 of <iA|bC> integrals:      0.778 (MW) /      6.226 (MB)
	Size of irrep 2 of <iA|bC> integrals:      1.069 (MW) /      8.549 (MB)
	Size of irrep 3 of <iA|bC> integrals:      1.069 (MW) /      8.549 (MB)
	Size of irrep 4 of <iA|bC> integrals:      0.793 (MW) /      6.346 (MB)
	Size of irrep 5 of <iA|bC> integrals:      1.388 (MW) /     11.103 (MB)
	Size of irrep 6 of <iA|bC> integrals:      1.060 (MW) /      8.484 (MB)
	Size of irrep 7 of <iA|bC> integrals:      1.060 (MW) /      8.484 (MB)
	Total:                                     8.588 (MW) /     68.704 (MB)

	Size of irrep 0 of tIjAb amplitudes:       0.045 (MW) /      0.358 (MB)
	Size of irrep 1 of tIjAb amplitudes:       0.015 (MW) /      0.122 (MB)
	Size of irrep 2 of tIjAb amplitudes:       0.017 (MW) /      0.133 (MB)
	Size of irrep 3 of tIjAb amplitudes:       0.017 (MW) /      0.133 (MB)
	Size of irrep 4 of tIjAb amplitudes:       0.000 (MW) /      0.000 (MB)
	Size of irrep 5 of tIjAb amplitudes:       0.027 (MW) /      0.215 (MB)
	Size of irrep 6 of tIjAb amplitudes:       0.025 (MW) /      0.199 (MB)
	Size of irrep 7 of tIjAb amplitudes:       0.025 (MW) /      0.199 (MB)
	Total:                                     0.170 (MW) /      1.358 (MB)

	Nuclear Rep. energy          =     59.72981298405627
	SCF energy                   =   -681.11885393831744
	One-electron energy          =    -30.79899685700772
	Two-electron (AA) energy     =      2.94253262990964
	Two-electron (BB) energy     =      1.78536453511748
	Two-electron (AB) energy     =      7.04090332929650
	Two-electron energy          =     11.76880049432362
	Reference energy             =   -681.11885393831665

*** tstop() called on cqc05 at Fri Aug 21 04:36:54 2020
Module time:
	user time   =      53.51 seconds =       0.89 minutes
	system time =      33.32 seconds =       0.56 minutes
	total time  =         90 seconds =       1.50 minutes
Total time:
	user time   =     160.77 seconds =       2.68 minutes
	system time =      36.98 seconds =       0.62 minutes
	total time  =        201 seconds =       3.35 minutes

*** tstart() called on cqc05
*** at Fri Aug 21 04:36:54 2020

            **************************
            *                        *
            *        CCENERGY        *
            *                        *
            **************************

    Nuclear Rep. energy (wfn)     =   59.729812984056267
    SCF energy          (wfn)     = -681.118853938317443
    Reference energy    (file100) = -681.118853938316647

    Input parameters:
    -----------------
    Wave function   =     CCSD
    Reference wfn   =     UHF
    Brueckner       =     No
    Memory (Mbytes) =     250000.0
    Maxiter         =     50
    R_Convergence   =     1.0e-07
    E_Convergence   =     1.0e-06
    Restart         =     Yes
    DIIS            =     Yes
    AO Basis        =     NONE
    ABCD            =     NEW
    Cache Level     =     2
    Cache Type      =     LRU
    Print Level     =     1
    Num. of threads =     4
    # Amps to Print =     10
    Print MP2 Amps? =     No
    Analyze T2 Amps =     No
    Print Pair Ener =     No
    Local CC        =     No
    SCS-MP2         =     False
    SCSN-MP2        =     False
    SCS-CCSD        =     False

MP2 correlation energy -0.2893508864312402
                Solving CC Amplitude Equations
                ------------------------------
  Iter             Energy              RMS        T1Diag      D1Diag    New D1Diag    D2Diag
  ----     ---------------------    ---------   ----------  ----------  ----------   --------
     0        -0.289350886431242    0.000e+00    0.000000    0.000000    0.000000    0.000000
     1        -0.276755003367710    1.239e-01    0.027734    0.000000    0.000000    0.000000
     2        -0.291679938740607    4.836e-02    0.028120    0.000000    0.000000    0.000000
     3        -0.296431691160576    2.298e-02    0.035804    0.000000    0.000000    0.000000
     4        -0.296599692549056    6.109e-03    0.037181    0.000000    0.000000    0.000000
     5        -0.296695127824943    2.536e-03    0.037724    0.000000    0.000000    0.000000
     6        -0.296664164822958    8.535e-04    0.037780    0.000000    0.000000    0.000000
     7        -0.296677501560787    2.616e-04    0.037792    0.000000    0.000000    0.000000
     8        -0.296680459944381    9.789e-05    0.037795    0.000000    0.000000    0.000000
     9        -0.296677942876570    3.443e-05    0.037796    0.000000    0.000000    0.000000
    10        -0.296677898391206    1.273e-05    0.037798    0.000000    0.000000    0.000000
    11        -0.296677693964308    4.572e-06    0.037798    0.000000    0.000000    0.000000
    12        -0.296677886226594    1.598e-06    0.037799    0.000000    0.000000    0.000000
    13        -0.296677901670710    5.362e-07    0.037799    0.000000    0.000000    0.000000
    14        -0.296677901773646    2.098e-07    0.037799    0.000000    0.000000    0.000000
    15        -0.296677904813117    9.283e-08    0.037799    0.000000    0.000000    0.000000
    15        -0.296677904813117    9.283e-08    0.037799    0.000000    0.000000    0.000000

    Iterations converged.


    CCSD corr. energy   =   -0.296677904813117
    PPL corr. energy    =    0.111843146687585
    OS PPL corr. energy =    0.095607256247671
    SS PPL corr. energy =    0.016235890439913
    Largest TIA Amplitudes:
              2 149         0.0313042552
              2 150        -0.0283118325
              3 198        -0.0281459469
              4 229        -0.0281459469
              3 196         0.0200160445
              4 227         0.0200160445
              2 153         0.0152418548
              3 205         0.0130107540
              4 236         0.0130107540
              3 200        -0.0124181785

    Largest Tia Amplitudes:
              0   0         0.0450521895
              2 200         0.0261989516
              3 231         0.0261989516
              1 151         0.0205919434
              1 154        -0.0183871066
              1 155         0.0167482259
              2 197        -0.0165120958
              3 228        -0.0165120958
              1 152        -0.0161401565
              0   5        -0.0119165919

    Largest TIJAB Amplitudes:
      4   3  97  65         0.0550638735
      3   1 150  97        -0.0302449551
      4   1 150  65        -0.0302449551
      3   1 149  97         0.0289277661
      4   1 149  65         0.0289277661
      4   3  46   5         0.0200220207
      3   1 153  97         0.0172685199
      4   1 153  65         0.0172685199
      4   3  45   5         0.0164426456
      4   3  46   2         0.0164426456

    Largest Tijab Amplitudes:
      3   2  98  66         0.0610499439
      3   1  66   0        -0.0571410822
      2   1  98   0        -0.0571410822
      3   2  47   6         0.0200640454
      3   2  46   6         0.0167177444
      3   2  47   3         0.0167177444
      3   1  66   1         0.0157297897
      2   1  98   1         0.0157297897
      3   1  66   6         0.0155591577
      3   1  98  47         0.0155591577

    Largest TIjAb Amplitudes:
      3   2  97  98         0.2053617409
      4   3  65  66         0.2053617409
      3   3  97  66         0.1099535617
      4   2  65  98         0.1099535617
      4   1  65   0         0.1056997862
      3   1  97   0         0.1056997862
      2   1  65  66        -0.0697268720
      2   1  97  98        -0.0697268720
      1   1 150   0        -0.0573850217
      3   3  65  98         0.0517091267

    SCF energy       (wfn)                    = -681.118853938317443
    Reference energy (file100)                = -681.118853938316647

    Opposite-spin MP2 correlation energy      =   -0.222505701133325
    Same-spin MP2 correlation energy          =   -0.066845185297875
    MP2 correlation energy                    =   -0.289350886431240
      * MP2 total energy                      = -681.408204824747941

    Opposite-spin CCSD correlation energy     =   -0.241883280499598
    Same-spin CCSD correlation energy         =   -0.054794629469285
    CCSD correlation energy                   =   -0.296677904813117
      * CCSD total energy                     = -681.415531843129770


*** tstop() called on cqc05 at Fri Aug 21 04:38:11 2020
Module time:
	user time   =      33.69 seconds =       0.56 minutes
	system time =      38.99 seconds =       0.65 minutes
	total time  =         77 seconds =       1.28 minutes
Total time:
	user time   =     194.46 seconds =       3.24 minutes
	system time =      75.97 seconds =       1.27 minutes
	total time  =        278 seconds =       4.63 minutes

*** Psi4 exiting successfully. Buy a developer a beer!
