
    -----------------------------------------------------------------------
          Psi4: An Open-Source Ab Initio Electronic Structure Package
                               Psi4 1.2a1.dev939 

                         Git: Rev {HEAD} fa1ec19 dirty


    R. M. Parrish, L. A. Burns, D. G. A. Smith, A. C. Simmonett,
    A. E. DePrince III, E. G. Hohenstein, U. Bozkaya, A. Yu. Sokolov,
    R. Di Remigio, R. M. Richard, J. F. Gonthier, A. M. James,
    H. R. McAlexander, A. Kumar, M. Saitow, X. Wang, B. P. Pritchard,
    P. Verma, H. F. Schaefer III, K. Patkowski, R. A. King, E. F. Valeev,
    F. A. Evangelista, J. M. Turney, T. D. Crawford, and C. D. Sherrill,
    J. Chem. Theory Comput. 13(7) pp 3185--3197 (2017).
    (doi: 10.1021/acs.jctc.7b00174)

    -----------------------------------------------------------------------


    Psi4 started on: Saturday, 31 October 2020 05:20AM

    Process ID: 384364
    PSIDATADIR: /home/fs71337/airmler/src/psi4_uhf/build/stage/usr/local/psi4/share/psi4
    Memory:     500.0 MiB
    Threads:    48
    
  ==> Input File <==

--------------------------------------------------------------------------
# Any line starting with the # character is a comment line
memory 250000 mb
molecule molecule{
1 2
P          0.0000000000        0.0000000000        0.9966955025
P          0.0000000000        0.0000000000       -0.9966955025
}

set {
  reference uhf
  basis aug-cc-pv(6+d)z
  scf_type OUT_OF_CORE
  freeze_core true
}

energy('ccsd')
--------------------------------------------------------------------------

  Memory set to 232.831 GiB by Python driver.

*** tstart() called on n412-050.vsc4.prov
*** at Sat Oct 31 05:20:08 2020

   => Loading Basis Set <=

    Name: AUG-CC-PV(6+D)Z
    Role: ORBITAL
    Keyword: BASIS
    atoms 1-2 entry P          line  1025 file /home/fs71337/airmler/src/psi4_uhf/build/stage/usr/local/psi4/share/psi4/basis/aug-cc-pv_6pd_z.gbs 


         ---------------------------------------------------------
                                   SCF
            by Justin Turney, Rob Parrish, Andy Simmonett
                             and Daniel Smith
                              UHF Reference
                       48 Threads, 238418 MiB Core
         ---------------------------------------------------------

  ==> Geometry <==

    Molecular point group: d2h
    Full point group: D_inf_h

    Geometry (in Angstrom), charge = 1, multiplicity = 2:

       Center              X                  Y                   Z               Mass       
    ------------   -----------------  -----------------  -----------------  -----------------
           P          0.000000000000     0.000000000000     0.996695502500    30.973761629000
           P          0.000000000000     0.000000000000    -0.996695502500    30.973761629000

  Running in d2h symmetry.

  Rotational constants: A = ************  B =      0.27394  C =      0.27394 [cm^-1]
  Rotational constants: A = ************  B =   8212.36515  C =   8212.36515 [MHz]
  Nuclear repulsion =   59.729812984056259

  Charge       = 1
  Multiplicity = 2
  Electrons    = 29
  Nalpha       = 15
  Nbeta        = 14

  ==> Algorithm <==

  SCF Algorithm Type is OUT_OF_CORE.
  DIIS enabled.
  MOM disabled.
  Fractional occupation disabled.
  Guess Type is GWH.
  Energy threshold   = 1.00e-08
  Density threshold  = 1.00e-08
  Integral threshold = 0.00e+00

  ==> Primary Basis <==

  Basis Set: AUG-CC-PV(6+D)Z
    Blend: AUG-CC-PV(6+D)Z
    Number of shells: 76
    Number of basis function: 396
    Number of Cartesian functions: 608
    Spherical Harmonics?: true
    Max angular momentum: 6

  ==> Pre-Iterations <==

   -------------------------------------------------------
    Irrep   Nso     Nmo     Nalpha   Nbeta   Ndocc  Nsocc
   -------------------------------------------------------
     Ag        70      70       0       0       0       0
     B1g       32      32       0       0       0       0
     B2g       48      48       0       0       0       0
     B3g       48      48       0       0       0       0
     Au        32      32       0       0       0       0
     B1u       70      70       0       0       0       0
     B2u       48      48       0       0       0       0
     B3u       48      48       0       0       0       0
   -------------------------------------------------------
    Total     396     396      15      14      14       1
   -------------------------------------------------------

  ==> Integral Setup <==

  ==> DiskJK: Disk-Based J/K Matrices <==

    J tasked:                  Yes
    K tasked:                  Yes
    wK tasked:                  No
    Memory (MB):            178813
    Schwarz Cutoff:          1E-12

  Minimum eigenvalue in the overlap matrix is 3.4067036888E-06.
  Using Symmetric Orthogonalization.

  SCF Guess: Generalized Wolfsberg-Helmholtz.

  ==> Iterations <==

                        Total Energy        Delta E     RMS |[F,P]|

    Occupation by irrep:
             Ag   B1g   B2g   B3g    Au   B1u   B2u   B3u 
    DOCC [     4,    0,    1,    1,    0,    4,    2,    2 ]
    SOCC [     1,    0,    0,    0,    0,    0,    0,    0 ]

   @UHF iter   1:  -666.84330694367304   -6.66843e+02   2.13088e-01 
   @UHF iter   2:  -679.61221764254651   -1.27689e+01   4.33079e-02 DIIS
   @UHF iter   3:  -680.92683562290108   -1.31462e+00   1.94284e-02 DIIS
   @UHF iter   4:  -681.11390772340985   -1.87072e-01   1.64293e-03 DIIS
   @UHF iter   5:  -681.11799362731870   -4.08590e-03   6.03680e-04 DIIS
   @UHF iter   6:  -681.11897157110809   -9.77944e-04   1.94261e-04 DIIS
   @UHF iter   7:  -681.11910874847933   -1.37177e-04   5.71081e-05 DIIS
   @UHF iter   8:  -681.11911790342310   -9.15494e-06   2.43503e-05 DIIS
   @UHF iter   9:  -681.11912017169004   -2.26827e-06   6.69844e-06 DIIS
   @UHF iter  10:  -681.11912040547645   -2.33786e-07   1.68952e-06 DIIS
   @UHF iter  11:  -681.11912041710389   -1.16274e-08   3.69113e-07 DIIS
   @UHF iter  12:  -681.11912041765231   -5.48425e-10   9.15175e-08 DIIS
   @UHF iter  13:  -681.11912041768949   -3.71756e-11   9.98222e-09 DIIS

  ==> Post-Iterations <==

   @Spin Contamination Metric:   3.897524911E-02
   @S^2 Expected:                7.500000000E-01
   @S^2 Observed:                7.889752491E-01
   @S   Expected:                5.000000000E-01
   @S   Observed:                5.000000000E-01

    Orbital Energies (a.u.)
    -----------------------

    Alpha Occupied:                                                       

       1Ag   -80.300532     1B1u  -80.300526     2Ag    -7.835294  
       2B1u   -7.834800     3Ag    -5.735667     3B1u   -5.734176  
       1B3u   -5.723817     1B2u   -5.723817     1B2g   -5.723662  
       1B3g   -5.723662     4Ag    -1.185116     4B1u   -0.925741  
       5Ag    -0.732860     2B3u   -0.622848     2B2u   -0.622848  

    Alpha Virtual:                                                        

       2B2g   -0.246316     2B3g   -0.246316     5B1u   -0.100628  
       6Ag    -0.097745     3B3u   -0.070428     3B2u   -0.070428  
       7Ag    -0.060272     6B1u   -0.051304     3B2g   -0.040095  
       3B3g   -0.040095     8Ag    -0.032575     1B1g   -0.032575  
       7B1u    0.001847     4B3u    0.009513     4B2u    0.009513  
       9Ag     0.018311     1Au     0.035092     8B1u    0.035092  
       4B2g    0.055819     4B3g    0.055819     9B1u    0.058992  
       5B3u    0.070345     5B2u    0.070345    10Ag     0.093803  
       6B3u    0.134869     6B2u    0.134869     2B1g    0.141020  
      11Ag     0.141020    12Ag     0.142931    10B1u    0.150283  
       7B2u    0.157677     7B3u    0.157677     5B2g    0.165900  
       5B3g    0.165900     2Au     0.195748    11B1u    0.195748  
      13Ag     0.221168     3B1g    0.234368    14Ag     0.234368  
       6B2g    0.239499     6B3g    0.239499     7B2g    0.245620  
       7B3g    0.245620    12B1u    0.256774     8B3u    0.299269  
       8B2u    0.299269    13B1u    0.356505     3Au     0.356830  
      14B1u    0.356830    15Ag     0.364967     8B2g    0.483192  
       8B3g    0.483192     9B3u    0.487434     9B2u    0.487434  
      16Ag     0.490660     4B1g    0.490660    15B1u    0.533182  
      10B2u    0.563057    10B3u    0.563057     4Au     0.594668  
      16B1u    0.594668    17B1u    0.606799     5Au     0.606799  
      11B3u    0.608027    11B2u    0.608027    18B1u    0.611874  
      17Ag     0.611952     5B1g    0.619552    18Ag     0.619552  
       9B2g    0.636920     9B3g    0.636920    19Ag     0.663993  
      10B2g    0.683888    10B3g    0.683888    12B2u    0.684918  
      12B3u    0.684918     6B1g    0.692830    20Ag     0.692830  
      11B2g    0.718960    11B3g    0.718960    13B2u    0.721999  
      13B3u    0.721999    21Ag     0.752328     7B1g    0.776482  
      22Ag     0.776482     6Au     0.791296    19B1u    0.791296  
      23Ag     0.819017    20B1u    0.827948    12B3g    0.847926  
      12B2g    0.847926    13B2g    0.850500    13B3g    0.850500  
      21B1u    0.963932    14B2u    1.109030    14B3u    1.109030  
       7Au     1.147973    22B1u    1.147973    23B1u    1.164854  
      15B2u    1.354670    15B3u    1.354670    14B2g    1.362929  
      14B3g    1.362929     8B1g    1.376940    24Ag     1.376940  
      25Ag     1.419601    16B3u    1.456215    16B2u    1.456215  
      26Ag     1.496230     9B1g    1.496230    15B2g    1.501275  
      15B3g    1.501275    24B1u    1.522698    10B1g    1.556635  
      27Ag     1.556635    25B1u    1.580114     8Au     1.580114  
      17B2u    1.593496    17B3u    1.593496    18B2u    1.626311  
      18B3u    1.626311    28Ag     1.634302     9Au     1.635697  
      26B1u    1.635697    16B2g    1.643648    16B3g    1.643648  
      19B2u    1.647771    19B3u    1.647771    11B1g    1.648552  
      29Ag     1.648552    17B2g    1.654252    17B3g    1.654252  
      27B1u    1.666933    30Ag     1.675556    28B1u    1.687660  
      10Au     1.687660    11Au     1.739736    29B1u    1.739736  
      20B2u    1.790096    20B3u    1.790096    21B2u    1.797836  
      21B3u    1.797836    12B1g    1.809924    31Ag     1.809924  
      30B1u    1.840251    18B2g    1.858055    18B3g    1.858055  
      19B2g    1.906942    19B3g    1.906942    20B2g    1.997941  
      20B3g    1.997941    22B2u    2.034086    22B3u    2.034086  
      31B1u    2.053723    12Au     2.053723    32Ag     2.060115  
      33Ag     2.087572    21B2g    2.141600    21B3g    2.141600  
      32B1u    2.181886    34Ag     2.193101    13B1g    2.193101  
      22B2g    2.361050    22B3g    2.361050    33B1u    2.543608  
      23B2u    2.629346    23B3u    2.629346    13Au     2.730296  
      34B1u    2.730296    35Ag     2.768247    24B3u    3.021889  
      24B2u    3.021889    36Ag     3.125236    14B1g    3.125236  
      15B1g    3.125440    37Ag     3.125440    35B1u    3.150610  
      25B2u    3.163835    25B3u    3.163835    23B2g    3.172690  
      23B3g    3.172690    16B1g    3.218679    38Ag     3.218679  
      14Au     3.228535    36B1u    3.228535    17B1g    3.349070  
      39Ag     3.349070    26B2u    3.354457    26B3u    3.354457  
      40Ag     3.366757    37B1u    3.410308    15Au     3.410308  
      27B3u    3.435349    27B2u    3.435349    18B1g    3.453541  
      41Ag     3.453541    38B1u    3.453628    16Au     3.453628  
      24B3g    3.459697    24B2g    3.459697    28B3u    3.509624  
      28B2u    3.509624    25B3g    3.520206    25B2g    3.520206  
      26B2g    3.521751    26B3g    3.521751    29B2u    3.545694  
      29B3u    3.545694    27B2g    3.576574    27B3g    3.576574  
      39B1u    3.609800    42Ag     3.640127    19B1g    3.640127  
      43Ag     3.645134    17Au     3.664428    40B1u    3.664428  
      41B1u    3.726222    18Au     3.726222    30B2u    3.735789  
      30B3u    3.735789    44Ag     3.770231    31B3u    3.814570  
      31B2u    3.814570    42B1u    3.817665    28B2g    3.880573  
      28B3g    3.880573    19Au     3.939074    43B1u    3.939074  
      29B2g    4.002127    29B3g    4.002127    32B2u    4.023947  
      32B3u    4.023947    44B1u    4.064219    20Au     4.064219  
      20B1g    4.072805    45Ag     4.072805    21B1g    4.122587  
      46Ag     4.122587    30B2g    4.153742    30B3g    4.153742  
      45B1u    4.173476    31B2g    4.333874    31B3g    4.333874  
      47Ag     4.362547    33B3u    4.362636    33B2u    4.362636  
      46B1u    4.488381    48Ag     4.567265    22B1g    4.583239  
      49Ag     4.583239    21Au     4.702295    47B1u    4.702295  
      32B2g    4.714441    32B3g    4.714441    33B2g    4.846857  
      33B3g    4.846857    50Ag     4.919174    48B1u    5.102037  
      34B3u    5.379143    34B2u    5.379143    49B1u    5.614921  
      22Au     5.614921    34B2g    5.622705    34B3g    5.622705  
      50B1u    6.155456    35B3u    6.191108    35B2u    6.191108  
      35B2g    6.691481    35B3g    6.691481    51Ag     6.711660  
      23B1g    6.812095    52Ag     6.812095    36B3u    6.822977  
      36B2u    6.822977    24B1g    6.848968    53Ag     6.848968  
      51B1u    6.869483    23Au     6.869483    37B3u    6.878861  
      37B2u    6.878861    36B2g    7.001299    36B3g    7.001299  
      38B3u    7.162179    38B2u    7.162179    39B3u    7.182530  
      39B2u    7.182530    25B1g    7.205392    54Ag     7.205392  
      26B1g    7.218435    55Ag     7.218435    52B1u    7.259053  
      24Au     7.259053    56Ag     7.259530    53B1u    7.263523  
      25Au     7.267285    54B1u    7.267285    27B1g    7.275304  
      57Ag     7.275304    40B2u    7.300524    40B3u    7.300524  
      37B3g    7.369877    37B2g    7.369877    55B1u    7.565863  
      58Ag     7.588454    28B1g    7.588454    41B3u    7.590844  
      41B2u    7.590844    26Au     7.606137    56B1u    7.606137  
      38B2g    7.646557    38B3g    7.646557    39B2g    7.661965  
      39B3g    7.661965    42B2u    7.731139    42B3u    7.731139  
      57B1u    7.758194    27Au     7.758194    59Ag     7.787167  
      28Au     7.914303    58B1u    7.914303    40B3g    7.923933  
      40B2g    7.923933    41B2g    7.942620    41B3g    7.942620  
      29B1g    7.984033    60Ag     7.984033    42B3g    8.078293  
      42B2g    8.078293    43B2u    8.117990    43B3u    8.117990  
      59B1u    8.143726    60B1u    8.383847    61Ag     8.410866  
      61B1u    8.453636    29Au     8.453636    44B3u    8.740989  
      44B2u    8.740989    43B2g    8.844920    43B3g    8.844920  
      30B1g    8.854683    62Ag     8.854683    31B1g    9.017640  
      63Ag     9.017640    44B2g    9.087285    44B3g    9.087285  
      62B1u    9.198618    30Au     9.249766    63B1u    9.249766  
      45B3u    9.354912    45B2u    9.354912    64Ag     9.366731  
      64B1u    9.789316    31Au     9.789316    45B2g    9.878946  
      45B3g    9.878946    46B3u    9.991740    46B2u    9.991740  
      65Ag    10.390757    46B3g   10.494639    46B2g   10.494639  
      65B1u   10.676863    66Ag    11.224051    66B1u   13.314543  
      32B1g   25.580588    67Ag    25.580588    47B3u   25.714490  
      47B2u   25.714490    68Ag    25.913113    32Au    25.914248  
      67B1u   25.914248    47B2g   26.106145    47B3g   26.106145  
      48B3u   26.109692    48B2u   26.109692    68B1u   26.308469  
      48B2g   27.087204    48B3g   27.087204    69B1u   28.526088  
      69Ag    29.666036    70Ag   211.129248    70B1u  214.908247  

    Beta Occupied:                                                        

       1Ag   -80.295804     1B1u  -80.295801     2Ag    -7.830616  
       2B1u   -7.830304     1B2u   -5.721432     1B3u   -5.721432  
       1B3g   -5.721310     1B2g   -5.721310     3Ag    -5.711500  
       3B1u   -5.710171     4Ag    -1.112932     4B1u   -0.823042  
       2B2u   -0.617925     2B3u   -0.617925  

    Beta Virtual:                                                         

       5Ag    -0.331740     2B3g   -0.231647     2B2g   -0.231647  
       6Ag    -0.090457     5B1u   -0.089836     3B3u   -0.069457  
       3B2u   -0.069457     7Ag    -0.054442     3B2g   -0.039942  
       3B3g   -0.039942     1B1g   -0.033131     8Ag    -0.033131  
       6B1u   -0.027331     7B1u    0.014625     4B3u    0.021387  
       4B2u    0.021387     9Ag     0.029674     1Au     0.035540  
       8B1u    0.035540     4B2g    0.055827     4B3g    0.055827  
       9B1u    0.071204     5B3u    0.072024     5B2u    0.072024  
      10Ag     0.106993     2B1g    0.139999    11Ag     0.139999  
      12Ag     0.153184     6B3u    0.157425     6B2u    0.157425  
       7B2u    0.160444     7B3u    0.160444     5B2g    0.166828  
       5B3g    0.166828    10B1u    0.168871     2Au     0.197617  
      11B1u    0.197617    13Ag     0.233237     3B1g    0.236158  
      14Ag     0.236158     6B3g    0.239593     6B2g    0.239593  
       7B2g    0.249416     7B3g    0.249416    12B1u    0.261281  
       8B3u    0.306350     8B2u    0.306350     3Au     0.356373  
      13B1u    0.356373    14B1u    0.358939    15Ag     0.385642  
      16Ag     0.490384     4B1g    0.490384     9B3u    0.491085  
       9B2u    0.491085     8B2g    0.493479     8B3g    0.493479  
      15B1u    0.552395    10B2u    0.562741    10B3u    0.562741  
      16B1u    0.598060     4Au     0.598060    17B1u    0.606803  
       5Au     0.606803     5B1g    0.619957    17Ag     0.619957  
      11B3u    0.620375    11B2u    0.620375    18B1u    0.621359  
      18Ag     0.624515     9B2g    0.643978     9B3g    0.643978  
      19Ag     0.683710    10B2g    0.685185    10B3g    0.685185  
      12B2u    0.685214    12B3u    0.685214     6B1g    0.699691  
      20Ag     0.699691    11B2g    0.722908    11B3g    0.722908  
      13B2u    0.732623    13B3u    0.732623    21Ag     0.768240  
       7B1g    0.778563    22Ag     0.778563     6Au     0.790433  
      19B1u    0.790433    23Ag     0.826523    20B1u    0.841319  
      12B3g    0.847008    12B2g    0.847008    13B2g    0.860365  
      13B3g    0.860365    21B1u    0.989504    14B2u    1.116549  
      14B3u    1.116549     7Au     1.152731    22B1u    1.152731  
      23B1u    1.172708    15B3u    1.354292    15B2u    1.354292  
      14B2g    1.371670    14B3g    1.371670     8B1g    1.376742  
      24Ag     1.376742    25Ag     1.427680    16B3u    1.458310  
      16B2u    1.458310    26Ag     1.496724     9B1g    1.496724  
      15B2g    1.501098    15B3g    1.501098    24B1u    1.530498  
      10B1g    1.564299    27Ag     1.564299    25B1u    1.580790  
       8Au     1.580790    17B3u    1.603544    17B2u    1.603544  
      18B2u    1.636661    18B3u    1.636661     9Au     1.640757  
      26B1u    1.640757    16B2g    1.648403    16B3g    1.648403  
      28Ag     1.649008    19B2u    1.650929    19B3u    1.650929  
      11B1g    1.658024    29Ag     1.658024    17B2g    1.660619  
      17B3g    1.660619    27B1u    1.673775    30Ag     1.686207  
      28B1u    1.688122    10Au     1.688122    11Au     1.739526  
      29B1u    1.739526    20B2u    1.790142    20B3u    1.790142  
      12B1g    1.810649    31Ag     1.810649    21B2u    1.812925  
      21B3u    1.812925    18B2g    1.856595    18B3g    1.856595  
      30B1u    1.861822    19B2g    1.909284    19B3g    1.909284  
      20B2g    2.004041    20B3g    2.004041    22B2u    2.035738  
      22B3u    2.035738    31B1u    2.060719    12Au     2.060719  
      32Ag     2.071055    33Ag     2.111355    21B2g    2.142146  
      21B3g    2.142146    34Ag     2.197168    13B1g    2.197168  
      32B1u    2.197983    22B2g    2.373583    22B3g    2.373583  
      33B1u    2.546221    23B2u    2.639285    23B3u    2.639285  
      13Au     2.732532    34B1u    2.732532    35Ag     2.783042  
      24B3u    3.022955    24B2u    3.022955    36Ag     3.124798  
      14B1g    3.124798    15B1g    3.127471    37Ag     3.127471  
      35B1u    3.158804    25B2u    3.170041    25B3u    3.170041  
      23B2g    3.176878    23B3g    3.176878    14Au     3.228108  
      36B1u    3.228108    16B1g    3.231322    38Ag     3.231322  
      17B1g    3.348743    39Ag     3.348743    26B2u    3.370141  
      26B3u    3.370141    40Ag     3.388322    37B1u    3.410563  
      15Au     3.410563    27B3u    3.434925    27B2u    3.434925  
      18B1g    3.457260    41Ag     3.457260    24B3g    3.460668  
      24B2g    3.460668    38B1u    3.461785    16Au     3.461785  
      28B2u    3.517205    28B3u    3.517205    25B2g    3.521270  
      25B3g    3.521270    26B3g    3.527871    26B2g    3.527871  
      29B2u    3.554614    29B3u    3.554614    27B2g    3.587731  
      27B3g    3.587731    39B1u    3.623400    42Ag     3.650783  
      19B1g    3.650783    43Ag     3.658513    17Au     3.667481  
      40B1u    3.667481    41B1u    3.732076    18Au     3.732076  
      30B2u    3.742524    30B3u    3.742524    44Ag     3.771507  
      31B3u    3.816895    31B2u    3.816895    42B1u    3.828163  
      28B2g    3.884397    28B3g    3.884397    19Au     3.940097  
      43B1u    3.940097    29B3g    4.002096    29B2g    4.002096  
      32B2u    4.024243    32B3u    4.024243    44B1u    4.068951  
      20Au     4.068951    20B1g    4.076348    45Ag     4.076348  
      21B1g    4.126923    46Ag     4.126923    30B2g    4.159857  
      30B3g    4.159857    45B1u    4.184897    31B2g    4.341260  
      31B3g    4.341260    47Ag     4.372314    33B3u    4.375896  
      33B2u    4.375896    46B1u    4.495829    48Ag     4.579543  
      22B1g    4.586469    49Ag     4.586469    21Au     4.707432  
      47B1u    4.707432    32B2g    4.716093    32B3g    4.716093  
      33B2g    4.854131    33B3g    4.854131    50Ag     4.937771  
      48B1u    5.107839    34B3u    5.385666    34B2u    5.385666  
      49B1u    5.618021    22Au     5.618021    34B2g    5.631995  
      34B3g    5.631995    50B1u    6.168402    35B3u    6.192969  
      35B2u    6.192969    35B2g    6.695929    35B3g    6.695929  
      51Ag     6.724396    23B1g    6.811508    52Ag     6.811508  
      36B3u    6.827067    36B2u    6.827067    24B1g    6.859322  
      53Ag     6.859322    51B1u    6.869264    23Au     6.869264  
      37B3u    6.891681    37B2u    6.891681    36B2g    7.006492  
      36B3g    7.006492    38B3u    7.168888    38B2u    7.168888  
      39B3u    7.184748    39B2u    7.184748    25B1g    7.210103  
      54Ag     7.210103    26B1g    7.217782    55Ag     7.217782  
      24Au     7.266631    52B1u    7.266631    53B1u    7.268658  
      25Au     7.268658    56Ag     7.269730    54B1u    7.273823  
      27B1g    7.282664    57Ag     7.282664    40B2u    7.311263  
      40B3u    7.311263    37B3g    7.371560    37B2g    7.371560  
      55B1u    7.580933    41B3u    7.590014    41B2u    7.590014  
      58Ag     7.591525    28B1g    7.591525    26Au     7.609260  
      56B1u    7.609260    38B2g    7.646133    38B3g    7.646133  
      39B2g    7.673031    39B3g    7.673031    42B2u    7.737849  
      42B3u    7.737849    57B1u    7.761918    27Au     7.761918  
      59Ag     7.798529    28Au     7.920689    58B1u    7.920689  
      40B2g    7.929015    40B3g    7.929015    41B2g    7.948814  
      41B3g    7.948814    29B1g    7.991933    60Ag     7.991933  
      42B3g    8.083767    42B2g    8.083767    43B2u    8.125067  
      43B3u    8.125067    59B1u    8.153181    60B1u    8.390628  
      61Ag     8.417986    61B1u    8.458863    29Au     8.458863  
      44B3u    8.740839    44B2u    8.740839    43B2g    8.845060  
      43B3g    8.845060    30B1g    8.858081    62Ag     8.858081  
      31B1g    9.018184    63Ag     9.018184    44B2g    9.094338  
      44B3g    9.094338    62B1u    9.207374    30Au     9.253381  
      63B1u    9.253381    45B3u    9.362839    45B2u    9.362839  
      64Ag     9.374877    64B1u    9.790724    31Au     9.790724  
      45B2g    9.883971    45B3g    9.883971    46B3u    9.996456  
      46B2u    9.996456    65Ag    10.402042    46B3g   10.501108  
      46B2g   10.501108    65B1u   10.683576    66Ag    11.229316  
      66B1u   13.319289    32B1g   25.581655    67Ag    25.581655  
      47B3u   25.717451    47B2u   25.717451    32Au    25.915351  
      67B1u   25.915351    68Ag    25.922713    47B2g   26.112750  
      47B3g   26.112750    48B3u   26.115521    48B2u   26.115521  
      68B1u   26.318041    48B2g   27.089219    48B3g   27.089219  
      69B1u   28.538801    69Ag    29.677950    70Ag   211.130773  
      70B1u  214.909825  

    Final Occupation by Irrep:
             Ag   B1g   B2g   B3g    Au   B1u   B2u   B3u 
    DOCC [     4,    0,    1,    1,    0,    4,    2,    2 ]
    SOCC [     1,    0,    0,    0,    0,    0,    0,    0 ]

  Energy converged.

  @UHF Final Energy:  -681.11912041768949

   => Energetics <=

    Nuclear Repulsion Energy =             59.7298129840562595
    One-Electron Energy =               -1053.2409983031971024
    Two-Electron Energy =                 312.3920649014513629
    Total Energy =                       -681.1191204176894871


  UHF NO Occupations:
  HONO-2 :    4 Ag 1.9966859
  HONO-1 :    4B1u 1.9843760
  HONO-0 :    5 Ag 1.0000000
  LUNO+0 :    5B1u 0.0156240
  LUNO+1 :    6 Ag 0.0033141
  LUNO+2 :    3B3u 0.0003349
  LUNO+3 :    3B2u 0.0003349



Properties will be evaluated at   0.000000,   0.000000,   0.000000 Bohr

Properties computed using the SCF density matrix

  Nuclear Dipole Moment: (a.u.)
     X:     0.0000      Y:     0.0000      Z:    -0.0000

  Electronic Dipole Moment: (a.u.)
     X:     0.0000      Y:     0.0000      Z:     0.0000

  Dipole Moment: (a.u.)
     X:     0.0000      Y:     0.0000      Z:    -0.0000     Total:     0.0000

  Dipole Moment: (Debye)
     X:     0.0000      Y:     0.0000      Z:    -0.0000     Total:     0.0000


*** tstop() called on n412-050.vsc4.prov at Sat Oct 31 05:39:05 2020
Module time:
	user time   =    1152.90 seconds =      19.21 minutes
	system time =      40.03 seconds =       0.67 minutes
	total time  =       1137 seconds =      18.95 minutes
Total time:
	user time   =    1152.90 seconds =      19.21 minutes
	system time =      40.03 seconds =       0.67 minutes
	total time  =       1137 seconds =      18.95 minutes

*** tstart() called on n412-050.vsc4.prov
*** at Sat Oct 31 05:39:05 2020


	Wfn Parameters:
	--------------------
	Wavefunction         = CCSD
	Number of irreps     = 8
	Number of MOs        = 396
	Number of active MOs = 386
	AO-Basis             = NONE
	Semicanonical        = false
	Reference            = UHF
	Print Level          = 1

	IRREP	# MOs	# FZDC	# DOCC	# SOCC	# VIRT	# FZVR
	-----	-----	------	------	------	------	------
	 Ag	   70	    3	    1	    1	    65	    0
	 B1g	   32	    0	    0	    0	    32	    0
	 B2g	   48	    1	    0	    0	    47	    0
	 B3g	   48	    1	    0	    0	    47	    0
	 Au	   32	    0	    0	    0	    32	    0
	 B1u	   70	    3	    1	    0	    66	    0
	 B2u	   48	    1	    1	    0	    46	    0
	 B3u	   48	    1	    1	    0	    46	    0
	Transforming integrals...
	IWL integrals will be deleted.
	(OO|OO)...
	Presorting SO-basis two-electron integrals.
	Sorting File: SO Ints (nn|nn) nbuckets = 1
	Transforming the one-electron integrals and constructing Fock matrices
	Starting AA/AB first half-transformation.
	Sorting AA/AB half-transformed integrals.
	Starting BB first half-transformation.
	Sorting BB half-transformed integrals.
	First half integral transformation complete.
	Starting AA second half-transformation.
	Starting AB second half-transformation.
	Starting BB second half-transformation.
	Two-electron integral transformation complete.
	(OO|OV)...
	Starting AA second half-transformation.
	Starting AB second half-transformation.
	Starting BB second half-transformation.
	Two-electron integral transformation complete.
	(OO|VV)...
	Starting AA second half-transformation.
	Starting AB second half-transformation.
	Starting BB second half-transformation.
	Two-electron integral transformation complete.
	(OV|OO)...
	Starting AA/AB first half-transformation.
	Sorting AA/AB half-transformed integrals.
	Starting BB first half-transformation.
	Sorting BB half-transformed integrals.
	First half integral transformation complete.
	Starting AA second half-transformation.
	Starting AB second half-transformation.
	Starting BB second half-transformation.
	Two-electron integral transformation complete.
	(OV|OV)...
	Starting AA second half-transformation.
	Starting AB second half-transformation.
	Starting BB second half-transformation.
	Two-electron integral transformation complete.
	(OV|VV)...
	Starting AA second half-transformation.
	Starting AB second half-transformation.
	Starting BB second half-transformation.
	Two-electron integral transformation complete.
	(VV|OO)...
	Starting AA/AB first half-transformation.
	Sorting AA/AB half-transformed integrals.
	Starting BB first half-transformation.
	Sorting BB half-transformed integrals.
	First half integral transformation complete.
	Starting AA second half-transformation.
	Starting AB second half-transformation.
	Starting BB second half-transformation.
	Two-electron integral transformation complete.
	(VV|OV)...
	Starting AA second half-transformation.
	Starting AB second half-transformation.
	Starting BB second half-transformation.
	Two-electron integral transformation complete.
	(VV|VV)...
	Starting AA second half-transformation.
	Starting AB second half-transformation.
	Starting BB second half-transformation.
	Two-electron integral transformation complete.
	Frozen core energy     =   -721.81857272993125

	Size of irrep 0 of <AB|CD> integrals:     89.284 (MW) /    714.269 (MB)
	Size of irrep 1 of <AB|CD> integrals:     72.539 (MW) /    580.314 (MB)
	Size of irrep 2 of <AB|CD> integrals:     82.210 (MW) /    657.684 (MB)
	Size of irrep 3 of <AB|CD> integrals:     82.210 (MW) /    657.684 (MB)
	Size of irrep 4 of <AB|CD> integrals:     72.522 (MW) /    580.178 (MB)
	Size of irrep 5 of <AB|CD> integrals:     92.891 (MW) /    743.128 (MB)
	Size of irrep 6 of <AB|CD> integrals:     82.229 (MW) /    657.829 (MB)
	Size of irrep 7 of <AB|CD> integrals:     82.229 (MW) /    657.829 (MB)
	Total:                                   656.114 (MW) /   5248.915 (MB)

	Size of irrep 0 of <ab|cd> integrals:     90.516 (MW) /    724.130 (MB)
	Size of irrep 1 of <ab|cd> integrals:     73.085 (MW) /    584.683 (MB)
	Size of irrep 2 of <ab|cd> integrals:     83.065 (MW) /    664.520 (MB)
	Size of irrep 3 of <ab|cd> integrals:     83.065 (MW) /    664.520 (MB)
	Size of irrep 4 of <ab|cd> integrals:     73.068 (MW) /    584.546 (MB)
	Size of irrep 5 of <ab|cd> integrals:     94.168 (MW) /    753.341 (MB)
	Size of irrep 6 of <ab|cd> integrals:     83.065 (MW) /    664.520 (MB)
	Size of irrep 7 of <ab|cd> integrals:     83.065 (MW) /    664.520 (MB)
	Total:                                   663.098 (MW) /   5304.780 (MB)

	Size of irrep 0 of <Ab|Cd> integrals:    374.190 (MW) /   2993.523 (MB)
	Size of irrep 1 of <Ab|Cd> integrals:    291.248 (MW) /   2329.987 (MB)
	Size of irrep 2 of <Ab|Cd> integrals:    330.549 (MW) /   2644.390 (MB)
	Size of irrep 3 of <Ab|Cd> integrals:    330.549 (MW) /   2644.390 (MB)
	Size of irrep 4 of <Ab|Cd> integrals:    291.180 (MW) /   2329.441 (MB)
	Size of irrep 5 of <Ab|Cd> integrals:    374.113 (MW) /   2992.904 (MB)
	Size of irrep 6 of <Ab|Cd> integrals:    330.585 (MW) /   2644.681 (MB)
	Size of irrep 7 of <Ab|Cd> integrals:    330.585 (MW) /   2644.681 (MB)
	Total:                                  2653.000 (MW) /  21223.996 (MB)

	Size of irrep 0 of <IA|BC> integrals:      5.552 (MW) /     44.419 (MB)
	Size of irrep 1 of <IA|BC> integrals:      3.202 (MW) /     25.619 (MB)
	Size of irrep 2 of <IA|BC> integrals:      4.316 (MW) /     34.527 (MB)
	Size of irrep 3 of <IA|BC> integrals:      4.316 (MW) /     34.527 (MB)
	Size of irrep 4 of <IA|BC> integrals:      3.236 (MW) /     25.889 (MB)
	Size of irrep 5 of <IA|BC> integrals:      5.609 (MW) /     44.875 (MB)
	Size of irrep 6 of <IA|BC> integrals:      4.280 (MW) /     34.241 (MB)
	Size of irrep 7 of <IA|BC> integrals:      4.280 (MW) /     34.241 (MB)
	Total:                                    34.792 (MW) /    278.337 (MB)

	Size of irrep 0 of <ia|bc> integrals:      4.348 (MW) /     34.783 (MB)
	Size of irrep 1 of <ia|bc> integrals:      2.667 (MW) /     21.338 (MB)
	Size of irrep 2 of <ia|bc> integrals:      3.482 (MW) /     27.852 (MB)
	Size of irrep 3 of <ia|bc> integrals:      3.482 (MW) /     27.852 (MB)
	Size of irrep 4 of <ia|bc> integrals:      2.701 (MW) /     21.609 (MB)
	Size of irrep 5 of <ia|bc> integrals:      4.386 (MW) /     35.090 (MB)
	Size of irrep 6 of <ia|bc> integrals:      3.482 (MW) /     27.852 (MB)
	Size of irrep 7 of <ia|bc> integrals:      3.482 (MW) /     27.852 (MB)
	Total:                                    28.029 (MW) /    224.230 (MB)

	Size of irrep 0 of <Ia|Bc> integrals:      5.610 (MW) /     44.878 (MB)
	Size of irrep 1 of <Ia|Bc> integrals:      3.208 (MW) /     25.667 (MB)
	Size of irrep 2 of <Ia|Bc> integrals:      4.327 (MW) /     34.617 (MB)
	Size of irrep 3 of <Ia|Bc> integrals:      4.327 (MW) /     34.617 (MB)
	Size of irrep 4 of <Ia|Bc> integrals:      3.242 (MW) /     25.937 (MB)
	Size of irrep 5 of <Ia|Bc> integrals:      5.648 (MW) /     45.183 (MB)
	Size of irrep 6 of <Ia|Bc> integrals:      4.309 (MW) /     34.473 (MB)
	Size of irrep 7 of <Ia|Bc> integrals:      4.309 (MW) /     34.473 (MB)
	Total:                                    34.981 (MW) /    279.845 (MB)

	Size of irrep 0 of <iA|bC> integrals:      4.314 (MW) /     34.510 (MB)
	Size of irrep 1 of <iA|bC> integrals:      2.662 (MW) /     21.298 (MB)
	Size of irrep 2 of <iA|bC> integrals:      3.473 (MW) /     27.781 (MB)
	Size of irrep 3 of <iA|bC> integrals:      3.473 (MW) /     27.781 (MB)
	Size of irrep 4 of <iA|bC> integrals:      2.696 (MW) /     21.569 (MB)
	Size of irrep 5 of <iA|bC> integrals:      4.352 (MW) /     34.816 (MB)
	Size of irrep 6 of <iA|bC> integrals:      3.455 (MW) /     27.637 (MB)
	Size of irrep 7 of <iA|bC> integrals:      3.455 (MW) /     27.637 (MB)
	Total:                                    27.878 (MW) /    223.027 (MB)

	Size of irrep 0 of tIjAb amplitudes:       0.097 (MW) /      0.774 (MB)
	Size of irrep 1 of tIjAb amplitudes:       0.034 (MW) /      0.273 (MB)
	Size of irrep 2 of tIjAb amplitudes:       0.036 (MW) /      0.291 (MB)
	Size of irrep 3 of tIjAb amplitudes:       0.036 (MW) /      0.291 (MB)
	Size of irrep 4 of tIjAb amplitudes:       0.000 (MW) /      0.000 (MB)
	Size of irrep 5 of tIjAb amplitudes:       0.058 (MW) /      0.464 (MB)
	Size of irrep 6 of tIjAb amplitudes:       0.055 (MW) /      0.436 (MB)
	Size of irrep 7 of tIjAb amplitudes:       0.055 (MW) /      0.436 (MB)
	Total:                                     0.371 (MW) /      2.966 (MB)

	Nuclear Rep. energy          =     59.72981298405626
	SCF energy                   =   -681.11912041768949
	One-electron energy          =    -30.79948463954755
	Two-electron (AA) energy     =      2.94264913872159
	Two-electron (BB) energy     =      1.78539501199443
	Two-electron (AB) energy     =      7.04107981701905
	Two-electron energy          =     11.76912396773507
	Reference energy             =   -681.11912041768744

*** tstop() called on n412-050.vsc4.prov at Sat Oct 31 05:54:11 2020
Module time:
	user time   =    5420.72 seconds =      90.35 minutes
	system time =     212.38 seconds =       3.54 minutes
	total time  =        906 seconds =      15.10 minutes
Total time:
	user time   =    6573.62 seconds =     109.56 minutes
	system time =     252.41 seconds =       4.21 minutes
	total time  =       2043 seconds =      34.05 minutes

*** tstart() called on n412-050.vsc4.prov
*** at Sat Oct 31 05:54:11 2020

            **************************
            *                        *
            *        CCENERGY        *
            *                        *
            **************************

    Nuclear Rep. energy (wfn)     =   59.729812984056259
    SCF energy          (wfn)     = -681.119120417689487
    Reference energy    (file100) = -681.119120417687441

    Input parameters:
    -----------------
    Wave function   =     CCSD
    Reference wfn   =     UHF
    Brueckner       =     No
    Memory (Mbytes) =     250000.0
    Maxiter         =     50
    R_Convergence   =     1.0e-07
    E_Convergence   =     1.0e-06
    Restart         =     Yes
    DIIS            =     Yes
    AO Basis        =     NONE
    ABCD            =     NEW
    Cache Level     =     2
    Cache Type      =     LRU
    Print Level     =     1
    Num. of threads =     48
    # Amps to Print =     10
    Print MP2 Amps? =     No
    Analyze T2 Amps =     No
    Print Pair Ener =     No
    Local CC        =     No
    SCS-MP2         =     False
    SCSN-MP2        =     False
    SCS-CCSD        =     False

MP2 correlation energy -0.2925080617384271
                Solving CC Amplitude Equations
                ------------------------------
  Iter             Energy              RMS        T1Diag      D1Diag    New D1Diag    D2Diag
  ----     ---------------------    ---------   ----------  ----------  ----------   --------
     0        -0.292508061738431    0.000e+00    0.000000    0.000000    0.000000    0.000000
     1        -0.277931989172901    1.243e-01    0.027805    0.000000    0.000000    0.000000
     2        -0.293193008749532    4.888e-02    0.028119    0.000000    0.000000    0.000000
     3        -0.298038466088276    2.303e-02    0.035828    0.000000    0.000000    0.000000
     4        -0.298136705024391    6.106e-03    0.037174    0.000000    0.000000    0.000000
     5        -0.298249981055743    2.597e-03    0.037746    0.000000    0.000000    0.000000
     6        -0.298225589544509    8.623e-04    0.037806    0.000000    0.000000    0.000000
     7        -0.298234038317637    2.638e-04    0.037817    0.000000    0.000000    0.000000
     8        -0.298238192415658    1.005e-04    0.037821    0.000000    0.000000    0.000000
     9        -0.298235933039977    3.507e-05    0.037822    0.000000    0.000000    0.000000
    10        -0.298235751949033    1.292e-05    0.037823    0.000000    0.000000    0.000000
    11        -0.298235603670198    4.576e-06    0.037824    0.000000    0.000000    0.000000
    12        -0.298235781165354    1.641e-06    0.037824    0.000000    0.000000    0.000000
    13        -0.298235805144162    5.351e-07    0.037824    0.000000    0.000000    0.000000
    14        -0.298235803556908    2.084e-07    0.037824    0.000000    0.000000    0.000000
    15        -0.298235805902970    9.250e-08    0.037824    0.000000    0.000000    0.000000
    15        -0.298235805902970    9.250e-08    0.037824    0.000000    0.000000    0.000000

    Iterations converged.


    CCSD corr. energy   =   -0.298235805902970
    PPL corr. energy    =    0.113487478376870
    OS PPL corr. energy =    0.097179350902054
    SS PPL corr. energy =    0.016308127474813
    Largest TIA Amplitudes:
              2 223         0.0312318109
              2 224        -0.0277643561
              3 292        -0.0262519874
              4 338        -0.0262519874
              3 290         0.0168802361
              4 336         0.0168802361
              2 227         0.0148698543
              3 297         0.0139160366
              4 343         0.0139160366
              3 291        -0.0127914681

    Largest Tia Amplitudes:
              0   0         0.0454296599
              2 294        -0.0244727561
              3 340        -0.0244727561
              1 225         0.0185508776
              1 229         0.0178332522
              1 226        -0.0172406271
              1 228        -0.0170076565
              2 292        -0.0146422927
              3 338        -0.0146422927
              2 298         0.0136984042

    Largest TIJAB Amplitudes:
      4   3 144  97         0.0551128971
      3   1 224 144         0.0294457449
      4   1 224  97         0.0294457449
      3   1 223 144        -0.0287687381
      4   1 223  97        -0.0287687381
      4   3  66   5         0.0198377683
      3   1 227 144        -0.0163713553
      4   1 227  97        -0.0163713553
      4   3  65   5         0.0159344957
      4   3  66   2         0.0159344957

    Largest Tijab Amplitudes:
      3   2 145  98         0.0610659997
      3   1  98   0        -0.0571642744
      2   1 145   0        -0.0571642744
      3   2  67   6         0.0199006685
      3   2  66   6         0.0162208923
      3   2  67   3         0.0162208923
      3   1  98   6         0.0155511043
      3   1 145  67         0.0155511043
      2   1  98  67         0.0155511043
      2   1 145   6        -0.0155511043

    Largest TIjAb Amplitudes:
      3   2 144 145        -0.2049137190
      4   3  97  98        -0.2049137190
      3   3 144  98        -0.1097956207
      4   2  97 145        -0.1097956207
      4   1  97   0        -0.1056247723
      3   1 144   0        -0.1056247723
      2   1  97  98        -0.0696840527
      2   1 144 145        -0.0696840527
      1   1 224   0        -0.0556615722
      3   3  97 145        -0.0515173329

    SCF energy       (wfn)                    = -681.119120417689487
    Reference energy (file100)                = -681.119120417687441

    Opposite-spin MP2 correlation energy      =   -0.225491253081027
    Same-spin MP2 correlation energy          =   -0.067016808657314
    MP2 correlation energy                    =   -0.292508061738427
      * MP2 total energy                      = -681.411628479425872

    Opposite-spin CCSD correlation energy     =   -0.243307467979970
    Same-spin CCSD correlation energy         =   -0.054928344898152
    CCSD correlation energy                   =   -0.298235805902970
      * CCSD total energy                     = -681.417356223590446


*** tstop() called on n412-050.vsc4.prov at Sat Oct 31 06:08:43 2020
Module time:
	user time   =    7076.00 seconds =     117.93 minutes
	system time =     348.50 seconds =       5.81 minutes
	total time  =        872 seconds =      14.53 minutes
Total time:
	user time   =   13649.62 seconds =     227.49 minutes
	system time =     600.91 seconds =      10.02 minutes
	total time  =       2915 seconds =      48.58 minutes

*** Psi4 exiting successfully. Buy a developer a beer!
