
    -----------------------------------------------------------------------
          Psi4: An Open-Source Ab Initio Electronic Structure Package
                               Psi4 1.4a3.dev88 

                         Git: Rev {master} 262e345 


    D. G. A. Smith, L. A. Burns, A. C. Simmonett, R. M. Parrish,
    M. C. Schieber, R. Galvelis, P. Kraus, H. Kruse, R. Di Remigio,
    A. Alenaizan, A. M. James, S. Lehtola, J. P. Misiewicz, M. Scheurer,
    R. A. Shaw, J. B. Schriber, Y. Xie, Z. L. Glick, D. A. Sirianni,
    J. S. O'Brien, J. M. Waldrop, A. Kumar, E. G. Hohenstein,
    B. P. Pritchard, B. R. Brooks, H. F. Schaefer III, A. Yu. Sokolov,
    K. Patkowski, A. E. DePrince III, U. Bozkaya, R. A. King,
    F. A. Evangelista, J. M. Turney, T. D. Crawford, C. D. Sherrill,
    J. Chem. Phys. 152(18) 184108 (2020). https://doi.org/10.1063/5.0006002

                            Additional Code Authors
    E. T. Seidl, C. L. Janssen, E. F. Valeev, M. L. Leininger,
    J. F. Gonthier, R. M. Richard, H. R. McAlexander, M. Saitow, X. Wang,
    P. Verma, and M. H. Lechner

             Previous Authors, Complete List of Code Contributors,
                       and Citations for Specific Modules
    https://github.com/psi4/psi4/blob/master/codemeta.json
    https://github.com/psi4/psi4/graphs/contributors
    http://psicode.org/psi4manual/master/introduction.html#citing-psifour

    -----------------------------------------------------------------------


    Psi4 started on: Tuesday, 26 January 2021 06:38PM

    Process ID: 412050
    Host:       n412-039.vsc4.prov
    PSIDATADIR: /home/fs71337/gallo4/psi4/eri-6/psi4/build/stage/share/psi4
    Memory:     500.0 MiB
    Threads:    48
    
  ==> Input File <==

--------------------------------------------------------------------------
# Any line starting with the # character is a comment line
memory 250000 mb
molecule molecule{
0 1
S          0.0000000000        0.0000000000        0.0391770833
H          0.9606903443        0.0000000000       -0.8857306917
H         -0.9606903443        0.0000000000       -0.8857306917
}

set {
  reference rhf
  basis aug-cc-pV(d+d)Z
  scf_type OUT_OF_CORE
  freeze_core true
}

energy('ccsd(t)')
--------------------------------------------------------------------------

  Memory set to 232.831 GiB by Python driver.

Scratch directory: /binfl/lv71337/airmler/temp/

*** tstart() called on n412-039.vsc4.prov
*** at Tue Jan 26 18:38:45 2021

   => Loading Basis Set <=

    Name: AUG-CC-PV(D+D)Z
    Role: ORBITAL
    Keyword: BASIS
    atoms 1   entry S          line   740 file /home/fs71337/gallo4/psi4/eri-6/psi4/build/stage/share/psi4/basis/aug-cc-pv_dpd_z.gbs 
    atoms 2-3 entry H          line    68 file /home/fs71337/gallo4/psi4/eri-6/psi4/build/stage/share/psi4/basis/aug-cc-pv_dpd_z.gbs 


         ---------------------------------------------------------
                                   SCF
               by Justin Turney, Rob Parrish, Andy Simmonett
                          and Daniel G. A. Smith
                              RHF Reference
                       48 Threads, 238418 MiB Core
         ---------------------------------------------------------

  ==> Geometry <==

    Molecular point group: c2v
    Full point group: C2v

    Geometry (in Angstrom), charge = 0, multiplicity = 1:

       Center              X                  Y                   Z               Mass       
    ------------   -----------------  -----------------  -----------------  -----------------
         S            0.000000000000    -0.000000000000     0.054851880277    31.972071174400
         H            0.960690344300     0.000000000000    -0.870055894723     1.007825032230
         H           -0.960690344300    -0.000000000000    -0.870055894723     1.007825032230

  Running in c2v symmetry.

  Rotational constants: A =     10.39288  B =      9.06180  C =      4.84090 [cm^-1]
  Rotational constants: A = 311570.60569  B = 271665.95175  C = 145126.57695 [MHz]
  Nuclear repulsion =   12.973516396534798

  Charge       = 0
  Multiplicity = 1
  Electrons    = 18
  Nalpha       = 9
  Nbeta        = 9

  ==> Algorithm <==

  SCF Algorithm Type is OUT_OF_CORE.
  DIIS enabled.
  MOM disabled.
  Fractional occupation disabled.
  Guess Type is SAD.
  Energy threshold   = 1.00e-08
  Density threshold  = 1.00e-08
  Integral threshold = 1.00e-12

  ==> Primary Basis <==

  Basis Set: AUG-CC-PV(D+D)Z
    Blend: AUG-CC-PV(D+D)Z
    Number of shells: 22
    Number of basis function: 50
    Number of Cartesian functions: 53
    Spherical Harmonics?: true
    Max angular momentum: 2

  ==> Integral Setup <==

  ==> DiskJK: Disk-Based J/K Matrices <==

    J tasked:                  Yes
    K tasked:                  Yes
    wK tasked:                  No
    Memory [MiB]:           178813
    Schwarz Cutoff:          1E-12

  Minimum eigenvalue in the overlap matrix is 1.1088236457E-03.
  Reciprocal condition number of the overlap matrix is 2.4322490370E-04.
    Using symmetric orthogonalization.

  ==> Pre-Iterations <==

  SCF Guess: Superposition of Atomic Densities via on-the-fly atomic UHF (no occupation information).


 WARNING: Atomic UHF is not converging! Try casting from a smaller basis or call Rob at CCMST.

 WARNING: Atomic UHF is not converging! Try casting from a smaller basis or call Rob at CCMST.
   -------------------------
    Irrep   Nso     Nmo    
   -------------------------
     A1        22      22 
     A2         5       5 
     B1        14      14 
     B2         9       9 
   -------------------------
    Total      50      50
   -------------------------

  ==> Iterations <==

                        Total Energy        Delta E     RMS |[F,P]|

   @RHF iter SAD:  -395.97024504851782   -3.95970e+02   0.00000e+00 
   @RHF iter   1:  -398.63779953366003   -2.66755e+00   1.06757e-02 DIIS
   @RHF iter   2:  -398.69695385301355   -5.91543e-02   3.42851e-03 DIIS
   @RHF iter   3:  -398.70184637099328   -4.89252e-03   5.73569e-04 DIIS
   @RHF iter   4:  -398.70220612904637   -3.59758e-04   1.61987e-04 DIIS
   @RHF iter   5:  -398.70223894552407   -3.28165e-05   4.30723e-05 DIIS
   @RHF iter   6:  -398.70224155337445   -2.60785e-06   7.72224e-06 DIIS
   @RHF iter   7:  -398.70224163774105   -8.43666e-08   1.20427e-06 DIIS
   @RHF iter   8:  -398.70224164004702   -2.30597e-09   1.94931e-07 DIIS
   @RHF iter   9:  -398.70224164010028   -5.32623e-11   2.55642e-08 DIIS
   @RHF iter  10:  -398.70224164010131   -1.02318e-12   4.56914e-09 DIIS
  Energy and wave function converged.


  ==> Post-Iterations <==

    Orbital Energies [Eh]
    ---------------------

    Doubly Occupied:                                                      

       1A1   -91.968939     2A1    -8.970983     1B1    -6.653139  
       3A1    -6.652094     1B2    -6.649656     4A1    -0.984420  
       2B1    -0.591787     5A1    -0.503054     2B2    -0.384453  

    Virtual:                                                              

       6A1     0.034678     3B1     0.061985     7A1     0.112032  
       4B1     0.118659     3B2     0.124845     8A1     0.178270  
       5B1     0.210673     9A1     0.241007    10A1     0.274114  
       1A2     0.311086     4B2     0.315954     6B1     0.411500  
      11A1     0.462160     7B1     0.480252    12A1     0.533738  
       5B2     0.535459     2A2     0.539715    13A1     0.575490  
       8B1     0.603864    14A1     0.842827     6B2     0.868620  
       9B1     0.874343    15A1     0.888460     3A2     1.073471  
       7B2     1.096358    16A1     1.124660    10B1     1.154407  
      17A1     1.200432    11B1     1.357340    18A1     1.614956  
       4A2     1.833022    12B1     1.853371     8B2     1.887432  
      19A1     1.986551    20A1     2.371204    13B1     2.440872  
       5A2     5.091963     9B2     5.097474    21A1     5.113655  
      22A1     5.130292    14B1     5.233083  

    Final Occupation by Irrep:
             A1    A2    B1    B2 
    DOCC [     5,    0,    2,    2 ]

  @RHF Final Energy:  -398.70224164010131

   => Energetics <=

    Nuclear Repulsion Energy =             12.9735163965347979
    One-Electron Energy =                -576.6344649417511619
    Two-Electron Energy =                 164.9587069051150365
    Total Energy =                       -398.7022416401013061

Computation Completed


Properties will be evaluated at   0.000000,   0.000000,   0.000000 [a0]

Properties computed using the SCF density matrix

  Nuclear Dipole Moment: [e a0]
     X:     0.0000      Y:     0.0000      Z:    -1.6299

  Electronic Dipole Moment: [e a0]
     X:     0.0000      Y:     0.0000      Z:     1.1953

  Dipole Moment: [e a0]
     X:     0.0000      Y:     0.0000      Z:    -0.4346     Total:     0.4346

  Dipole Moment: [D]
     X:     0.0000      Y:     0.0000      Z:    -1.1046     Total:     1.1046


*** tstop() called on n412-039.vsc4.prov at Tue Jan 26 18:38:48 2021
Module time:
	user time   =      20.22 seconds =       0.34 minutes
	system time =       1.60 seconds =       0.03 minutes
	total time  =          3 seconds =       0.05 minutes
Total time:
	user time   =      20.22 seconds =       0.34 minutes
	system time =       1.60 seconds =       0.03 minutes
	total time  =          3 seconds =       0.05 minutes

*** tstart() called on n412-039.vsc4.prov
*** at Tue Jan 26 18:38:48 2021


	Wfn Parameters:
	--------------------
	Wavefunction         = CCSD_T
	Number of irreps     = 4
	Number of MOs        = 50
	Number of active MOs = 45
	AO-Basis             = NONE
	Semicanonical        = false
	Reference            = RHF
	Print Level          = 1

	IRREP	# MOs	# FZDC	# DOCC	# SOCC	# VIRT	# FZVR
	-----	-----	------	------	------	------	------
	 A1	   22	    3	    2	    0	    17	    0
	 A2	   5	    0	    0	    0	    5	    0
	 B1	   14	    1	    1	    0	    12	    0
	 B2	   9	    1	    1	    0	    7	    0
	Transforming integrals...
	IWL integrals will be deleted.
	(OO|OO)...
	Presorting SO-basis two-electron integrals.
	Sorting File: SO Ints (nn|nn) nbuckets = 1
	Constructing frozen core operators
	Starting first half-transformation.
	Sorting half-transformed integrals.
	First half integral transformation complete.
	Starting second half-transformation.
	Two-electron integral transformation complete.
	(OO|OV)...
	Starting second half-transformation.
	Two-electron integral transformation complete.
	(OO|VV)...
	Starting second half-transformation.
	Two-electron integral transformation complete.
	(OV|OO)...
	Starting first half-transformation.
	Sorting half-transformed integrals.
	First half integral transformation complete.
	Starting second half-transformation.
	Two-electron integral transformation complete.
	(OV|OV)...
	Starting second half-transformation.
	Two-electron integral transformation complete.
	(OV|VV)...
	Starting second half-transformation.
	Two-electron integral transformation complete.
	(VV|OO)...
	Starting first half-transformation.
	Sorting half-transformed integrals.
	First half integral transformation complete.
	Starting second half-transformation.
	Two-electron integral transformation complete.
	(VV|OV)...
	Starting second half-transformation.
	Two-electron integral transformation complete.
	(VV|VV)...
	Starting second half-transformation.
	Two-electron integral transformation complete.
	Frozen core energy     =   -395.48191740099548

	Size of irrep 0 of <ab|cd> integrals:      0.257 (MW) /      2.056 (MB)
	Size of irrep 1 of <ab|cd> integrals:      0.114 (MW) /      0.914 (MB)
	Size of irrep 2 of <ab|cd> integrals:      0.228 (MW) /      1.828 (MB)
	Size of irrep 3 of <ab|cd> integrals:      0.128 (MW) /      1.025 (MB)
	Total:                                     0.728 (MW) /      5.824 (MB)

	Size of irrep 0 of <ia|bc> integrals:      0.027 (MW) /      0.215 (MB)
	Size of irrep 1 of <ia|bc> integrals:      0.010 (MW) /      0.078 (MB)
	Size of irrep 2 of <ia|bc> integrals:      0.022 (MW) /      0.176 (MB)
	Size of irrep 3 of <ia|bc> integrals:      0.013 (MW) /      0.103 (MB)
	Total:                                     0.072 (MW) /      0.572 (MB)

	Size of irrep 0 of tijab amplitudes:       0.003 (MW) /      0.024 (MB)
	Size of irrep 1 of tijab amplitudes:       0.001 (MW) /      0.005 (MB)
	Size of irrep 2 of tijab amplitudes:       0.002 (MW) /      0.015 (MB)
	Size of irrep 3 of tijab amplitudes:       0.001 (MW) /      0.011 (MB)
	Total:                                     0.007 (MW) /      0.056 (MB)

	Nuclear Rep. energy          =     12.97351639653480
	SCF energy                   =   -398.70224164010131
	One-electron energy          =    -27.46025278004328
	Two-electron energy          =     11.26641214440289
	Reference energy             =   -398.70224164010108

*** tstop() called on n412-039.vsc4.prov at Tue Jan 26 18:38:49 2021
Module time:
	user time   =       0.10 seconds =       0.00 minutes
	system time =       0.12 seconds =       0.00 minutes
	total time  =          1 seconds =       0.02 minutes
Total time:
	user time   =      20.32 seconds =       0.34 minutes
	system time =       1.72 seconds =       0.03 minutes
	total time  =          4 seconds =       0.07 minutes
            **************************
            *                        *
            *        CCENERGY        *
            *                        *
            **************************

    Nuclear Rep. energy (wfn)     =   12.973516396534798
    SCF energy          (wfn)     = -398.702241640101306
    Reference energy    (file100) = -398.702241640101079

    Input parameters:
    -----------------
    Wave function   =     CCSD_T
    Reference wfn   =     RHF
    Brueckner       =     No
    Memory (Mbytes) =     250000.0
    Maxiter         =     50
    R_Convergence   =     1.0e-07
    E_Convergence   =     1.0e-06
    Restart         =     Yes
    DIIS            =     Yes
    AO Basis        =     NONE
    ABCD            =     NEW
    Cache Level     =     2
    Cache Type      =     LOW
    Print Level     =     1
    Num. of threads =     48
    # Amps to Print =     10
    Print MP2 Amps? =     No
    Analyze T2 Amps =     No
    Print Pair Ener =     No
    Local CC        =     No
    SCS-MP2         =     False
    SCSN-MP2        =     False
    SCS-CCSD        =     False

MP2 correlation energy -0.1565074531428882
                Solving CC Amplitude Equations
                ------------------------------
  Iter             Energy              RMS        T1Diag      D1Diag    New D1Diag    D2Diag
  ----     ---------------------    ---------   ----------  ----------  ----------   --------
     0        -0.156507453142888    0.000e+00    0.000000    0.000000    0.000000    0.126621
     1        -0.174263926618393    4.460e-02    0.006433    0.011235    0.011235    0.144809
     2        -0.179962953544805    1.481e-02    0.009020    0.016535    0.016535    0.153631
     3        -0.180281624564081    3.208e-03    0.009775    0.018104    0.018104    0.155023
     4        -0.180295093276808    9.210e-04    0.009970    0.018499    0.018499    0.155404
     5        -0.180287141677940    2.230e-04    0.010017    0.018582    0.018582    0.155438
     6        -0.180285921411698    6.058e-05    0.010030    0.018596    0.018596    0.155442
     7        -0.180286522832859    1.809e-05    0.010033    0.018598    0.018598    0.155444
     8        -0.180286499856177    5.507e-06    0.010034    0.018598    0.018598    0.155444
     9        -0.180286418891877    1.672e-06    0.010034    0.018597    0.018597    0.155444
    10        -0.180286421219075    5.074e-07    0.010034    0.018597    0.018597    0.155444
    11        -0.180286429230724    1.473e-07    0.010034    0.018597    0.018597    0.155444
    12        -0.180286432242117    3.778e-08    0.010034    0.018597    0.018597    0.155444

    Iterations converged.


    Largest TIA Amplitudes:
              3  35        -0.0104716635
              2  23         0.0092741978
              1   5        -0.0087608074
              1   4        -0.0082687400
              2  24         0.0077131580
              1   3         0.0076674190
              2  25        -0.0072956813
              2  30        -0.0069322448
              1  11         0.0064294297
              1   7        -0.0049122435

    Largest TIjAb Amplitudes:
      1   1  24  24        -0.0334942130
      2   2  24  24        -0.0322414543
      3   3   3   3        -0.0319856561
      3   3  35  35        -0.0284007275
      3   3  17  17        -0.0282856347
      1   1   4   4        -0.0275832151
      3   3  37  37        -0.0273959185
      1   1  23  24        -0.0261734125
      1   1  24  23        -0.0261734125
      3   3   5   5        -0.0260693057

    SCF energy       (wfn)                    = -398.702241640101306
    Reference energy (file100)                = -398.702241640101079

    Opposite-spin MP2 correlation energy      =   -0.122292227682408
    Same-spin MP2 correlation energy          =   -0.034215225460480
    Singles MP2 correlation energy            =   -0.000000000000000
    MP2 correlation energy                    =   -0.156507453142888
      * MP2 total energy                      = -398.858749093243944

    Opposite-spin CCSD correlation energy     =   -0.146432415167231
    Same-spin CCSD correlation energy         =   -0.033854017074887
    Singles CCSD correlation energy           =    0.000000000000000
    CCSD correlation energy                   =   -0.180286432242117
      * CCSD total energy                     = -398.882528072343177

            **************************
            *                        *
            *        CCTRIPLES       *
            *                        *
            **************************


    Wave function   =    CCSD_T
    Reference wfn   =      RHF

    Nuclear Rep. energy (wfn)                =   12.973516396534798
    SCF energy          (wfn)                = -398.702241640101306
    Reference energy    (file100)            = -398.702241640101079
    CCSD energy         (file100)            =   -0.180286432242117
    Total CCSD energy   (file100)            = -398.882528072343177

    Number of ijk index combinations:               20
    Memory available in words        :     31250000000
    ~Words needed per explicit thread:           19652
    Number of threads for explicit ijk threading:   48

    (T) energy                                =   -0.005077107476469
      * CCSD(T) total energy                  = -398.887605179819673


    Psi4 stopped on: Tuesday, 26 January 2021 06:38PM
    Psi4 wall time for execution: 0:00:05.87

*** Psi4 exiting successfully. Buy a developer a beer!
