
    -----------------------------------------------------------------------
          Psi4: An Open-Source Ab Initio Electronic Structure Package
                               Psi4 1.4a3.dev88 

                         Git: Rev {master} 262e345 


    D. G. A. Smith, L. A. Burns, A. C. Simmonett, R. M. Parrish,
    M. C. Schieber, R. Galvelis, P. Kraus, H. Kruse, R. Di Remigio,
    A. Alenaizan, A. M. James, S. Lehtola, J. P. Misiewicz, M. Scheurer,
    R. A. Shaw, J. B. Schriber, Y. Xie, Z. L. Glick, D. A. Sirianni,
    J. S. O'Brien, J. M. Waldrop, A. Kumar, E. G. Hohenstein,
    B. P. Pritchard, B. R. Brooks, H. F. Schaefer III, A. Yu. Sokolov,
    K. Patkowski, A. E. DePrince III, U. Bozkaya, R. A. King,
    F. A. Evangelista, J. M. Turney, T. D. Crawford, C. D. Sherrill,
    J. Chem. Phys. 152(18) 184108 (2020). https://doi.org/10.1063/5.0006002

                            Additional Code Authors
    E. T. Seidl, C. L. Janssen, E. F. Valeev, M. L. Leininger,
    J. F. Gonthier, R. M. Richard, H. R. McAlexander, M. Saitow, X. Wang,
    P. Verma, and M. H. Lechner

             Previous Authors, Complete List of Code Contributors,
                       and Citations for Specific Modules
    https://github.com/psi4/psi4/blob/master/codemeta.json
    https://github.com/psi4/psi4/graphs/contributors
    http://psicode.org/psi4manual/master/introduction.html#citing-psifour

    -----------------------------------------------------------------------


    Psi4 started on: Wednesday, 20 January 2021 10:29PM

    Process ID: 16272
    Host:       l43
    PSIDATADIR: /home/fs71337/gallo4/psi4/psi4/build/stage/share/psi4
    Memory:     500.0 MiB
    Threads:    48
    
  ==> Input File <==

--------------------------------------------------------------------------
# Any line starting with the # character is a comment line
memory 250000 mb
molecule molecule{
0 1
S          0.0000000000        0.0000000000        0.0391770833
H          0.9606903443        0.0000000000       -0.8857306917
H         -0.9606903443        0.0000000000       -0.8857306917
}

set {
  reference rhf
  basis aug-cc-pV(Q+d)Z
  scf_type OUT_OF_CORE
  freeze_core true
}

energy('ccsd(t)')
--------------------------------------------------------------------------

  Memory set to 232.831 GiB by Python driver.

Scratch directory: /tmp/

*** tstart() called on l43
*** at Wed Jan 20 22:29:57 2021

   => Loading Basis Set <=

    Name: AUG-CC-PV(Q+D)Z
    Role: ORBITAL
    Keyword: BASIS
    atoms 1   entry S          line  1164 file /home/fs71337/gallo4/psi4/psi4/build/stage/share/psi4/basis/aug-cc-pv_qpd_z.gbs 
    atoms 2-3 entry H          line    68 file /home/fs71337/gallo4/psi4/psi4/build/stage/share/psi4/basis/aug-cc-pv_qpd_z.gbs 


         ---------------------------------------------------------
                                   SCF
               by Justin Turney, Rob Parrish, Andy Simmonett
                          and Daniel G. A. Smith
                              RHF Reference
                       48 Threads, 238418 MiB Core
         ---------------------------------------------------------

  ==> Geometry <==

    Molecular point group: c2v
    Full point group: C2v

    Geometry (in Angstrom), charge = 0, multiplicity = 1:

       Center              X                  Y                   Z               Mass       
    ------------   -----------------  -----------------  -----------------  -----------------
         S            0.000000000000    -0.000000000000     0.054851880277    31.972071174400
         H            0.960690344300     0.000000000000    -0.870055894723     1.007825032230
         H           -0.960690344300    -0.000000000000    -0.870055894723     1.007825032230

  Running in c2v symmetry.

  Rotational constants: A =     10.39288  B =      9.06180  C =      4.84090 [cm^-1]
  Rotational constants: A = 311570.60569  B = 271665.95175  C = 145126.57695 [MHz]
  Nuclear repulsion =   12.973516396534798

  Charge       = 0
  Multiplicity = 1
  Electrons    = 18
  Nalpha       = 9
  Nbeta        = 9

  ==> Algorithm <==

  SCF Algorithm Type is OUT_OF_CORE.
  DIIS enabled.
  MOM disabled.
  Fractional occupation disabled.
  Guess Type is SAD.
  Energy threshold   = 1.00e-08
  Density threshold  = 1.00e-08
  Integral threshold = 1.00e-12

  ==> Primary Basis <==

  Basis Set: AUG-CC-PV(Q+D)Z
    Blend: AUG-CC-PV(Q+D)Z
    Number of shells: 51
    Number of basis function: 181
    Number of Cartesian functions: 225
    Spherical Harmonics?: true
    Max angular momentum: 4

  ==> Integral Setup <==

  ==> DiskJK: Disk-Based J/K Matrices <==

    J tasked:                  Yes
    K tasked:                  Yes
    wK tasked:                  No
    Memory [MiB]:           178813
    Schwarz Cutoff:          1E-12

  Minimum eigenvalue in the overlap matrix is 5.7643643560E-05.
  Reciprocal condition number of the overlap matrix is 8.6626209361E-06.
    Using symmetric orthogonalization.

  ==> Pre-Iterations <==

  SCF Guess: Superposition of Atomic Densities via on-the-fly atomic UHF (no occupation information).


 WARNING: Atomic UHF is not converging! Try casting from a smaller basis or call Rob at CCMST.
   -------------------------
    Irrep   Nso     Nmo    
   -------------------------
     A1        65      65 
     A2        28      28 
     B1        51      51 
     B2        37      37 
   -------------------------
    Total     181     181
   -------------------------

  ==> Iterations <==

                        Total Energy        Delta E     RMS |[F,P]|

   @RHF iter SAD:  -158.53160994035346   -1.58532e+02   0.00000e+00 
    Occupation by irrep:
             A1    A2    B1    B2 
    DOCC [     5,    0,    3,    1 ]

   @RHF iter   1:  -378.93243120956191   -2.20401e+02   9.77304e-02 DIIS
    Occupation by irrep:
             A1    A2    B1    B2 
    DOCC [     5,    0,    2,    2 ]

   @RHF iter   2:  -389.94402551506596   -1.10116e+01   4.61559e-02 DIIS
   @RHF iter   3:  -397.70718461265790   -7.76316e+00   1.57235e-02 DIIS
   @RHF iter   4:  -398.70937727614194   -1.00219e+00   1.60848e-03 DIIS
   @RHF iter   5:  -398.71871903618279   -9.34176e-03   4.27102e-04 DIIS
   @RHF iter   6:  -398.71930370291727   -5.84667e-04   1.05192e-04 DIIS
   @RHF iter   7:  -398.71938705715536   -8.33542e-05   2.04020e-05 DIIS
   @RHF iter   8:  -398.71939312006339   -6.06291e-06   3.97149e-06 DIIS
   @RHF iter   9:  -398.71939332781642   -2.07753e-07   5.82415e-07 DIIS
   @RHF iter  10:  -398.71939333305534   -5.23892e-09   1.48612e-07 DIIS
   @RHF iter  11:  -398.71939333335786   -3.02521e-10   2.25265e-08 DIIS
   @RHF iter  12:  -398.71939333336513   -7.27596e-12   4.78193e-09 DIIS
  Energy and wave function converged.


  ==> Post-Iterations <==

    Orbital Energies [Eh]
    ---------------------

    Doubly Occupied:                                                      

       1A1   -91.963746     2A1    -8.966920     1B1    -6.648518  
       3A1    -6.647754     1B2    -6.646609     4A1    -0.982304  
       2B1    -0.591156     5A1    -0.502440     2B2    -0.385290  

    Virtual:                                                              

       6A1     0.025154     3B1     0.043792     7A1     0.075370  
       3B2     0.084241     4B1     0.097658     8A1     0.118501  
       5B1     0.147941     9A1     0.177117    10A1     0.187490  
       1A2     0.194149     4B2     0.196945     6B1     0.231360  
      11A1     0.254811     7B1     0.263027    12A1     0.267998  
       5B2     0.272288     2A2     0.276777     8B1     0.297130  
      13A1     0.315795     9B1     0.423851    14A1     0.423896  
      15A1     0.441919     6B2     0.445690    16A1     0.471422  
       3A2     0.489030     7B2     0.499355     8B2     0.553778  
      10B1     0.594688    17A1     0.612672    11B1     0.618519  
      12B1     0.641666    18A1     0.650286     4A2     0.656366  
       9B2     0.657182    19A1     0.715065    13B1     0.722145  
      20A1     0.736086     5A2     0.749984    14B1     0.750752  
      10B2     0.752116    21A1     0.798641    11B2     0.809619  
      22A1     0.812559     6A2     0.815976    15B1     0.910336  
      16B1     0.979179    23A1     0.991928    24A1     1.210686  
      17B1     1.219086    12B2     1.225590     7A2     1.232999  
      25A1     1.243876    18B1     1.251363    26A1     1.332850  
      13B2     1.341428     8A2     1.348531    27A1     1.453984  
      19B1     1.481709    14B2     1.515897    28A1     1.546458  
      15B2     1.548721    29A1     1.565079    20B1     1.598346  
       9A2     1.611872    16B2     1.626909    17B2     1.644850  
      30A1     1.650545    21B1     1.654064    10A2     1.658091  
      31A1     1.672775    32A1     1.734603    18B2     1.776106  
      22B1     1.785917    11A2     1.786152    23B1     1.807918  
      19B2     1.817133    33A1     1.852940    24B1     1.877519  
      34A1     1.928865    12A2     1.941388    25B1     1.974540  
      26B1     2.048380    20B2     2.055950    35A1     2.065711  
      36A1     2.167236    13A2     2.193721    14A2     2.289724  
      27B1     2.317050    37A1     2.361723    21B2     2.361968  
      28B1     2.493626    29B1     2.507359    38A1     2.535069  
      39A1     2.820383    15A2     2.835323    30B1     2.878152  
      40A1     2.921902    22B2     2.924591    16A2     2.988659  
      41A1     3.060356    23B2     3.064149    31B1     3.137510  
      42A1     3.162397    17A2     3.190942    24B2     3.239553  
      43A1     3.311180    32B1     3.478660    44A1     3.604829  
      33B1     3.605955    25B2     3.619732    18A2     3.629294  
      34B1     3.652441    26B2     3.703634    45A1     3.754699  
      46A1     3.798444    35B1     3.876263    47A1     3.888144  
      27B2     3.922947    19A2     3.960359    36B1     4.003701  
      20A2     4.019694    28B2     4.061269    48A1     4.112154  
      37B1     4.385002    49A1     4.394156    29B2     4.581254  
      50A1     4.595084    38B1     4.719414    21A2     4.770243  
      51A1     4.866976    39B1     4.919547    30B2     6.006019  
      31B2     6.619978    40B1     6.620031    22A2     6.647819  
      52A1     6.675785    53A1     6.821249    41B1     6.839251  
      23A2     6.922319    42B1     7.016384    32B2     7.119160  
      54A1     7.137648    43B1     7.353562    55A1     7.404172  
      33B2     7.426905    24A2     7.432122    56A1     7.614345  
      44B1     7.723802    45B1     8.240568    57A1     8.245560  
      25A2     8.608714    34B2     8.615952    46B1     8.625477  
      26A2     8.663064    58A1     8.665187    35B2     8.761711  
      59A1     8.894050    47B1     8.933625    27A2     9.248698  
      36B2     9.284723    60A1     9.327478    48B1     9.555763  
      61A1     9.567146    28A2     9.593011    37B2     9.593477  
      49B1     9.707793    62A1     9.779339    63A1     9.801246  
      50B1    10.183760    64A1    10.885694    51B1    11.836719  
      65A1    22.042815  

    Final Occupation by Irrep:
             A1    A2    B1    B2 
    DOCC [     5,    0,    2,    2 ]

  @RHF Final Energy:  -398.71939333336513

   => Energetics <=

    Nuclear Repulsion Energy =             12.9735163965347979
    One-Electron Energy =                -576.7163475114549556
    Two-Electron Energy =                 165.0234377815550317
    Total Energy =                       -398.7193933333651330

Computation Completed


Properties will be evaluated at   0.000000,   0.000000,   0.000000 [a0]

Properties computed using the SCF density matrix

  Nuclear Dipole Moment: [e a0]
     X:     0.0000      Y:     0.0000      Z:    -1.6299

  Electronic Dipole Moment: [e a0]
     X:     0.0000      Y:     0.0000      Z:     1.2091

  Dipole Moment: [e a0]
     X:     0.0000      Y:     0.0000      Z:    -0.4208     Total:     0.4208

  Dipole Moment: [D]
     X:     0.0000      Y:     0.0000      Z:    -1.0695     Total:     1.0695


*** tstop() called on l43 at Wed Jan 20 22:30:24 2021
Module time:
	user time   =      27.94 seconds =       0.47 minutes
	system time =       6.54 seconds =       0.11 minutes
	total time  =         27 seconds =       0.45 minutes
Total time:
	user time   =      27.94 seconds =       0.47 minutes
	system time =       6.54 seconds =       0.11 minutes
	total time  =         27 seconds =       0.45 minutes

*** tstart() called on l43
*** at Wed Jan 20 22:30:24 2021


	Wfn Parameters:
	--------------------
	Wavefunction         = CCSD_T
	Number of irreps     = 4
	Number of MOs        = 181
	Number of active MOs = 176
	AO-Basis             = NONE
	Semicanonical        = false
	Reference            = RHF
	Print Level          = 1

	IRREP	# MOs	# FZDC	# DOCC	# SOCC	# VIRT	# FZVR
	-----	-----	------	------	------	------	------
	 A1	   65	    3	    2	    0	    60	    0
	 A2	   28	    0	    0	    0	    28	    0
	 B1	   51	    1	    1	    0	    49	    0
	 B2	   37	    1	    1	    0	    35	    0
	Transforming integrals...
	IWL integrals will be deleted.
	(OO|OO)...
	Presorting SO-basis two-electron integrals.
	Sorting File: SO Ints (nn|nn) nbuckets = 1
	Constructing frozen core operators
	Starting first half-transformation.
	Sorting half-transformed integrals.
	First half integral transformation complete.
	Starting second half-transformation.
	Two-electron integral transformation complete.
	(OO|OV)...
	Starting second half-transformation.
	Two-electron integral transformation complete.
	(OO|VV)...
	Starting second half-transformation.
	Two-electron integral transformation complete.
	(OV|OO)...
	Starting first half-transformation.
	Sorting half-transformed integrals.
	First half integral transformation complete.
	Starting second half-transformation.
	Two-electron integral transformation complete.
	(OV|OV)...
	Starting second half-transformation.
	Two-electron integral transformation complete.
	(OV|VV)...
	Starting second half-transformation.
	Two-electron integral transformation complete.
	(VV|OO)...
	Starting first half-transformation.
	Sorting half-transformed integrals.
	First half integral transformation complete.
	Starting second half-transformation.
	Two-electron integral transformation complete.
	(VV|OV)...
	Starting second half-transformation.
	Two-electron integral transformation complete.
	(VV|VV)...
	Starting second half-transformation.
	Two-electron integral transformation complete.
	Frozen core energy     =   -395.48955443028916

	Size of irrep 0 of <ab|cd> integrals:     64.160 (MW) /    513.281 (MB)
	Size of irrep 1 of <ab|cd> integrals:     46.104 (MW) /    368.833 (MB)
	Size of irrep 2 of <ab|cd> integrals:     61.466 (MW) /    491.725 (MB)
	Size of irrep 3 of <ab|cd> integrals:     48.219 (MW) /    385.753 (MB)
	Total:                                   219.949 (MW) /   1759.591 (MB)

	Size of irrep 0 of <ia|bc> integrals:      1.634 (MW) /     13.072 (MB)
	Size of irrep 1 of <ia|bc> integrals:      0.951 (MW) /      7.605 (MB)
	Size of irrep 2 of <ia|bc> integrals:      1.458 (MW) /     11.666 (MB)
	Size of irrep 3 of <ia|bc> integrals:      1.097 (MW) /      8.777 (MB)
	Total:                                     5.140 (MW) /     41.120 (MB)

	Size of irrep 0 of tijab amplitudes:       0.048 (MW) /      0.384 (MB)
	Size of irrep 1 of tijab amplitudes:       0.014 (MW) /      0.109 (MB)
	Size of irrep 2 of tijab amplitudes:       0.031 (MW) /      0.251 (MB)
	Size of irrep 3 of tijab amplitudes:       0.028 (MW) /      0.222 (MB)
	Total:                                     0.121 (MW) /      0.966 (MB)

	Nuclear Rep. energy          =     12.97351639653480
	SCF energy                   =   -398.71939333336513
	One-electron energy          =    -27.48433224635597
	Two-electron energy          =     11.28097694674293
	Reference energy             =   -398.71939333336741

*** tstop() called on l43 at Wed Jan 20 22:30:46 2021
Module time:
	user time   =      14.77 seconds =       0.25 minutes
	system time =       7.47 seconds =       0.12 minutes
	total time  =         22 seconds =       0.37 minutes
Total time:
	user time   =      42.71 seconds =       0.71 minutes
	system time =      14.01 seconds =       0.23 minutes
	total time  =         49 seconds =       0.82 minutes
            **************************
            *                        *
            *        CCENERGY        *
            *                        *
            **************************

    Nuclear Rep. energy (wfn)     =   12.973516396534798
    SCF energy          (wfn)     = -398.719393333365133
    Reference energy    (file100) = -398.719393333367407

    Input parameters:
    -----------------
    Wave function   =     CCSD_T
    Reference wfn   =     RHF
    Brueckner       =     No
    Memory (Mbytes) =     250000.0
    Maxiter         =     50
    R_Convergence   =     1.0e-07
    E_Convergence   =     1.0e-06
    Restart         =     Yes
    DIIS            =     Yes
    AO Basis        =     NONE
    ABCD            =     NEW
    Cache Level     =     2
    Cache Type      =     LOW
    Print Level     =     1
    Num. of threads =     48
    # Amps to Print =     10
    Print MP2 Amps? =     No
    Analyze T2 Amps =     No
    Print Pair Ener =     No
    Local CC        =     No
    SCS-MP2         =     False
    SCSN-MP2        =     False
    SCS-CCSD        =     False

MP2 correlation energy -0.2085589150074154
                Solving CC Amplitude Equations
                ------------------------------
  Iter             Energy              RMS        T1Diag      D1Diag    New D1Diag    D2Diag
  ----     ---------------------    ---------   ----------  ----------  ----------   --------
     0        -0.208558915007415    0.000e+00    0.000000    0.000000    0.000000    0.137143
     1        -0.223419567906602    4.364e-02    0.006995    0.011737    0.011737    0.150702
     2        -0.229661359227905    1.462e-02    0.009059    0.015455    0.015455    0.157866
     3        -0.229994020642428    3.728e-03    0.009966    0.017128    0.017128    0.159160
     4        -0.229980152966395    1.175e-03    0.010286    0.017766    0.017766    0.159581
     5        -0.229980083403254    2.894e-04    0.010358    0.017926    0.017926    0.159618
     6        -0.229977413149097    9.210e-05    0.010384    0.017995    0.017995    0.159614
     7        -0.229977393753730    2.526e-05    0.010391    0.018015    0.018015    0.159613
     8        -0.229977641238461    7.362e-06    0.010392    0.018021    0.018021    0.159613
     9        -0.229977552714755    2.251e-06    0.010392    0.018022    0.018022    0.159613
    10        -0.229977528655797    7.205e-07    0.010392    0.018023    0.018023    0.159613
    11        -0.229977540635905    2.153e-07    0.010392    0.018023    0.018023    0.159613
    12        -0.229977546496953    7.179e-08    0.010392    0.018023    0.018023    0.159613

    Iterations converged.


    Largest TIA Amplitudes:
              2  90         0.0105493828
              1   3         0.0100916749
              1   9        -0.0094062767
              3 138        -0.0086832147
              3 141         0.0082766843
              2  91         0.0076911040
              2  89        -0.0066460500
              2  93        -0.0060053174
              1  11        -0.0055552811
              2  95         0.0050920915

    Largest TIjAb Amplitudes:
      3   3 141 141        -0.0270801750
      3   3  62  62        -0.0269919786
      1   1  10  10        -0.0260031156
      1   1  90  90        -0.0219441190
      2   2  90  90        -0.0202986555
      3   3  10  10        -0.0201638362
      3   3 140 140        -0.0201269040
      2   2   9   9        -0.0196612702
      1   1 141 141        -0.0188296301
      1   1  90  91        -0.0183851487

    SCF energy       (wfn)                    = -398.719393333365133
    Reference energy (file100)                = -398.719393333367407

    Opposite-spin MP2 correlation energy      =   -0.167459790060261
    Same-spin MP2 correlation energy          =   -0.041099124947155
    Singles MP2 correlation energy            =   -0.000000000000000
    MP2 correlation energy                    =   -0.208558915007415
      * MP2 total energy                      = -398.927952248374822

    Opposite-spin CCSD correlation energy     =   -0.189549961689364
    Same-spin CCSD correlation energy         =   -0.040427584807582
    Singles CCSD correlation energy           =    0.000000000000000
    CCSD correlation energy                   =   -0.229977546496953
      * CCSD total energy                     = -398.949370879864375

            **************************
            *                        *
            *        CCTRIPLES       *
            *                        *
            **************************


    Wave function   =    CCSD_T
    Reference wfn   =      RHF

    Nuclear Rep. energy (wfn)                =   12.973516396534798
    SCF energy          (wfn)                = -398.719393333365133
    Reference energy    (file100)            = -398.719393333367407
    CCSD energy         (file100)            =   -0.229977546496953
    Total CCSD energy   (file100)            = -398.949370879864375

    Number of ijk index combinations:               20
    Memory available in words        :     31250000000
    ~Words needed per explicit thread:          864000
    Number of threads for explicit ijk threading:   48

    (T) energy                                =   -0.009600390928558
      * CCSD(T) total energy                  = -398.958971270792915


    Psi4 stopped on: Wednesday, 20 January 2021 10:31PM
    Psi4 wall time for execution: 0:01:02.96

*** Psi4 exiting successfully. Buy a developer a beer!
