
    -----------------------------------------------------------------------
          Psi4: An Open-Source Ab Initio Electronic Structure Package
                               Psi4 1.4a3.dev88 

                         Git: Rev {master} 262e345 


    D. G. A. Smith, L. A. Burns, A. C. Simmonett, R. M. Parrish,
    M. C. Schieber, R. Galvelis, P. Kraus, H. Kruse, R. Di Remigio,
    A. Alenaizan, A. M. James, S. Lehtola, J. P. Misiewicz, M. Scheurer,
    R. A. Shaw, J. B. Schriber, Y. Xie, Z. L. Glick, D. A. Sirianni,
    J. S. O'Brien, J. M. Waldrop, A. Kumar, E. G. Hohenstein,
    B. P. Pritchard, B. R. Brooks, H. F. Schaefer III, A. Yu. Sokolov,
    K. Patkowski, A. E. DePrince III, U. Bozkaya, R. A. King,
    F. A. Evangelista, J. M. Turney, T. D. Crawford, C. D. Sherrill,
    J. Chem. Phys. 152(18) 184108 (2020). https://doi.org/10.1063/5.0006002

                            Additional Code Authors
    E. T. Seidl, C. L. Janssen, E. F. Valeev, M. L. Leininger,
    J. F. Gonthier, R. M. Richard, H. R. McAlexander, M. Saitow, X. Wang,
    P. Verma, and M. H. Lechner

             Previous Authors, Complete List of Code Contributors,
                       and Citations for Specific Modules
    https://github.com/psi4/psi4/blob/master/codemeta.json
    https://github.com/psi4/psi4/graphs/contributors
    http://psicode.org/psi4manual/master/introduction.html#citing-psifour

    -----------------------------------------------------------------------


    Psi4 started on: Friday, 22 January 2021 03:42PM

    Process ID: 113795
    Host:       n412-045.vsc4.prov
    PSIDATADIR: /home/fs71337/gallo4/psi4/psi4/build/stage/share/psi4
    Memory:     500.0 MiB
    Threads:    48
    
  ==> Input File <==

--------------------------------------------------------------------------
# Any line starting with the # character is a comment line
memory 250000 mb
molecule molecule{
0 1
S          0.0000000000        0.0000000000        0.0391770833
H          0.9606903443        0.0000000000       -0.8857306917
H         -0.9606903443        0.0000000000       -0.8857306917
}

set {
  reference rhf
  basis aug-cc-pV(5+d)Z
  scf_type OUT_OF_CORE
  freeze_core true
}

energy('ccsd(t)')
--------------------------------------------------------------------------

  Memory set to 232.831 GiB by Python driver.

Scratch directory: /binfl/lv71337/airmler/temp/

*** tstart() called on n412-045.vsc4.prov
*** at Fri Jan 22 15:42:04 2021

   => Loading Basis Set <=

    Name: AUG-CC-PV(5+D)Z
    Role: ORBITAL
    Keyword: BASIS
    atoms 1   entry S          line  1451 file /home/fs71337/gallo4/psi4/psi4/build/stage/share/psi4/basis/aug-cc-pv_5pd_z.gbs 
    atoms 2-3 entry H          line    69 file /home/fs71337/gallo4/psi4/psi4/build/stage/share/psi4/basis/aug-cc-pv_5pd_z.gbs 


         ---------------------------------------------------------
                                   SCF
               by Justin Turney, Rob Parrish, Andy Simmonett
                          and Daniel G. A. Smith
                              RHF Reference
                       48 Threads, 238418 MiB Core
         ---------------------------------------------------------

  ==> Geometry <==

    Molecular point group: c2v
    Full point group: C2v

    Geometry (in Angstrom), charge = 0, multiplicity = 1:

       Center              X                  Y                   Z               Mass       
    ------------   -----------------  -----------------  -----------------  -----------------
         S            0.000000000000    -0.000000000000     0.054851880277    31.972071174400
         H            0.960690344300     0.000000000000    -0.870055894723     1.007825032230
         H           -0.960690344300    -0.000000000000    -0.870055894723     1.007825032230

  Running in c2v symmetry.

  Rotational constants: A =     10.39288  B =      9.06180  C =      4.84090 [cm^-1]
  Rotational constants: A = 311570.60569  B = 271665.95175  C = 145126.57695 [MHz]
  Nuclear repulsion =   12.973516396534798

  Charge       = 0
  Multiplicity = 1
  Electrons    = 18
  Nalpha       = 9
  Nbeta        = 9

  ==> Algorithm <==

  SCF Algorithm Type is OUT_OF_CORE.
  DIIS enabled.
  MOM disabled.
  Fractional occupation disabled.
  Guess Type is SAD.
  Energy threshold   = 1.00e-08
  Density threshold  = 1.00e-08
  Integral threshold = 1.00e-12

  ==> Primary Basis <==

  Basis Set: AUG-CC-PV(5+D)Z
    Blend: AUG-CC-PV(5+D)Z
    Number of shells: 70
    Number of basis function: 296
    Number of Cartesian functions: 402
    Spherical Harmonics?: true
    Max angular momentum: 5

  ==> Integral Setup <==

  ==> DiskJK: Disk-Based J/K Matrices <==

    J tasked:                  Yes
    K tasked:                  Yes
    wK tasked:                  No
    Memory [MiB]:           178813
    Schwarz Cutoff:          1E-12

  Minimum eigenvalue in the overlap matrix is 1.6294193829E-05.
  Reciprocal condition number of the overlap matrix is 2.1511265085E-06.
    Using symmetric orthogonalization.

  ==> Pre-Iterations <==

  SCF Guess: Superposition of Atomic Densities via on-the-fly atomic UHF (no occupation information).


 WARNING: Atomic UHF is not converging! Try casting from a smaller basis or call Rob at CCMST.

 WARNING: Atomic UHF is not converging! Try casting from a smaller basis or call Rob at CCMST.
   -------------------------
    Irrep   Nso     Nmo    
   -------------------------
     A1       100     100 
     A2        50      50 
     B1        83      83 
     B2        63      63 
   -------------------------
    Total     296     296
   -------------------------

  ==> Iterations <==

                        Total Energy        Delta E     RMS |[F,P]|

   @RHF iter SAD:   -63.22906965435607   -6.32291e+01   0.00000e+00 
    Occupation by irrep:
             A1    A2    B1    B2 
    DOCC [     5,    0,    3,    1 ]

   @RHF iter   1:  -393.41662854737882   -3.30188e+02   2.84792e-02 DIIS
    Occupation by irrep:
             A1    A2    B1    B2 
    DOCC [     5,    0,    2,    2 ]

   @RHF iter   2:  -394.02960406706330   -6.12976e-01   1.47907e-02 DIIS
   @RHF iter   3:  -398.25876180674459   -4.22916e+00   6.17667e-03 DIIS
   @RHF iter   4:  -398.70061882166561   -4.41857e-01   1.12760e-03 DIIS
   @RHF iter   5:  -398.71919485967430   -1.85760e-02   2.38385e-04 DIIS
   @RHF iter   6:  -398.72000837328517   -8.13514e-04   4.83737e-05 DIIS
   @RHF iter   7:  -398.72005412940183   -4.57561e-05   1.07377e-05 DIIS
   @RHF iter   8:  -398.72005683060257   -2.70120e-06   1.61455e-06 DIIS
   @RHF iter   9:  -398.72005691917576   -8.85732e-08   3.51750e-07 DIIS
   @RHF iter  10:  -398.72005692198059   -2.80482e-09   4.45534e-08 DIIS
   @RHF iter  11:  -398.72005692205761   -7.70228e-11   1.28488e-08 DIIS
   @RHF iter  12:  -398.72005692206324   -5.62750e-12   1.71251e-09 DIIS
  Energy and wave function converged.


  ==> Post-Iterations <==

    Orbital Energies [Eh]
    ---------------------

    Doubly Occupied:                                                      

       1A1   -91.964309     2A1    -8.966964     1B1    -6.648439  
       3A1    -6.647791     1B2    -6.646829     4A1    -0.982218  
       2B1    -0.591143     5A1    -0.502459     2B2    -0.385291  

    Virtual:                                                              

       6A1     0.022249     3B1     0.038173     7A1     0.066190  
       3B2     0.074527     4B1     0.088067     8A1     0.105220  
       5B1     0.135717     9A1     0.159389    10A1     0.168331  
       1A2     0.175084     4B2     0.176644     6B1     0.206847  
      11A1     0.220964     7B1     0.229041    12A1     0.238947  
       5B2     0.238975     2A2     0.243879     8B1     0.271909  
      13A1     0.280820     9B1     0.315870    14A1     0.335337  
       6B2     0.372485    15A1     0.391135    16A1     0.408331  
       3A2     0.432807     7B2     0.438826     8B2     0.454701  
      10B1     0.519496    17A1     0.522533    11B1     0.535337  
      12B1     0.545726    18A1     0.551399     9B2     0.561341  
       4A2     0.569718    13B1     0.573959    19A1     0.577532  
      14B1     0.597771     5A2     0.600887    10B2     0.601515  
      20A1     0.610573     6A2     0.652846    21A1     0.657426  
      11B2     0.660345    22A1     0.674402    15B1     0.696997  
      16B1     0.765548    23A1     0.773766    24A1     0.978690  
      17B1     1.016847    12B2     1.027498     7A2     1.054945  
      25A1     1.057866    18B1     1.104161    13B2     1.111517  
      26A1     1.127143     8A2     1.155034    14B2     1.160564  
      27A1     1.169675    28A1     1.184388    19B1     1.202728  
      29A1     1.207046    20B1     1.208656    15B2     1.209686  
       9A2     1.235134    30A1     1.236893    16B2     1.245439  
      10A2     1.249946    17B2     1.262576    21B1     1.262582  
      31A1     1.299649    22B1     1.318916    18B2     1.345759  
      32A1     1.368708    23B1     1.371187    11A2     1.374511  
      12A2     1.390085    19B2     1.400852    33A1     1.430393  
      34A1     1.444264    24B1     1.475715    20B2     1.485732  
      25B1     1.491702    35A1     1.493460    26B1     1.511893  
      36A1     1.591862    13A2     1.622676    14A2     1.722954  
      37A1     1.739214    27B1     1.741079    28B1     1.794353  
      38A1     1.839764    21B2     1.849146    29B1     1.959831  
      30B1     2.246918    15A2     2.269894    39A1     2.273332  
      22B2     2.313123    40A1     2.339394    16A2     2.341994  
      23B2     2.352261    41A1     2.410867    42A1     2.470036  
      17A2     2.480790    24B2     2.482518    31B1     2.502835  
      43A1     2.503235    32B1     2.566657    25B2     2.597472  
      33B1     2.645032    44A1     2.675948    26B2     2.715576  
      34B1     2.726808    45A1     2.744742    46A1     2.772961  
      18A2     2.785122    47A1     2.818215    19A2     2.822613  
      35B1     2.824052    27B2     2.841660    28B2     2.863747  
      36B1     2.872262    20A2     2.925699    48A1     2.951032  
      37B1     2.981698    49A1     2.982848    29B2     3.022385  
      30B2     3.041064    50A1     3.090142    31B2     3.109549  
      38B1     3.112301    51A1     3.160712    21A2     3.175610  
      52A1     3.206596    39B1     3.240506    22A2     3.259243  
      32B2     3.278971    53A1     3.287159    40B1     3.321972  
      23A2     3.355226    41B1     3.389737    54A1     3.446370  
      55A1     3.530404    33B2     3.589375    42B1     3.597694  
      24A2     3.609369    43B1     3.623601    34B2     3.628345  
      35B2     3.697313    56A1     3.709057    25A2     3.769115  
      44B1     3.774718    57A1     3.803437    45B1     3.847133  
      26A2     3.934806    46B1     3.980343    36B2     4.033552  
      58A1     4.048308    47B1     4.266532    59A1     4.271392  
      27A2     4.275483    48B1     4.378758    60A1     4.388657  
      37B2     4.416089    28A2     4.562069    61A1     4.687962  
      49B1     4.745200    38B2     4.779920    62A1     5.131659  
      50B1     5.139466    29A2     5.143209    39B2     5.229111  
      40B2     5.274643    30A2     5.342551    51B1     5.355418  
      63A1     5.391827    52B1     5.425409    53B1     5.458164  
      64A1     5.475826    65A1     5.516304    41B2     5.532988  
      31A2     5.610938    42B2     5.618969    66A1     5.662442  
      54B1     5.780568    67A1     5.849728    68A1     5.954234  
      43B2     5.988277    32A2     5.996855    55B1     5.998562  
      33A2     6.070079    44B2     6.091895    69A1     6.106904  
      56B1     6.147202    34A2     6.195878    45B2     6.195958  
      70A1     6.196388    57B1     6.204780    71A1     6.267998  
      72A1     6.299925    35A2     6.359755    46B2     6.369762  
      73A1     6.415764    58B1     6.469578    47B2     6.486499  
      74A1     6.487931    59B1     6.536534    60B1     6.843016  
      75A1     6.852585    48B2     6.857578    61B1     6.871378  
      49B2     6.918982    36A2     7.005757    76A1     7.034888  
      37A2     7.165848    77A1     7.205285    50B2     7.235652  
      38A2     7.244997    62B1     7.295578    63B1     7.363932  
      78A1     7.384138    64B1     8.001306    79A1     8.031431  
      51B2     8.128769    39A2     8.276725    80A1     8.297384  
      65B1     8.497082    66B1     9.669879    81A1     9.932869  
      82A1    13.021769    52B2    13.034374    40A2    13.050234  
      67B1    13.140146    83A1    13.155331    53B2    13.168661  
      41A2    13.169324    68B1    13.220637    69B1    13.249721  
      42A2    13.293181    84A1    13.308501    54B2    13.312943  
      55B2    13.365330    70B1    13.425270    85A1    13.439447  
      43A2    13.533627    86A1    13.556705    44A2    13.589876  
      56B2    13.599073    71B1    13.743009    72B1    13.820177  
      87A1    13.875903    45A2    13.909423    73B1    14.001749  
      57B2    14.003313    88A1    14.058032    74B1    14.061536  
      89A1    14.241402    58B2    14.302567    46A2    14.324585  
      75B1    14.419309    90A1    14.436124    59B2    14.438580  
      91A1    14.506502    76B1    14.515048    47A2    14.516207  
      92A1    14.799449    77B1    14.831976    60B2    15.202129  
      48A2    15.218518    93A1    15.259789    78B1    15.698932  
      94A1    16.644454    79B1    16.709716    95A1    16.750398  
      49A2    16.838614    61B2    16.858895    96A1    17.263731  
      62B2    17.617869    80B1    17.762437    50A2    17.879434  
      81B1    18.038454    97A1    18.076880    98A1    19.080596  
      82B1    19.188230    63B2    25.948493    99A1    28.409403  
      83B1    29.062080   100A1    75.743716  

    Final Occupation by Irrep:
             A1    A2    B1    B2 
    DOCC [     5,    0,    2,    2 ]

  @RHF Final Energy:  -398.72005692206324

   => Energetics <=

    Nuclear Repulsion Energy =             12.9735163965347979
    One-Electron Energy =                -576.7162584265321357
    Two-Electron Energy =                 165.0226851079340804
    Total Energy =                       -398.7200569220632360

Computation Completed


Properties will be evaluated at   0.000000,   0.000000,   0.000000 [a0]

Properties computed using the SCF density matrix

  Nuclear Dipole Moment: [e a0]
     X:     0.0000      Y:     0.0000      Z:    -1.6299

  Electronic Dipole Moment: [e a0]
     X:     0.0000      Y:     0.0000      Z:     1.2096

  Dipole Moment: [e a0]
     X:     0.0000      Y:     0.0000      Z:    -0.4202     Total:     0.4202

  Dipole Moment: [D]
     X:     0.0000      Y:     0.0000      Z:    -1.0681     Total:     1.0681


*** tstop() called on n412-045.vsc4.prov at Fri Jan 22 15:46:05 2021
Module time:
	user time   =     219.34 seconds =       3.66 minutes
	system time =      26.52 seconds =       0.44 minutes
	total time  =        241 seconds =       4.02 minutes
Total time:
	user time   =     219.34 seconds =       3.66 minutes
	system time =      26.52 seconds =       0.44 minutes
	total time  =        241 seconds =       4.02 minutes

*** tstart() called on n412-045.vsc4.prov
*** at Fri Jan 22 15:46:05 2021


	Wfn Parameters:
	--------------------
	Wavefunction         = CCSD_T
	Number of irreps     = 4
	Number of MOs        = 296
	Number of active MOs = 291
	AO-Basis             = NONE
	Semicanonical        = false
	Reference            = RHF
	Print Level          = 1

	IRREP	# MOs	# FZDC	# DOCC	# SOCC	# VIRT	# FZVR
	-----	-----	------	------	------	------	------
	 A1	   100	    3	    2	    0	    95	    0
	 A2	   50	    0	    0	    0	    50	    0
	 B1	   83	    1	    1	    0	    81	    0
	 B2	   63	    1	    1	    0	    61	    0
	Transforming integrals...
	IWL integrals will be deleted.
	(OO|OO)...
	Presorting SO-basis two-electron integrals.
	Sorting File: SO Ints (nn|nn) nbuckets = 1
	Constructing frozen core operators
	Starting first half-transformation.
	Sorting half-transformed integrals.
	First half integral transformation complete.
	Starting second half-transformation.
	Two-electron integral transformation complete.
	(OO|OV)...
	Starting second half-transformation.
	Two-electron integral transformation complete.
	(OO|VV)...
	Starting second half-transformation.
	Two-electron integral transformation complete.
	(OV|OO)...
	Starting first half-transformation.
	Sorting half-transformed integrals.
	First half integral transformation complete.
	Starting second half-transformation.
	Two-electron integral transformation complete.
	(OV|OV)...
	Starting second half-transformation.
	Two-electron integral transformation complete.
	(OV|VV)...
	Starting second half-transformation.
	Two-electron integral transformation complete.
	(VV|OO)...
	Starting first half-transformation.
	Sorting half-transformed integrals.
	First half integral transformation complete.
	Starting second half-transformation.
	Two-electron integral transformation complete.
	(VV|OV)...
	Starting second half-transformation.
	Two-electron integral transformation complete.
	(VV|VV)...
	Starting second half-transformation.
	Two-electron integral transformation complete.
	Frozen core energy     =   -395.48988925253053

	Size of irrep 0 of <ab|cd> integrals:    475.545 (MW) /   3804.362 (MB)
	Size of irrep 1 of <ab|cd> integrals:    375.662 (MW) /   3005.295 (MB)
	Size of irrep 2 of <ab|cd> integrals:    461.820 (MW) /   3694.561 (MB)
	Size of irrep 3 of <ab|cd> integrals:    387.696 (MW) /   3101.569 (MB)
	Total:                                  1700.723 (MW) /  13605.787 (MB)

	Size of irrep 0 of <ia|bc> integrals:      7.240 (MW) /     57.919 (MB)
	Size of irrep 1 of <ia|bc> integrals:      4.690 (MW) /     37.524 (MB)
	Size of irrep 2 of <ia|bc> integrals:      6.597 (MW) /     52.779 (MB)
	Size of irrep 3 of <ia|bc> integrals:      5.257 (MW) /     42.058 (MB)
	Total:                                    23.785 (MW) /    190.280 (MB)

	Size of irrep 0 of tijab amplitudes:       0.131 (MW) /      1.047 (MB)
	Size of irrep 1 of tijab amplitudes:       0.039 (MW) /      0.310 (MB)
	Size of irrep 2 of tijab amplitudes:       0.086 (MW) /      0.688 (MB)
	Size of irrep 3 of tijab amplitudes:       0.079 (MW) /      0.630 (MB)
	Total:                                     0.334 (MW) /      2.675 (MB)

	Nuclear Rep. energy          =     12.97351639653480
	SCF energy                   =   -398.72005692206324
	One-electron energy          =    -27.48514590446320
	Two-electron energy          =     11.28146183839721
	Reference energy             =   -398.72005692206170

*** tstop() called on n412-045.vsc4.prov at Fri Jan 22 15:50:33 2021
Module time:
	user time   =      97.16 seconds =       1.62 minutes
	system time =      56.15 seconds =       0.94 minutes
	total time  =        268 seconds =       4.47 minutes
Total time:
	user time   =     316.50 seconds =       5.28 minutes
	system time =      82.67 seconds =       1.38 minutes
	total time  =        509 seconds =       8.48 minutes
            **************************
            *                        *
            *        CCENERGY        *
            *                        *
            **************************

    Nuclear Rep. energy (wfn)     =   12.973516396534798
    SCF energy          (wfn)     = -398.720056922063236
    Reference energy    (file100) = -398.720056922061701

    Input parameters:
    -----------------
    Wave function   =     CCSD_T
    Reference wfn   =     RHF
    Brueckner       =     No
    Memory (Mbytes) =     250000.0
    Maxiter         =     50
    R_Convergence   =     1.0e-07
    E_Convergence   =     1.0e-06
    Restart         =     Yes
    DIIS            =     Yes
    AO Basis        =     NONE
    ABCD            =     NEW
    Cache Level     =     2
    Cache Type      =     LOW
    Print Level     =     1
    Num. of threads =     48
    # Amps to Print =     10
    Print MP2 Amps? =     No
    Analyze T2 Amps =     No
    Print Pair Ener =     No
    Local CC        =     No
    SCS-MP2         =     False
    SCSN-MP2        =     False
    SCS-CCSD        =     False

MP2 correlation energy -0.2144765454324794
                Solving CC Amplitude Equations
                ------------------------------
  Iter             Energy              RMS        T1Diag      D1Diag    New D1Diag    D2Diag
  ----     ---------------------    ---------   ----------  ----------  ----------   --------
     0        -0.214476545432479    0.000e+00    0.000000    0.000000    0.000000    0.137736
     1        -0.227032273443730    4.317e-02    0.007253    0.012188    0.012188    0.150067
     2        -0.233391692564144    1.467e-02    0.009197    0.015674    0.015674    0.157345
     3        -0.233722118817727    3.886e-03    0.010156    0.017451    0.017451    0.158695
     4        -0.233694002792812    1.190e-03    0.010476    0.018088    0.018088    0.159104
     5        -0.233699541791143    3.065e-04    0.010550    0.018255    0.018255    0.159149
     6        -0.233696817572205    9.760e-05    0.010578    0.018328    0.018328    0.159144
     7        -0.233696086622827    2.655e-05    0.010584    0.018348    0.018348    0.159143
     8        -0.233696452163772    8.187e-06    0.010586    0.018355    0.018355    0.159143
     9        -0.233696405190719    2.376e-06    0.010586    0.018356    0.018356    0.159143
    10        -0.233696366135640    7.673e-07    0.010586    0.018357    0.018357    0.159143
    11        -0.233696379124154    2.396e-07    0.010586    0.018357    0.018357    0.159143
    12        -0.233696384048782    7.571e-08    0.010586    0.018357    0.018357    0.159143

    Iterations converged.


    Largest TIA Amplitudes:
              2 147        -0.0112487200
              1   9         0.0095551093
              1   3        -0.0085495010
              3 230        -0.0084279024
              2 150         0.0083737252
              3 227         0.0073666634
              2 148         0.0062344428
              1  12        -0.0054338852
              2 146        -0.0049180711
              0   7        -0.0046731422

    Largest TIjAb Amplitudes:
      1   1  10  10        -0.0247205786
      1   1 147 147        -0.0232196611
      3   3  97  97        -0.0230075314
      3   3 230 230        -0.0224326234
      2   2 147 147        -0.0203455471
      1   1 147 150         0.0202077882
      1   1 150 147         0.0202077882
      1   1 150 150        -0.0182315457
      3   3  10  10        -0.0180181263
      2   2 147 150         0.0175855724

    SCF energy       (wfn)                    = -398.720056922063236
    Reference energy (file100)                = -398.720056922061701

    Opposite-spin MP2 correlation energy      =   -0.172915866288534
    Same-spin MP2 correlation energy          =   -0.041560679143945
    Singles MP2 correlation energy            =   -0.000000000000000
    MP2 correlation energy                    =   -0.214476545432479
      * MP2 total energy                      = -398.934533467494191

    Opposite-spin CCSD correlation energy     =   -0.192909870615973
    Same-spin CCSD correlation energy         =   -0.040786513432823
    Singles CCSD correlation energy           =    0.000000000000000
    CCSD correlation energy                   =   -0.233696384048782
      * CCSD total energy                     = -398.953753306110457

            **************************
            *                        *
            *        CCTRIPLES       *
            *                        *
            **************************


    Wave function   =    CCSD_T
    Reference wfn   =      RHF

    Nuclear Rep. energy (wfn)                =   12.973516396534798
    SCF energy          (wfn)                = -398.720056922063236
    Reference energy    (file100)            = -398.720056922061701
    CCSD energy         (file100)            =   -0.233696384048782
    Total CCSD energy   (file100)            = -398.953753306110457

    Number of ijk index combinations:               20
    Memory available in words        :     31250000000
    ~Words needed per explicit thread:         3429500
    Number of threads for explicit ijk threading:   48

    (T) energy                                =   -0.009933615035817
      * CCSD(T) total energy                  = -398.963686921146291


    Psi4 stopped on: Friday, 22 January 2021 03:52PM
    Psi4 wall time for execution: 0:10:41.30

*** Psi4 exiting successfully. Buy a developer a beer!
