
    -----------------------------------------------------------------------
          Psi4: An Open-Source Ab Initio Electronic Structure Package
                               Psi4 1.4a3.dev88 

                         Git: Rev {master} 262e345 


    D. G. A. Smith, L. A. Burns, A. C. Simmonett, R. M. Parrish,
    M. C. Schieber, R. Galvelis, P. Kraus, H. Kruse, R. Di Remigio,
    A. Alenaizan, A. M. James, S. Lehtola, J. P. Misiewicz, M. Scheurer,
    R. A. Shaw, J. B. Schriber, Y. Xie, Z. L. Glick, D. A. Sirianni,
    J. S. O'Brien, J. M. Waldrop, A. Kumar, E. G. Hohenstein,
    B. P. Pritchard, B. R. Brooks, H. F. Schaefer III, A. Yu. Sokolov,
    K. Patkowski, A. E. DePrince III, U. Bozkaya, R. A. King,
    F. A. Evangelista, J. M. Turney, T. D. Crawford, C. D. Sherrill,
    J. Chem. Phys. 152(18) 184108 (2020). https://doi.org/10.1063/5.0006002

                            Additional Code Authors
    E. T. Seidl, C. L. Janssen, E. F. Valeev, M. L. Leininger,
    J. F. Gonthier, R. M. Richard, H. R. McAlexander, M. Saitow, X. Wang,
    P. Verma, and M. H. Lechner

             Previous Authors, Complete List of Code Contributors,
                       and Citations for Specific Modules
    https://github.com/psi4/psi4/blob/master/codemeta.json
    https://github.com/psi4/psi4/graphs/contributors
    http://psicode.org/psi4manual/master/introduction.html#citing-psifour

    -----------------------------------------------------------------------


    Psi4 started on: Monday, 25 January 2021 10:13PM

    Process ID: 319340
    Host:       n412-043.vsc4.prov
    PSIDATADIR: /home/fs71337/gallo4/psi4/eri-6/psi4/build/stage/share/psi4
    Memory:     500.0 MiB
    Threads:    48
    
  ==> Input File <==

--------------------------------------------------------------------------
# Any line starting with the # character is a comment line
memory 250000 mb
molecule molecule{
0 1
S          0.0000000000        0.0000000000        0.0391770833
H          0.9606903443        0.0000000000       -0.8857306917
H         -0.9606903443        0.0000000000       -0.8857306917
}

set {
  reference rhf
  basis aug-cc-pV(6+d)Z
  scf_type OUT_OF_CORE
  freeze_core true
}

energy('ccsd(t)')
--------------------------------------------------------------------------

  Memory set to 232.831 GiB by Python driver.

Scratch directory: /binfl/lv71337/airmler/temp/

*** tstart() called on n412-043.vsc4.prov
*** at Mon Jan 25 22:13:46 2021

   => Loading Basis Set <=

    Name: AUG-CC-PV(6+D)Z
    Role: ORBITAL
    Keyword: BASIS
    atoms 1   entry S          line  1164 file /home/fs71337/gallo4/psi4/eri-6/psi4/build/stage/share/psi4/basis/aug-cc-pv_6pd_z.gbs 
    atoms 2-3 entry H          line    51 file /home/fs71337/gallo4/psi4/eri-6/psi4/build/stage/share/psi4/basis/aug-cc-pv_6pd_z.gbs 


         ---------------------------------------------------------
                                   SCF
               by Justin Turney, Rob Parrish, Andy Simmonett
                          and Daniel G. A. Smith
                              RHF Reference
                       48 Threads, 238418 MiB Core
         ---------------------------------------------------------

  ==> Geometry <==

    Molecular point group: c2v
    Full point group: C2v

    Geometry (in Angstrom), charge = 0, multiplicity = 1:

       Center              X                  Y                   Z               Mass       
    ------------   -----------------  -----------------  -----------------  -----------------
         S            0.000000000000    -0.000000000000     0.054851880277    31.972071174400
         H            0.960690344300     0.000000000000    -0.870055894723     1.007825032230
         H           -0.960690344300    -0.000000000000    -0.870055894723     1.007825032230

  Running in c2v symmetry.

  Rotational constants: A =     10.39288  B =      9.06180  C =      4.84090 [cm^-1]
  Rotational constants: A = 311570.60569  B = 271665.95175  C = 145126.57695 [MHz]
  Nuclear repulsion =   12.973516396534798

  Charge       = 0
  Multiplicity = 1
  Electrons    = 18
  Nalpha       = 9
  Nbeta        = 9

  ==> Algorithm <==

  SCF Algorithm Type is OUT_OF_CORE.
  DIIS enabled.
  MOM disabled.
  Fractional occupation disabled.
  Guess Type is SAD.
  Energy threshold   = 1.00e-08
  Density threshold  = 1.00e-08
  Integral threshold = 1.00e-12

  ==> Primary Basis <==

  Basis Set: AUG-CC-PV(6+D)Z
    Blend: AUG-CC-PV(6+D)Z
    Number of shells: 92
    Number of basis function: 452
    Number of Cartesian functions: 668
    Spherical Harmonics?: true
    Max angular momentum: 6

  ==> Integral Setup <==

  ==> DiskJK: Disk-Based J/K Matrices <==

    J tasked:                  Yes
    K tasked:                  Yes
    wK tasked:                  No
    Memory [MiB]:           178813
    Schwarz Cutoff:          1E-12

  Minimum eigenvalue in the overlap matrix is 4.9436545553E-06.
  Reciprocal condition number of the overlap matrix is 5.9005260894E-07.
    Using symmetric orthogonalization.

  ==> Pre-Iterations <==

  SCF Guess: Superposition of Atomic Densities via on-the-fly atomic UHF (no occupation information).


 WARNING: Atomic UHF is not converging! Try casting from a smaller basis or call Rob at CCMST.

 WARNING: Atomic UHF is not converging! Try casting from a smaller basis or call Rob at CCMST.
   -------------------------
    Irrep   Nso     Nmo    
   -------------------------
     A1       147     147 
     A2        82      82 
     B1       125     125 
     B2        98      98 
   -------------------------
    Total     452     452
   -------------------------

  ==> Iterations <==

                        Total Energy        Delta E     RMS |[F,P]|

   @RHF iter SAD:   401.00118526626306    4.01001e+02   0.00000e+00 
    Occupation by irrep:
             A1    A2    B1    B2 
    DOCC [     5,    0,    3,    1 ]

   @RHF iter   1:  -382.20680554225822   -7.83208e+02   4.78390e-02 DIIS
    Occupation by irrep:
             A1    A2    B1    B2 
    DOCC [     5,    0,    2,    2 ]

   @RHF iter   2:  -389.62107415266814   -7.41427e+00   2.33145e-02 DIIS
   @RHF iter   3:  -397.80660126433173   -8.18553e+00   6.76562e-03 DIIS
   @RHF iter   4:  -398.71151083132207   -9.04910e-01   7.02970e-04 DIIS
   @RHF iter   5:  -398.71969565764493   -8.18483e-03   1.59111e-04 DIIS
   @RHF iter   6:  -398.72018536047671   -4.89703e-04   3.04124e-05 DIIS
   @RHF iter   7:  -398.72024755105707   -6.21906e-05   8.18688e-06 DIIS
   @RHF iter   8:  -398.72025364864510   -6.09759e-06   1.31018e-06 DIIS
   @RHF iter   9:  -398.72025376129125   -1.12646e-07   2.45522e-07 DIIS
   @RHF iter  10:  -398.72025376697854   -5.68730e-09   6.67096e-08 DIIS
   @RHF iter  11:  -398.72025376740822   -4.29679e-10   1.09985e-08 DIIS
   @RHF iter  12:  -398.72025376741834   -1.01181e-11   2.27832e-09 DIIS
  Energy and wave function converged.


  ==> Post-Iterations <==

    Orbital Energies [Eh]
    ---------------------

    Doubly Occupied:                                                      

       1A1   -91.964301     2A1    -8.966892     1B1    -6.648328  
       3A1    -6.647734     1B2    -6.646866     4A1    -0.982177  
       2B1    -0.591136     5A1    -0.502463     2B2    -0.385301  

    Virtual:                                                              

       6A1     0.020050     3B1     0.034950     7A1     0.057704  
       3B2     0.065239     4B1     0.075687     8A1     0.094738  
       5B1     0.129232     9A1     0.143666    10A1     0.146754  
       1A2     0.158830     4B2     0.160153     6B1     0.175426  
      11A1     0.198398     7B1     0.202381    12A1     0.213786  
       5B2     0.214999     2A2     0.217672     8B1     0.237467  
      13A1     0.251482     9B1     0.260851    14A1     0.269805  
       6B2     0.301385    15A1     0.335238    16A1     0.359652  
       7B2     0.377245     3A2     0.385590    10B1     0.403941  
       8B2     0.412003    17A1     0.451648    11B1     0.464769  
      12B1     0.478527    18A1     0.487122     4A2     0.491198  
       9B2     0.500571    13B1     0.507666    19A1     0.507716  
       5A2     0.512425    10B2     0.520649    20A1     0.521119  
      14B1     0.545326     6A2     0.548291    21A1     0.557387  
      11B2     0.565830    15B1     0.573329    22A1     0.579566  
      16B1     0.596727    23A1     0.619967    24A1     0.780999  
      17B1     0.833545    25A1     0.872230    12B2     0.874026  
       7A2     0.889569    18B1     0.912256    13B2     0.913339  
      26A1     0.923466     8A2     0.972821    27A1     0.977367  
      14B2     0.978149    15B2     0.989251    19B1     0.991946  
      28A1     0.992269    29A1     1.002488     9A2     1.008331  
      20B1     1.017298    16B2     1.035804    30A1     1.045739  
      21B1     1.062469    31A1     1.063921    10A2     1.065051  
      17B2     1.108290    22B1     1.128434    11A2     1.130146  
      18B2     1.137999    32A1     1.142671    23B1     1.143076  
      12A2     1.158133    19B2     1.188284    24B1     1.188301  
      33A1     1.215318    25B1     1.238828    34A1     1.248196  
      35A1     1.257549    26B1     1.270230    20B2     1.279569  
      36A1     1.302613    13A2     1.362814    27B1     1.405560  
      37A1     1.476556    28B1     1.493637    21B2     1.502591  
      38A1     1.511405    14A2     1.530375    29B1     1.628564  
      39A1     1.737773    30B1     1.878266    22B2     1.894357  
      40A1     1.894946    15A2     1.915260    23B2     1.953921  
      41A1     1.969502    16A2     1.981588    42A1     2.012168  
      31B1     2.014777    24B2     2.037523    32B1     2.044020  
      43A1     2.059313    17A2     2.079067    25B2     2.141233  
      44A1     2.145536    33B1     2.147978    18A2     2.166249  
      45A1     2.170385    34B1     2.188033    26B2     2.191228  
      19A2     2.199015    27B2     2.235967    46A1     2.237262  
      35B1     2.254689    47A1     2.260254    48A1     2.275778  
      28B2     2.276778    36B1     2.310406    49A1     2.329219  
      20A2     2.333247    29B2     2.363564    50A1     2.388286  
      37B1     2.395092    21A2     2.425264    30B2     2.437520  
      38B1     2.437907    31B2     2.449711    51A1     2.486397  
      39B1     2.516610    22A2     2.558702    52A1     2.565295  
      32B2     2.570164    40B1     2.591835    33B2     2.612152  
      41B1     2.650381    53A1     2.659580    54A1     2.681068  
      42B1     2.701114    23A2     2.707362    43B1     2.716847  
      34B2     2.742596    24A2     2.756901    55A1     2.763581  
      56A1     2.822527    44B1     2.831728    35B2     2.840490  
      25A2     2.841963    57A1     2.849537    45B1     2.884288  
      36B2     2.910934    26A2     2.951840    46B1     3.037471  
      58A1     3.104708    59A1     3.259187    47B1     3.328953  
      27A2     3.482020    60A1     3.484785    48B1     3.496316  
      37B2     3.569478    61A1     3.688049    28A2     3.780927  
      38B2     3.818186    62A1     3.899766    49B1     3.918224  
      50B1     3.964535    39B2     4.014392    29A2     4.080618  
      63A1     4.092242    51B1     4.135478    40B2     4.142920  
      30A2     4.158519    64A1     4.223570    52B1     4.239532  
      65A1     4.292416    66A1     4.329427    31A2     4.336178  
      41B2     4.344058    42B2     4.362669    67A1     4.397451  
      32A2     4.410389    53B1     4.415982    68A1     4.471117  
      43B2     4.479285    69A1     4.501795    44B2     4.503696  
      54B1     4.518422    70A1     4.536176    55B1     4.553805  
      33A2     4.558797    71A1     4.560355    56B1     4.616474  
      34A2     4.628256    72A1     4.631461    45B2     4.652801  
      46B2     4.673589    73A1     4.734482    57B1     4.746604  
      35A2     4.747614    47B2     4.781583    74A1     4.805978  
      58B1     4.808947    36A2     4.812152    48B2     4.817051  
      59B1     4.848831    75A1     4.865849    60B1     4.890275  
      49B2     4.896371    76A1     4.976661    61B1     5.062352  
      37A2     5.064738    77A1     5.094979    38A2     5.098118  
      50B2     5.112830    62B1     5.121384    39A2     5.131234  
      78A1     5.183757    63B1     5.217198    79A1     5.221687  
      64B1     5.280085    80A1     5.281387    51B2     5.286583  
      52B2     5.362756    65B1     5.385154    81A1     5.396955  
      40A2     5.417742    66B1     5.435150    53B2     5.442824  
      54B2     5.478278    41A2     5.491331    82A1     5.524453  
      83A1     5.563988    42A2     5.577127    55B2     5.600701  
      84A1     5.737354    56B2     5.745662    67B1     5.761875  
      68B1     5.807401    69B1     5.847140    43A2     5.918937  
      70B1     6.013770    85A1     6.032269    86A1     6.130776  
      44A2     6.199059    87A1     6.224786    71B1     6.285187  
      45A2     6.347964    57B2     6.405511    88A1     6.484888  
      46A2     6.491246    72B1     6.509425    58B2     6.557560  
      73B1     6.661145    89A1     6.920707    59B2     7.028503  
      74B1     7.109327    90A1     7.170198    47A2     7.182482  
      91A1     7.269199    75B1     7.343293    48A2     7.588649  
      60B2     7.643735    76B1     7.684492    61B2     7.695684  
      92A1     7.728779    49A2     8.068169    77B1     8.088238  
      93A1     8.093558    62B2     8.249284    50A2     8.282157  
      78B1     8.335475    63B2     8.358069    79B1     8.386181  
      94A1     8.420493    51A2     8.424187    95A1     8.434142  
      64B2     8.587227    96A1     8.598941    80B1     8.633817  
      97A1     8.790030    81B1     8.837168    98A1     8.851318  
      52A2     8.905287    65B2     8.920870    82B1     8.933318  
      99A1     9.012530    53A2     9.238640    66B2     9.260020  
     100A1     9.265801   101A1     9.387670   102A1     9.428718  
      67B2     9.465173    54A2     9.473103    83B1     9.483255  
      84B1     9.494619    68B2     9.497008   103A1     9.514726  
     104A1     9.571980    55A2     9.586144    85B1     9.599148  
      69B2     9.626788    70B2     9.671375    56A2     9.711061  
      86B1     9.750941   105A1     9.769120   106A1     9.774612  
      87B1     9.872562    57A2     9.883570    71B2     9.915821  
      88B1     9.995151    58A2    10.075753    72B2    10.104556  
     107A1    10.116444   108A1    10.228803    73B2    10.295076  
      59A2    10.369190    89B1    10.426544    74B2    10.509405  
      90B1    10.542848   109A1    10.549321    91B1    10.562476  
     110A1    10.661886   111A1    10.782542    92B1    10.794464  
      60A2    10.910036    75B2    11.017803   112A1    11.079819  
      93B1    11.117077    76B2    11.183569    61A2    11.191492  
     113A1    11.259904    94B1    11.276515    95B1    11.429948  
     114A1    11.434247    62A2    11.495142    96B1    11.546875  
      77B2    11.579663    78B2    11.714731    63A2    11.740388  
     115A1    11.749550    64A2    11.856976    79B2    11.864980  
      97B1    11.870532   116A1    11.948973   117A1    12.209626  
      98B1    12.860571    80B2    12.947295   118A1    12.952295  
      65A2    13.087910    99B1    13.304410   119A1    13.538432  
      81B2    13.878071   100B1    13.998281    66A2    14.123778  
     120A1    14.321152   101B1    14.379337   121A1    15.245044  
     102B1    16.660982   122A1    16.771421    82B2    17.508622  
     123A1    17.519130   103B1    17.552178    67A2    17.569997  
      83B2    17.633679    68A2    17.650384   104B1    17.725596  
     124A1    17.729185    69A2    17.860150   105B1    17.905562  
      84B2    17.966003   125A1    18.017037   126A1    18.324405  
      85B2    18.359896    70A2    18.635092   106B1    18.656470  
     107B1    19.170781    86B2    19.198677    71A2    19.201610  
     127A1    19.205796   128A1    19.454381   108B1    19.479512  
      87B2    20.376624   129A1    20.401056    72A2    20.403301  
     109B1    20.429561    73A2    20.705701   110B1    20.966375  
     130A1    21.005032    88B2    21.116590    89B2    21.531374  
     111B1    21.548605    90B2    21.555413    74A2    21.593071  
     112B1    21.633964   131A1    21.645969    75A2    21.651165  
     132A1    21.770392   113B1    21.982420   133A1    22.013220  
     134A1    22.860964    91B2    23.255900    76A2    23.264967  
     114B1    23.315489   115B1    23.374872   135A1    23.567332  
     136A1    24.124646    92B2    24.213964    77A2    24.239129  
     116B1    24.345280   137A1    24.540792    93B2    24.549708  
     138A1    24.584531   117B1    24.599653    78A2    24.612080  
      94B2    24.642901    79A2    24.695650   118B1    24.857333  
     139A1    24.918641   119B1    24.947781    95B2    25.313002  
      80A2    25.384380   120B1    25.590057   140A1    25.604397  
     121B1    25.699193   141A1    25.745225    96B2    30.921846  
     142A1    31.321162    81A2    31.328165   143A1    31.525014  
      97B2    31.725258   122B1    32.677270   144A1    34.773556  
      98B2    34.821682    82A2    34.829870   145A1    35.076400  
     123B1    35.179421   124B1    36.108136   146A1    37.566732  
     125B1    37.617792   147A1   249.471588  

    Final Occupation by Irrep:
             A1    A2    B1    B2 
    DOCC [     5,    0,    2,    2 ]

  @RHF Final Energy:  -398.72025376741834

   => Energetics <=

    Nuclear Repulsion Energy =             12.9735163965347979
    One-Electron Energy =                -576.7171452697792802
    Two-Electron Energy =                 165.0233751058260907
    Total Energy =                       -398.7202537674183986

Computation Completed


Properties will be evaluated at   0.000000,   0.000000,   0.000000 [a0]

Properties computed using the SCF density matrix

  Nuclear Dipole Moment: [e a0]
     X:     0.0000      Y:     0.0000      Z:    -1.6299

  Electronic Dipole Moment: [e a0]
     X:     0.0000      Y:     0.0000      Z:     1.2100

  Dipole Moment: [e a0]
     X:     0.0000      Y:     0.0000      Z:    -0.4199     Total:     0.4199

  Dipole Moment: [D]
     X:     0.0000      Y:     0.0000      Z:    -1.0672     Total:     1.0672


*** tstop() called on n412-043.vsc4.prov at Mon Jan 25 22:38:34 2021
Module time:
	user time   =     974.05 seconds =      16.23 minutes
	system time =     162.71 seconds =       2.71 minutes
	total time  =       1488 seconds =      24.80 minutes
Total time:
	user time   =     974.05 seconds =      16.23 minutes
	system time =     162.71 seconds =       2.71 minutes
	total time  =       1488 seconds =      24.80 minutes

*** tstart() called on n412-043.vsc4.prov
*** at Mon Jan 25 22:38:34 2021


	Wfn Parameters:
	--------------------
	Wavefunction         = CCSD_T
	Number of irreps     = 4
	Number of MOs        = 452
	Number of active MOs = 447
	AO-Basis             = NONE
	Semicanonical        = false
	Reference            = RHF
	Print Level          = 1

	IRREP	# MOs	# FZDC	# DOCC	# SOCC	# VIRT	# FZVR
	-----	-----	------	------	------	------	------
	 A1	   147	    3	    2	    0	    142	    0
	 A2	   82	    0	    0	    0	    82	    0
	 B1	   125	    1	    1	    0	    123	    0
	 B2	   98	    1	    1	    0	    96	    0
	Transforming integrals...
	IWL integrals will be deleted.
	(OO|OO)...
	Presorting SO-basis two-electron integrals.
	Sorting File: SO Ints (nn|nn) nbuckets = 1
	Constructing frozen core operators
	Starting first half-transformation.
	Sorting half-transformed integrals.
	First half integral transformation complete.
	Starting second half-transformation.
	Two-electron integral transformation complete.
	(OO|OV)...
	Starting second half-transformation.
	Two-electron integral transformation complete.
	(OO|VV)...
	Starting second half-transformation.
	Two-electron integral transformation complete.
	(OV|OO)...
	Starting first half-transformation.
	Sorting half-transformed integrals.
	First half integral transformation complete.
	Starting second half-transformation.
	Two-electron integral transformation complete.
	(OV|OV)...
	Starting second half-transformation.
	Two-electron integral transformation complete.
	(OV|VV)...
	Starting second half-transformation.
	Two-electron integral transformation complete.
	(VV|OO)...
	Starting first half-transformation.
	Sorting half-transformed integrals.
	First half integral transformation complete.
	Starting second half-transformation.
	Two-electron integral transformation complete.
	(VV|OV)...
	Starting second half-transformation.
	Two-electron integral transformation complete.
	(VV|VV)...
	Starting second half-transformation.
	Two-electron integral transformation complete.
	Frozen core energy     =   -395.48997856463035

	Size of irrep 0 of <ab|cd> integrals:   2624.820 (MW) /  20998.562 (MB)
	Size of irrep 1 of <ab|cd> integrals:   2199.985 (MW) /  17599.882 (MB)
	Size of irrep 2 of <ab|cd> integrals:   2568.057 (MW) /  20544.456 (MB)
	Size of irrep 3 of <ab|cd> integrals:   2250.174 (MW) /  18001.393 (MB)
	Total:                                  9643.037 (MW) /  77144.293 (MB)

	Size of irrep 0 of <ia|bc> integrals:     25.770 (MW) /    206.162 (MB)
	Size of irrep 1 of <ia|bc> integrals:     17.964 (MW) /    143.714 (MB)
	Size of irrep 2 of <ia|bc> integrals:     23.818 (MW) /    190.542 (MB)
	Size of irrep 3 of <ia|bc> integrals:     19.733 (MW) /    157.867 (MB)
	Total:                                    87.286 (MW) /    698.284 (MB)

	Size of irrep 0 of tijab amplitudes:       0.307 (MW) /      2.459 (MB)
	Size of irrep 1 of tijab amplitudes:       0.094 (MW) /      0.750 (MB)
	Size of irrep 2 of tijab amplitudes:       0.203 (MW) /      1.622 (MB)
	Size of irrep 3 of tijab amplitudes:       0.190 (MW) /      1.518 (MB)
	Total:                                     0.794 (MW) /      6.349 (MB)

	Nuclear Rep. energy          =     12.97351639653480
	SCF energy                   =   -398.72025376741834
	One-electron energy          =    -27.48542972482121
	Two-electron energy          =     11.28163812549933
	Reference energy             =   -398.72025376741743

*** tstop() called on n412-043.vsc4.prov at Mon Jan 25 23:00:49 2021
Module time:
	user time   =     604.65 seconds =      10.08 minutes
	system time =     284.53 seconds =       4.74 minutes
	total time  =       1335 seconds =      22.25 minutes
Total time:
	user time   =    1578.70 seconds =      26.31 minutes
	system time =     447.24 seconds =       7.45 minutes
	total time  =       2823 seconds =      47.05 minutes
            **************************
            *                        *
            *        CCENERGY        *
            *                        *
            **************************

    Nuclear Rep. energy (wfn)     =   12.973516396534798
    SCF energy          (wfn)     = -398.720253767418342
    Reference energy    (file100) = -398.720253767417432

    Input parameters:
    -----------------
    Wave function   =     CCSD_T
    Reference wfn   =     RHF
    Brueckner       =     No
    Memory (Mbytes) =     250000.0
    Maxiter         =     50
    R_Convergence   =     1.0e-07
    E_Convergence   =     1.0e-06
    Restart         =     Yes
    DIIS            =     Yes
    AO Basis        =     NONE
    ABCD            =     NEW
    Cache Level     =     2
    Cache Type      =     LOW
    Print Level     =     1
    Num. of threads =     48
    # Amps to Print =     10
    Print MP2 Amps? =     No
    Analyze T2 Amps =     No
    Print Pair Ener =     No
    Local CC        =     No
    SCS-MP2         =     False
    SCSN-MP2        =     False
    SCS-CCSD        =     False

MP2 correlation energy -0.2172434808763636
                Solving CC Amplitude Equations
                ------------------------------
  Iter             Energy              RMS        T1Diag      D1Diag    New D1Diag    D2Diag
  ----     ---------------------    ---------   ----------  ----------  ----------   --------
     0        -0.217243480876364    0.000e+00    0.000000    0.000000    0.000000    0.137938
     1        -0.228386443606333    4.305e-02    0.007378    0.012403    0.012403    0.149659
     2        -0.234936204325030    1.477e-02    0.009245    0.015741    0.015741    0.157062
     3        -0.235252258094499    3.996e-03    0.010236    0.017585    0.017585    0.158447
     4        -0.235210559809037    1.204e-03    0.010555    0.018220    0.018220    0.158848
     5        -0.235221567420088    3.202e-04    0.010632    0.018393    0.018393    0.158901
     6        -0.235219162798559    1.014e-04    0.010661    0.018468    0.018468    0.158896
     7        -0.235217739372506    2.795e-05    0.010667    0.018489    0.018489    0.158894
     8        -0.235218147996907    8.926e-06    0.010669    0.018496    0.018496    0.158894
     9        -0.235218160267629    2.539e-06    0.010670    0.018498    0.018498    0.158894
    10        -0.235218105422572    8.291e-07    0.010670    0.018498    0.018498    0.158894
    11        -0.235218120086931    2.690e-07    0.010670    0.018498    0.018498    0.158894
    12        -0.235218123431669    8.008e-08    0.010670    0.018498    0.018498    0.158894

    Iterations converged.


    Largest TIA Amplitudes:
              2 226         0.0109494640
              2 230         0.0092870302
              1   9        -0.0077210272
              1   3         0.0076087226
              3 348        -0.0064135836
              3 351         0.0063578879
              2 227        -0.0063197519
              1  10         0.0060579078
              1  12         0.0059680873
              3 352         0.0050275906

    Largest TIjAb Amplitudes:
      1   1 226 226        -0.0210493284
      3   3 144 144        -0.0195614018
      1   1 226 230        -0.0193847531
      1   1 230 226        -0.0193847531
      3   3   9   9        -0.0193469671
      1   1  10  10        -0.0185662728
      2   2 226 226        -0.0185290308
      1   1 230 230        -0.0183198285
      2   2 226 230        -0.0175400097
      2   2 230 226        -0.0175400097

    SCF energy       (wfn)                    = -398.720253767418342
    Reference energy (file100)                = -398.720253767417432

    Opposite-spin MP2 correlation energy      =   -0.175547304705572
    Same-spin MP2 correlation energy          =   -0.041696176170791
    Singles MP2 correlation energy            =   -0.000000000000000
    MP2 correlation energy                    =   -0.217243480876364
      * MP2 total energy                      = -398.937497248293823

    Opposite-spin CCSD correlation energy     =   -0.194334435978972
    Same-spin CCSD correlation energy         =   -0.040883687452621
    Singles CCSD correlation energy           =    0.000000000000000
    CCSD correlation energy                   =   -0.235218123431669
      * CCSD total energy                     = -398.955471890849083

            **************************
            *                        *
            *        CCTRIPLES       *
            *                        *
            **************************


    Wave function   =    CCSD_T
    Reference wfn   =      RHF

    Nuclear Rep. energy (wfn)                =   12.973516396534798
    SCF energy          (wfn)                = -398.720253767418342
    Reference energy    (file100)            = -398.720253767417432
    CCSD energy         (file100)            =   -0.235218123431669
    Total CCSD energy   (file100)            = -398.955471890849083

    Number of ijk index combinations:               20
    Memory available in words        :     31250000000
    ~Words needed per explicit thread:        11453152
    Number of threads for explicit ijk threading:   48

    (T) energy                                =   -0.010059504542232
      * CCSD(T) total energy                  = -398.965531395391338


    Psi4 stopped on: Monday, 25 January 2021 11:11PM
    Psi4 wall time for execution: 0:57:34.34

*** Psi4 exiting successfully. Buy a developer a beer!
