
    -----------------------------------------------------------------------
          Psi4: An Open-Source Ab Initio Electronic Structure Package
                               Psi4 1.2a1.dev939 

                         Git: Rev {HEAD} fa1ec19 dirty


    R. M. Parrish, L. A. Burns, D. G. A. Smith, A. C. Simmonett,
    A. E. DePrince III, E. G. Hohenstein, U. Bozkaya, A. Yu. Sokolov,
    R. Di Remigio, R. M. Richard, J. F. Gonthier, A. M. James,
    H. R. McAlexander, A. Kumar, M. Saitow, X. Wang, B. P. Pritchard,
    P. Verma, H. F. Schaefer III, K. Patkowski, R. A. King, E. F. Valeev,
    F. A. Evangelista, J. M. Turney, T. D. Crawford, and C. D. Sherrill,
    J. Chem. Theory Comput. 13(7) pp 3185--3197 (2017).
    (doi: 10.1021/acs.jctc.7b00174)

    -----------------------------------------------------------------------


    Psi4 started on: Monday, 02 November 2020 11:34AM

    Process ID: 356426
    PSIDATADIR: /home/fs71337/airmler/src/psi4_uhf/build/stage/usr/local/psi4/share/psi4
    Memory:     500.0 MiB
    Threads:    48
    
  ==> Input File <==

--------------------------------------------------------------------------
# Any line starting with the # character is a comment line
memory 250000 mb
molecule molecule{
-1 4
Si          0.0000000000        0.0000000000        0.0000000000
}

set {
  reference uhf
  basis aug-cc-pv(6+d)z
  scf_type OUT_OF_CORE
  freeze_core true
}

energy('ccsd')
--------------------------------------------------------------------------

  Memory set to 232.831 GiB by Python driver.

*** tstart() called on n412-071.vsc4.prov
*** at Mon Nov  2 11:34:47 2020

   => Loading Basis Set <=

    Name: AUG-CC-PV(6+D)Z
    Role: ORBITAL
    Keyword: BASIS
    atoms 1 entry SI         line   886 file /home/fs71337/airmler/src/psi4_uhf/build/stage/usr/local/psi4/share/psi4/basis/aug-cc-pv_6pd_z.gbs 


         ---------------------------------------------------------
                                   SCF
            by Justin Turney, Rob Parrish, Andy Simmonett
                             and Daniel Smith
                              UHF Reference
                       48 Threads, 238418 MiB Core
         ---------------------------------------------------------

  ==> Geometry <==

    Molecular point group: d2h
    Geometry (in Angstrom), charge = -1, multiplicity = 4:

       Center              X                  Y                   Z               Mass       
    ------------   -----------------  -----------------  -----------------  -----------------
          SI          0.000000000000     0.000000000000     0.000000000000    27.976926532460

  Running in d2h symmetry.

  Rotational constants: A = ************  B = ************  C = ************ [cm^-1]
  Rotational constants: A = ************  B = ************  C = ************ [MHz]
  Nuclear repulsion =    0.000000000000000

  Charge       = -1
  Multiplicity = 4
  Electrons    = 15
  Nalpha       = 9
  Nbeta        = 6

  ==> Algorithm <==

  SCF Algorithm Type is OUT_OF_CORE.
  DIIS enabled.
  MOM disabled.
  Fractional occupation disabled.
  Guess Type is GWH.
  Energy threshold   = 1.00e-08
  Density threshold  = 1.00e-08
  Integral threshold = 0.00e+00

  ==> Primary Basis <==

  Basis Set: AUG-CC-PV(6+D)Z
    Blend: AUG-CC-PV(6+D)Z
    Number of shells: 38
    Number of basis function: 198
    Number of Cartesian functions: 304
    Spherical Harmonics?: true
    Max angular momentum: 6

  ==> Pre-Iterations <==

   -------------------------------------------------------
    Irrep   Nso     Nmo     Nalpha   Nbeta   Ndocc  Nsocc
   -------------------------------------------------------
     Ag        43      43       0       0       0       0
     B1g       21      21       0       0       0       0
     B2g       21      21       0       0       0       0
     B3g       21      21       0       0       0       0
     Au        11      11       0       0       0       0
     B1u       27      27       0       0       0       0
     B2u       27      27       0       0       0       0
     B3u       27      27       0       0       0       0
   -------------------------------------------------------
    Total     198     198       9       6       6       3
   -------------------------------------------------------

  ==> Integral Setup <==

  ==> DiskJK: Disk-Based J/K Matrices <==

    J tasked:                  Yes
    K tasked:                  Yes
    wK tasked:                  No
    Memory (MB):            178813
    Schwarz Cutoff:          1E-12

  Minimum eigenvalue in the overlap matrix is 2.3991154682E-05.
  Using Symmetric Orthogonalization.

  SCF Guess: Generalized Wolfsberg-Helmholtz.

  ==> Iterations <==

                        Total Energy        Delta E     RMS |[F,P]|

    Occupation by irrep:
             Ag   B1g   B2g   B3g    Au   B1u   B2u   B3u 
    DOCC [     2,    0,    0,    0,    0,    1,    1,    2 ]
    SOCC [     1,    0,    0,    0,    0,    1,    1,    0 ]

   @UHF iter   1:  -274.20373577314092   -2.74204e+02   2.49176e-01 
    Occupation by irrep:
             Ag   B1g   B2g   B3g    Au   B1u   B2u   B3u 
    DOCC [     3,    0,    0,    0,    0,    1,    1,    1 ]
    SOCC [     0,    0,    0,    0,    0,    1,    1,    1 ]

   @UHF iter   2:  -285.49442851463925   -1.12907e+01   9.98471e-02 DIIS
   @UHF iter   3:  -288.74212251487359   -3.24769e+00   1.73130e-02 DIIS
   @UHF iter   4:  -288.87851097650622   -1.36388e-01   2.34760e-03 DIIS
   @UHF iter   5:  -288.88870976157614   -1.01988e-02   1.11575e-03 DIIS
   @UHF iter   6:  -288.88968667720576   -9.76916e-04   3.44371e-04 DIIS
   @UHF iter   7:  -288.88998924429063   -3.02567e-04   1.38090e-04 DIIS
   @UHF iter   8:  -288.89003989957308   -5.06553e-05   2.06918e-05 DIIS
   @UHF iter   9:  -288.89004048560724   -5.86034e-07   1.89705e-06 DIIS
   @UHF iter  10:  -288.89004049513164   -9.52440e-09   5.44203e-07 DIIS
   @UHF iter  11:  -288.89004049665812   -1.52647e-09   2.66901e-07 DIIS
   @UHF iter  12:  -288.89004049713304   -4.74927e-10   5.29540e-08 DIIS
   @UHF iter  13:  -288.89004049714697   -1.39266e-11   6.68040e-09 DIIS

  ==> Post-Iterations <==

   @Spin Contamination Metric:   7.499027185E-04
   @S^2 Expected:                3.750000000E+00
   @S^2 Observed:                3.750749903E+00
   @S   Expected:                1.500000000E+00
   @S   Observed:                1.500000000E+00

    Orbital Energies (a.u.)
    -----------------------

    Alpha Occupied:                                                       

       1Ag   -68.559116     2Ag    -5.903044     1B3u   -4.010113  
       1B1u   -4.010113     1B2u   -4.010113     3Ag    -0.400638  
       2B1u   -0.062029     2B2u   -0.062029     2B3u   -0.062029  

    Alpha Virtual:                                                        

       3B3u    0.145748     3B1u    0.145748     3B2u    0.145748  
       4Ag     0.173900     1B2g    0.238989     1B3g    0.238989  
       5Ag     0.238989     1B1g    0.238989     6Ag     0.238989  
       4B3u    0.343174     4B1u    0.343174     4B2u    0.343174  
       5B1u    0.422387     5B3u    0.422387     1Au     0.422387  
       5B2u    0.422387     6B3u    0.422387     6B1u    0.422387  
       6B2u    0.422387     7Ag     0.424304     2B3g    0.470519  
       8Ag     0.470519     2B1g    0.470519     2B2g    0.470519  
       9Ag     0.470519    10Ag     0.738006     3B2g    0.738006  
       3B1g    0.738006     3B3g    0.738006    11Ag     0.738006  
       4B2g    0.738006     4B1g    0.738006     4B3g    0.738006  
      12Ag     0.738006     7B3u    0.802785     7B1u    0.802785  
       7B2u    0.802785     8B2u    0.914207     8B1u    0.914207  
       2Au     0.914207     8B3u    0.914207     9B1u    0.914207  
       9B2u    0.914207     9B3u    0.914207    13Ag     0.914704  
       5B2g    0.914704     5B3g    0.914704     5B1g    0.914704  
      14Ag     0.914704    15Ag     1.119248    10B3u    1.529925  
      10B1u    1.529925    10B2u    1.529925     3Au     1.529925  
      11B3u    1.529925    11B1u    1.529925    11B2u    1.529925  
       4Au     1.529925    12B3u    1.529925    12B1u    1.529925  
      12B2u    1.529925    16Ag     1.612823     6B2g    1.612823  
       6B3g    1.612823     6B1g    1.612823    17Ag     1.612823  
       7B2g    1.612823     7B3g    1.612823     7B1g    1.612823  
      18Ag     1.612823    13B1u    1.799667    13B2u    1.799667  
      13B3u    1.799667    14B1u    1.799667     5Au     1.799667  
      14B3u    1.799667    14B2u    1.799667    19Ag     1.828221  
       8B3g    1.828221     8B2g    1.828221    20Ag     1.828221  
       8B1g    1.828221    15B1u    1.929929    15B3u    1.929929  
      15B2u    1.929929    21Ag     3.021202     9B2g    3.021202  
       9B1g    3.021202     9B3g    3.021202    22Ag     3.021202  
      10B2g    3.021202    10B1g    3.021202    10B3g    3.021202  
      23Ag     3.021202    11B2g    3.021202    11B1g    3.021202  
      11B3g    3.021202    24Ag     3.021202    25Ag     3.051938  
      26Ag     3.147410    12B3g    3.147410    12B2g    3.147410  
      12B1g    3.147410    27Ag     3.147410    13B3g    3.147410  
      13B2g    3.147410    13B1g    3.147410    28Ag     3.147410  
      16B1u    3.242982    16B2u    3.242982    16B3u    3.242982  
       6Au     3.242982    17B1u    3.242982    17B3u    3.242982  
      17B2u    3.242982    18B1u    3.242982     7Au     3.242982  
      18B2u    3.242982    18B3u    3.242982    19B1u    3.559604  
      19B2u    3.559604    19B3u    3.559604     8Au     3.559604  
      20B1u    3.559604    20B2u    3.559604    20B3u    3.559604  
      29Ag     3.646233    14B3g    3.646233    14B1g    3.646233  
      14B2g    3.646233    30Ag     3.646233    21B1u    5.046692  
      21B2u    5.046692    21B3u    5.046692    31Ag     6.019462  
      15B3g    6.019462    15B1g    6.019462    15B2g    6.019462  
      32Ag     6.019462    16B3g    6.019462    16B1g    6.019462  
      16B2g    6.019462    33Ag     6.019462    34Ag     6.278761  
      17B3g    6.278761    17B1g    6.278761    17B2g    6.278761  
      35Ag     6.278761    18B3g    6.278761    18B1g    6.278761  
      18B2g    6.278761    36Ag     6.278761    19B3g    6.278761  
      19B1g    6.278761    19B2g    6.278761    37Ag     6.278761  
      22B2u    6.593007    22B1u    6.593007    22B3u    6.593007  
       9Au     6.593007    23B2u    6.593007    23B1u    6.593007  
      23B3u    6.593007    10Au     6.593007    24B2u    6.593007  
      24B1u    6.593007    24B3u    6.593007    25B2u    7.189612  
      25B1u    7.189612    25B3u    7.189612    11Au     7.189612  
      26B2u    7.189612    26B1u    7.189612    26B3u    7.189612  
      38Ag     7.226257    20B3g    7.226257    20B1g    7.226257  
      20B2g    7.226257    39Ag     7.226257    40Ag     9.017664  
      41Ag    19.134566    21B3g   19.134566    21B1g   19.134566  
      42Ag    19.134566    21B2g   19.134566    27B3u   19.726995  
      27B1u   19.726995    27B2u   19.726995    43Ag   178.198605  

    Beta Occupied:                                                        

       1Ag   -68.548280     2Ag    -5.891877     1B2u   -3.986969  
       1B1u   -3.986969     1B3u   -3.986969     3Ag    -0.204113  

    Beta Virtual:                                                         

       2B3u    0.141586     2B1u    0.141586     2B2u    0.141586  
       4Ag     0.187812     5Ag     0.252550     1B2g    0.252550  
       1B1g    0.252550     6Ag     0.252550     1B3g    0.252550  
       3B3u    0.255457     3B1u    0.255457     3B2u    0.255457  
       4B3u    0.406627     4B2u    0.406627     4B1u    0.406627  
       5B3u    0.433389     5B1u    0.433389     5B2u    0.433389  
       1Au     0.433389     6B3u    0.433389     6B2u    0.433389  
       6B1u    0.433389     7Ag     0.458504     8Ag     0.536333  
       2B2g    0.536333     2B1g    0.536333     9Ag     0.536333  
       2B3g    0.536333    10Ag     0.749134     3B2g    0.749134  
       3B1g    0.749134     3B3g    0.749134    11Ag     0.749134  
       4B2g    0.749134     4B1g    0.749134    12Ag     0.749134  
       4B3g    0.749134     7B3u    0.850833     7B2u    0.850833  
       7B1u    0.850833     8B3u    0.947997     8B1u    0.947997  
       8B2u    0.947997     9B3u    0.947997     2Au     0.947997  
       9B2u    0.947997     9B1u    0.947997    13Ag     0.974671  
       5B1g    0.974671     5B2g    0.974671    14Ag     0.974671  
       5B3g    0.974671    15Ag     1.154366    10B3u    1.544592  
      10B1u    1.544592    10B2u    1.544592     3Au     1.544592  
      11B3u    1.544592    11B1u    1.544592    11B2u    1.544592  
      12B3u    1.544592     4Au     1.544592    12B2u    1.544592  
      12B1u    1.544592    16Ag     1.637161     6B2g    1.637161  
       6B1g    1.637161     6B3g    1.637161    17Ag     1.637161  
       7B1g    1.637161     7B2g    1.637161    18Ag     1.637161  
       7B3g    1.637161    13B3u    1.838075    13B2u    1.838075  
      13B1u    1.838075    14B3u    1.838075     5Au     1.838075  
      14B1u    1.838075    14B2u    1.838075    19Ag     1.855226  
       8B1g    1.855226     8B2g    1.855226     8B3g    1.855226  
      20Ag     1.855226    15B3u    1.965255    15B2u    1.965255  
      15B1u    1.965255    21Ag     3.037042     9B2g    3.037042  
       9B1g    3.037042     9B3g    3.037042    22Ag     3.037042  
      10B1g    3.037042    10B2g    3.037042    23Ag     3.037042  
      10B3g    3.037042    11B1g    3.037042    11B2g    3.037042  
      11B3g    3.037042    24Ag     3.037042    25Ag     3.075122  
      26Ag     3.173079    12B1g    3.173079    12B2g    3.173079  
      12B3g    3.173079    27Ag     3.173079    13B2g    3.173079  
      13B1g    3.173079    28Ag     3.173079    13B3g    3.173079  
      16B3u    3.263593    16B1u    3.263593    16B2u    3.263593  
      17B3u    3.263593     6Au     3.263593    17B2u    3.263593  
      17B1u    3.263593     7Au     3.263593    18B3u    3.263593  
      18B1u    3.263593    18B2u    3.263593    19B2u    3.583473  
      19B3u    3.583473    19B1u    3.583473    20B2u    3.583473  
       8Au     3.583473    20B1u    3.583473    20B3u    3.583473  
      29Ag     3.661938    14B3g    3.661938    14B1g    3.661938  
      30Ag     3.661938    14B2g    3.661938    21B2u    5.067278  
      21B1u    5.067278    21B3u    5.067278    31Ag     6.035090  
      15B3g    6.035090    15B1g    6.035090    15B2g    6.035090  
      32Ag     6.035090    16B1g    6.035090    16B3g    6.035090  
      33Ag     6.035090    16B2g    6.035090    34Ag     6.294383  
      17B3g    6.294383    17B1g    6.294383    17B2g    6.294383  
      35Ag     6.294383    18B1g    6.294383    18B3g    6.294383  
      36Ag     6.294383    18B2g    6.294383    19B3g    6.294383  
      19B1g    6.294383    37Ag     6.294383    19B2g    6.294383  
      22B2u    6.609091    22B1u    6.609091    22B3u    6.609091  
       9Au     6.609091    23B2u    6.609091    23B1u    6.609091  
      23B3u    6.609091    24B2u    6.609091    10Au     6.609091  
      24B3u    6.609091    24B1u    6.609091    25B2u    7.198049  
      25B1u    7.198049    25B3u    7.198049    11Au     7.198049  
      26B2u    7.198049    26B1u    7.198049    26B3u    7.198049  
      38Ag     7.237529    20B3g    7.237529    20B1g    7.237529  
      20B2g    7.237529    39Ag     7.237529    40Ag     9.029500  
      41Ag    19.146698    21B3g   19.146698    21B1g   19.146698  
      21B2g   19.146698    42Ag    19.146698    27B2u   19.741171  
      27B1u   19.741171    27B3u   19.741171    43Ag   178.202347  

    Final Occupation by Irrep:
             Ag   B1g   B2g   B3g    Au   B1u   B2u   B3u 
    DOCC [     3,    0,    0,    0,    0,    1,    1,    1 ]
    SOCC [     0,    0,    0,    0,    0,    1,    1,    1 ]

  Energy converged.

  @UHF Final Energy:  -288.89004049714697

   => Energetics <=

    Nuclear Repulsion Energy =              0.0000000000000000
    One-Electron Energy =                -404.0956799437275322
    Two-Electron Energy =                 115.2056394465805340
    Total Energy =                       -288.8900404971469698


  UHF NO Occupations:
  HONO-2 :    2B1u 1.0000000
  HONO-1 :    2B3u 1.0000000
  HONO-0 :    2B2u 1.0000000
  LUNO+0 :    4 Ag 0.0003650
  LUNO+1 :    3B3u 0.0000032
  LUNO+2 :    3B1u 0.0000032
  LUNO+3 :    3B2u 0.0000032



Properties will be evaluated at   0.000000,   0.000000,   0.000000 Bohr

Properties computed using the SCF density matrix

  Nuclear Dipole Moment: (a.u.)
     X:     0.0000      Y:     0.0000      Z:     0.0000

  Electronic Dipole Moment: (a.u.)
     X:     0.0000      Y:     0.0000      Z:     0.0000

  Dipole Moment: (a.u.)
     X:     0.0000      Y:     0.0000      Z:     0.0000     Total:     0.0000

  Dipole Moment: (Debye)
     X:     0.0000      Y:     0.0000      Z:     0.0000     Total:     0.0000


*** tstop() called on n412-071.vsc4.prov at Mon Nov  2 11:36:20 2020
Module time:
	user time   =     297.72 seconds =       4.96 minutes
	system time =       7.87 seconds =       0.13 minutes
	total time  =         93 seconds =       1.55 minutes
Total time:
	user time   =     297.72 seconds =       4.96 minutes
	system time =       7.87 seconds =       0.13 minutes
	total time  =         93 seconds =       1.55 minutes

*** tstart() called on n412-071.vsc4.prov
*** at Mon Nov  2 11:36:20 2020


	Wfn Parameters:
	--------------------
	Wavefunction         = CCSD
	Number of irreps     = 8
	Number of MOs        = 198
	Number of active MOs = 193
	AO-Basis             = NONE
	Semicanonical        = false
	Reference            = UHF
	Print Level          = 1

	IRREP	# MOs	# FZDC	# DOCC	# SOCC	# VIRT	# FZVR
	-----	-----	------	------	------	------	------
	 Ag	   43	    2	    1	    0	    40	    0
	 B1g	   21	    0	    0	    0	    21	    0
	 B2g	   21	    0	    0	    0	    21	    0
	 B3g	   21	    0	    0	    0	    21	    0
	 Au	   11	    0	    0	    0	    11	    0
	 B1u	   27	    1	    0	    1	    25	    0
	 B2u	   27	    1	    0	    1	    25	    0
	 B3u	   27	    1	    0	    1	    25	    0
	Transforming integrals...
	IWL integrals will be deleted.
	(OO|OO)...
	Presorting SO-basis two-electron integrals.
	Sorting File: SO Ints (nn|nn) nbuckets = 1
	Transforming the one-electron integrals and constructing Fock matrices
	Starting AA/AB first half-transformation.
	Sorting AA/AB half-transformed integrals.
	Starting BB first half-transformation.
	Sorting BB half-transformed integrals.
	First half integral transformation complete.
	Starting AA second half-transformation.
	Starting AB second half-transformation.
	Starting BB second half-transformation.
	Two-electron integral transformation complete.
	(OO|OV)...
	Starting AA second half-transformation.
	Starting AB second half-transformation.
	Starting BB second half-transformation.
	Two-electron integral transformation complete.
	(OO|VV)...
	Starting AA second half-transformation.
	Starting AB second half-transformation.
	Starting BB second half-transformation.
	Two-electron integral transformation complete.
	(OV|OO)...
	Starting AA/AB first half-transformation.
	Sorting AA/AB half-transformed integrals.
	Starting BB first half-transformation.
	Sorting BB half-transformed integrals.
	First half integral transformation complete.
	Starting AA second half-transformation.
	Starting AB second half-transformation.
	Starting BB second half-transformation.
	Two-electron integral transformation complete.
	(OV|OV)...
	Starting AA second half-transformation.
	Starting AB second half-transformation.
	Starting BB second half-transformation.
	Two-electron integral transformation complete.
	(OV|VV)...
	Starting AA second half-transformation.
	Starting AB second half-transformation.
	Starting BB second half-transformation.
	Two-electron integral transformation complete.
	(VV|OO)...
	Starting AA/AB first half-transformation.
	Sorting AA/AB half-transformed integrals.
	Starting BB first half-transformation.
	Sorting BB half-transformed integrals.
	First half integral transformation complete.
	Starting AA second half-transformation.
	Starting AB second half-transformation.
	Starting BB second half-transformation.
	Two-electron integral transformation complete.
	(VV|OV)...
	Starting AA second half-transformation.
	Starting AB second half-transformation.
	Starting BB second half-transformation.
	Two-electron integral transformation complete.
	(VV|VV)...
	Starting AA second half-transformation.
	Starting AB second half-transformation.
	Starting BB second half-transformation.
	Two-electron integral transformation complete.
	Frozen core energy     =   -285.17699733706746

	Size of irrep 0 of <AB|CD> integrals:      5.593 (MW) /     44.746 (MB)
	Size of irrep 1 of <AB|CD> integrals:      4.757 (MW) /     38.054 (MB)
	Size of irrep 2 of <AB|CD> integrals:      4.757 (MW) /     38.054 (MB)
	Size of irrep 3 of <AB|CD> integrals:      4.757 (MW) /     38.054 (MB)
	Size of irrep 4 of <AB|CD> integrals:      4.060 (MW) /     32.482 (MB)
	Size of irrep 5 of <AB|CD> integrals:      5.203 (MW) /     41.624 (MB)
	Size of irrep 6 of <AB|CD> integrals:      5.203 (MW) /     41.624 (MB)
	Size of irrep 7 of <AB|CD> integrals:      5.203 (MW) /     41.624 (MB)
	Total:                                    39.533 (MW) /    316.261 (MB)

	Size of irrep 0 of <ab|cd> integrals:      5.954 (MW) /     47.629 (MB)
	Size of irrep 1 of <ab|cd> integrals:      5.031 (MW) /     40.248 (MB)
	Size of irrep 2 of <ab|cd> integrals:      5.031 (MW) /     40.248 (MB)
	Size of irrep 3 of <ab|cd> integrals:      5.031 (MW) /     40.248 (MB)
	Size of irrep 4 of <ab|cd> integrals:      4.318 (MW) /     34.545 (MB)
	Size of irrep 5 of <ab|cd> integrals:      5.584 (MW) /     44.670 (MB)
	Size of irrep 6 of <ab|cd> integrals:      5.584 (MW) /     44.670 (MB)
	Size of irrep 7 of <ab|cd> integrals:      5.584 (MW) /     44.670 (MB)
	Total:                                    42.116 (MW) /    336.929 (MB)

	Size of irrep 0 of <Ab|Cd> integrals:     24.940 (MW) /    199.520 (MB)
	Size of irrep 1 of <Ab|Cd> integrals:     19.563 (MW) /    156.503 (MB)
	Size of irrep 2 of <Ab|Cd> integrals:     19.563 (MW) /    156.503 (MB)
	Size of irrep 3 of <Ab|Cd> integrals:     19.563 (MW) /    156.503 (MB)
	Size of irrep 4 of <Ab|Cd> integrals:     16.753 (MW) /    134.021 (MB)
	Size of irrep 5 of <Ab|Cd> integrals:     21.567 (MW) /    172.534 (MB)
	Size of irrep 6 of <Ab|Cd> integrals:     21.567 (MW) /    172.534 (MB)
	Size of irrep 7 of <Ab|Cd> integrals:     21.567 (MW) /    172.534 (MB)
	Total:                                   165.082 (MW) /   1320.653 (MB)

	Size of irrep 0 of <IA|BC> integrals:      0.566 (MW) /      4.525 (MB)
	Size of irrep 1 of <IA|BC> integrals:      0.358 (MW) /      2.861 (MB)
	Size of irrep 2 of <IA|BC> integrals:      0.358 (MW) /      2.861 (MB)
	Size of irrep 3 of <IA|BC> integrals:      0.358 (MW) /      2.861 (MB)
	Size of irrep 4 of <IA|BC> integrals:      0.298 (MW) /      2.386 (MB)
	Size of irrep 5 of <IA|BC> integrals:      0.488 (MW) /      3.905 (MB)
	Size of irrep 6 of <IA|BC> integrals:      0.488 (MW) /      3.905 (MB)
	Size of irrep 7 of <IA|BC> integrals:      0.488 (MW) /      3.905 (MB)
	Total:                                     3.401 (MW) /     27.211 (MB)

	Size of irrep 0 of <ia|bc> integrals:      0.203 (MW) /      1.623 (MB)
	Size of irrep 1 of <ia|bc> integrals:      0.094 (MW) /      0.754 (MB)
	Size of irrep 2 of <ia|bc> integrals:      0.094 (MW) /      0.754 (MB)
	Size of irrep 3 of <ia|bc> integrals:      0.094 (MW) /      0.754 (MB)
	Size of irrep 4 of <ia|bc> integrals:      0.046 (MW) /      0.366 (MB)
	Size of irrep 5 of <ia|bc> integrals:      0.123 (MW) /      0.983 (MB)
	Size of irrep 6 of <ia|bc> integrals:      0.123 (MW) /      0.983 (MB)
	Size of irrep 7 of <ia|bc> integrals:      0.123 (MW) /      0.983 (MB)
	Total:                                     0.900 (MW) /      7.199 (MB)

	Size of irrep 0 of <Ia|Bc> integrals:      0.589 (MW) /      4.714 (MB)
	Size of irrep 1 of <Ia|Bc> integrals:      0.372 (MW) /      2.972 (MB)
	Size of irrep 2 of <Ia|Bc> integrals:      0.372 (MW) /      2.972 (MB)
	Size of irrep 3 of <Ia|Bc> integrals:      0.372 (MW) /      2.972 (MB)
	Size of irrep 4 of <Ia|Bc> integrals:      0.303 (MW) /      2.423 (MB)
	Size of irrep 5 of <Ia|Bc> integrals:      0.502 (MW) /      4.012 (MB)
	Size of irrep 6 of <Ia|Bc> integrals:      0.502 (MW) /      4.012 (MB)
	Size of irrep 7 of <Ia|Bc> integrals:      0.502 (MW) /      4.012 (MB)
	Total:                                     3.511 (MW) /     28.091 (MB)

	Size of irrep 0 of <iA|bC> integrals:      0.200 (MW) /      1.598 (MB)
	Size of irrep 1 of <iA|bC> integrals:      0.093 (MW) /      0.743 (MB)
	Size of irrep 2 of <iA|bC> integrals:      0.093 (MW) /      0.743 (MB)
	Size of irrep 3 of <iA|bC> integrals:      0.093 (MW) /      0.743 (MB)
	Size of irrep 4 of <iA|bC> integrals:      0.045 (MW) /      0.360 (MB)
	Size of irrep 5 of <iA|bC> integrals:      0.116 (MW) /      0.929 (MB)
	Size of irrep 6 of <iA|bC> integrals:      0.116 (MW) /      0.929 (MB)
	Size of irrep 7 of <iA|bC> integrals:      0.116 (MW) /      0.929 (MB)
	Total:                                     0.872 (MW) /      6.974 (MB)

	Size of irrep 0 of tIjAb amplitudes:       0.005 (MW) /      0.040 (MB)
	Size of irrep 1 of tIjAb amplitudes:       0.000 (MW) /      0.000 (MB)
	Size of irrep 2 of tIjAb amplitudes:       0.000 (MW) /      0.000 (MB)
	Size of irrep 3 of tIjAb amplitudes:       0.000 (MW) /      0.000 (MB)
	Size of irrep 4 of tIjAb amplitudes:       0.000 (MW) /      0.000 (MB)
	Size of irrep 5 of tIjAb amplitudes:       0.005 (MW) /      0.037 (MB)
	Size of irrep 6 of tIjAb amplitudes:       0.005 (MW) /      0.037 (MB)
	Size of irrep 7 of tIjAb amplitudes:       0.005 (MW) /      0.037 (MB)
	Total:                                     0.019 (MW) /      0.151 (MB)

	Nuclear Rep. energy          =      0.00000000000000
	SCF energy                   =   -288.89004049714697
	One-electron energy          =     -6.63524855219342
	Two-electron (AA) energy     =      1.54553406254669
	Two-electron (BB) energy     =      0.00000000000000
	Two-electron (AB) energy     =      1.37667132956710
	Two-electron energy          =      2.92220539211379
	Reference energy             =   -288.89004049714708

*** tstop() called on n412-071.vsc4.prov at Mon Nov  2 11:37:36 2020
Module time:
	user time   =      20.19 seconds =       0.34 minutes
	system time =      12.58 seconds =       0.21 minutes
	total time  =         76 seconds =       1.27 minutes
Total time:
	user time   =     317.91 seconds =       5.30 minutes
	system time =      20.45 seconds =       0.34 minutes
	total time  =        169 seconds =       2.82 minutes

*** tstart() called on n412-071.vsc4.prov
*** at Mon Nov  2 11:37:36 2020

            **************************
            *                        *
            *        CCENERGY        *
            *                        *
            **************************

    Nuclear Rep. energy (wfn)     =    0.000000000000000
    SCF energy          (wfn)     = -288.890040497146970
    Reference energy    (file100) = -288.890040497147083

    Input parameters:
    -----------------
    Wave function   =     CCSD
    Reference wfn   =     UHF
    Brueckner       =     No
    Memory (Mbytes) =     250000.0
    Maxiter         =     50
    R_Convergence   =     1.0e-07
    E_Convergence   =     1.0e-06
    Restart         =     Yes
    DIIS            =     Yes
    AO Basis        =     NONE
    ABCD            =     NEW
    Cache Level     =     2
    Cache Type      =     LRU
    Print Level     =     1
    Num. of threads =     48
    # Amps to Print =     10
    Print MP2 Amps? =     No
    Analyze T2 Amps =     No
    Print Pair Ener =     No
    Local CC        =     No
    SCS-MP2         =     False
    SCSN-MP2        =     False
    SCS-CCSD        =     False

MP2 correlation energy -0.0837092968736848
                Solving CC Amplitude Equations
                ------------------------------
  Iter             Energy              RMS        T1Diag      D1Diag    New D1Diag    D2Diag
  ----     ---------------------    ---------   ----------  ----------  ----------   --------
     0        -0.083709296873686    0.000e+00    0.000000    0.000000    0.000000    0.000000
     1        -0.091971070486973    4.754e-02    0.008731    0.000000    0.000000    0.000000
     2        -0.095694949430346    1.549e-02    0.011142    0.000000    0.000000    0.000000
     3        -0.095806870441307    3.402e-03    0.011589    0.000000    0.000000    0.000000
     4        -0.095859804504547    1.559e-03    0.011587    0.000000    0.000000    0.000000
     5        -0.095869210703408    6.020e-04    0.011568    0.000000    0.000000    0.000000
     6        -0.095865536679211    1.653e-04    0.011578    0.000000    0.000000    0.000000
     7        -0.095867826645722    4.877e-05    0.011585    0.000000    0.000000    0.000000
     8        -0.095868022496446    1.133e-05    0.011586    0.000000    0.000000    0.000000
     9        -0.095867854383421    4.052e-06    0.011587    0.000000    0.000000    0.000000
    10        -0.095867888856372    1.127e-06    0.011587    0.000000    0.000000    0.000000
    11        -0.095867895570856    4.349e-07    0.011587    0.000000    0.000000    0.000000
    12        -0.095867903737280    1.514e-07    0.011587    0.000000    0.000000    0.000000
    13        -0.095867901856366    5.417e-08    0.011587    0.000000    0.000000    0.000000
    13        -0.095867901856366    5.417e-08    0.011587    0.000000    0.000000    0.000000

    Iterations converged.


    CCSD corr. energy   =   -0.095867901856366
    PPL corr. energy    =    0.036146844630118
    OS PPL corr. energy =    0.029011934005383
    SS PPL corr. energy =    0.007134910624735
    Largest TIA Amplitudes:
              0   3         0.0128205630
              0   0        -0.0090259137
              3 168        -0.0077529493
              1 118        -0.0077528644
              2 143        -0.0077527663
              3 165         0.0076564348
              1 115         0.0076561238
              2 140         0.0076557800
              0  11        -0.0059909013
              2 139         0.0021864119

    Largest Tia Amplitudes:
              0  21         0.0016907032
              0   0         0.0015846067
              0  11        -0.0015357707
              0   3        -0.0009035458
              0  36        -0.0002987642
              0  39        -0.0000004916
              0   9         0.0000000417
              0   5        -0.0000000351
              0  10        -0.0000000284
              0   4         0.0000000260

    Largest TIJAB Amplitudes:
      2   1  83   4        -0.0452725044
      3   1  62   5        -0.0431249187
      3   2  41   5        -0.0352893674
      2   1 140 115        -0.0337600908
      3   2 165 140        -0.0337600745
      3   1 165 115        -0.0337600564
      3   2  41   4         0.0294220373
      3   2  41   2         0.0260445194
      2   1  82   4        -0.0258205603
      3   1  61   5        -0.0245956977

    Largest TIjAb Amplitudes:
      3   0   5 167        -0.0560195568
      2   0   4 141        -0.0533621566
      3   0   5 168         0.0500067860
      3   0  41 141         0.0492356271
      3   0  62 115         0.0492356232
      1   0  83 141         0.0492356216
      1   0  62 167         0.0492356194
      2   0  41 167         0.0492356164
      2   0  83 115         0.0492356147
      2   0   4 142         0.0476346122

    SCF energy       (wfn)                    = -288.890040497146970
    Reference energy (file100)                = -288.890040497147083

    Opposite-spin MP2 correlation energy      =   -0.060596373727035
    Same-spin MP2 correlation energy          =   -0.023112923146605
    MP2 correlation energy                    =   -0.083709296873685
      * MP2 total energy                      = -288.973749794020762

    Opposite-spin CCSD correlation energy     =   -0.070312631374222
    Same-spin CCSD correlation energy         =   -0.025555270389796
    CCSD correlation energy                   =   -0.095867901856366
      * CCSD total energy                     = -288.985908399003449


*** tstop() called on n412-071.vsc4.prov at Mon Nov  2 11:38:34 2020
Module time:
	user time   =    1383.67 seconds =      23.06 minutes
	system time =      28.87 seconds =       0.48 minutes
	total time  =         58 seconds =       0.97 minutes
Total time:
	user time   =    1701.58 seconds =      28.36 minutes
	system time =      49.32 seconds =       0.82 minutes
	total time  =        227 seconds =       3.78 minutes

*** Psi4 exiting successfully. Buy a developer a beer!
