
    -----------------------------------------------------------------------
          Psi4: An Open-Source Ab Initio Electronic Structure Package
                               Psi4 1.4a3.dev88 

                         Git: Rev {master} 262e345 


    D. G. A. Smith, L. A. Burns, A. C. Simmonett, R. M. Parrish,
    M. C. Schieber, R. Galvelis, P. Kraus, H. Kruse, R. Di Remigio,
    A. Alenaizan, A. M. James, S. Lehtola, J. P. Misiewicz, M. Scheurer,
    R. A. Shaw, J. B. Schriber, Y. Xie, Z. L. Glick, D. A. Sirianni,
    J. S. O'Brien, J. M. Waldrop, A. Kumar, E. G. Hohenstein,
    B. P. Pritchard, B. R. Brooks, H. F. Schaefer III, A. Yu. Sokolov,
    K. Patkowski, A. E. DePrince III, U. Bozkaya, R. A. King,
    F. A. Evangelista, J. M. Turney, T. D. Crawford, C. D. Sherrill,
    J. Chem. Phys. 152(18) 184108 (2020). https://doi.org/10.1063/5.0006002

                            Additional Code Authors
    E. T. Seidl, C. L. Janssen, E. F. Valeev, M. L. Leininger,
    J. F. Gonthier, R. M. Richard, H. R. McAlexander, M. Saitow, X. Wang,
    P. Verma, and M. H. Lechner

             Previous Authors, Complete List of Code Contributors,
                       and Citations for Specific Modules
    https://github.com/psi4/psi4/blob/master/codemeta.json
    https://github.com/psi4/psi4/graphs/contributors
    http://psicode.org/psi4manual/master/introduction.html#citing-psifour

    -----------------------------------------------------------------------


    Psi4 started on: Wednesday, 20 January 2021 09:59PM

    Process ID: 10243
    Host:       l43
    PSIDATADIR: /home/fs71337/gallo4/psi4/psi4/build/stage/share/psi4
    Memory:     500.0 MiB
    Threads:    48
    
  ==> Input File <==

--------------------------------------------------------------------------
# Any line starting with the # character is a comment line
memory 250000 mb
molecule molecule{
0 1
Si         0.0000000000        0.0000000000        0.0702843423
H          0.0000000000       -1.0886337295       -0.9792105160
H          0.0000000000        1.0886337295       -0.9792105160
}

set {
  reference rhf
  basis aug-cc-pV(Q+d)Z
  scf_type OUT_OF_CORE
  freeze_core true
}

energy('ccsd(t)')
--------------------------------------------------------------------------

  Memory set to 232.831 GiB by Python driver.

Scratch directory: /tmp/

*** tstart() called on l43
*** at Wed Jan 20 21:59:48 2021

   => Loading Basis Set <=

    Name: AUG-CC-PV(Q+D)Z
    Role: ORBITAL
    Keyword: BASIS
    atoms 1   entry SI         line   968 file /home/fs71337/gallo4/psi4/psi4/build/stage/share/psi4/basis/aug-cc-pv_qpd_z.gbs 
    atoms 2-3 entry H          line    68 file /home/fs71337/gallo4/psi4/psi4/build/stage/share/psi4/basis/aug-cc-pv_qpd_z.gbs 


         ---------------------------------------------------------
                                   SCF
               by Justin Turney, Rob Parrish, Andy Simmonett
                          and Daniel G. A. Smith
                              RHF Reference
                       48 Threads, 238418 MiB Core
         ---------------------------------------------------------

  ==> Geometry <==

    Molecular point group: c2v
    Full point group: C2v

    Geometry (in Angstrom), charge = 0, multiplicity = 1:

       Center              X                  Y                   Z               Mass       
    ------------   -----------------  -----------------  -----------------  -----------------
         SI          -0.000000000000     0.000000000000     0.070531265355    27.976926534650
         H            0.000000000000    -1.088633729500    -0.978963592945     1.007825032230
         H           -0.000000000000     1.088633729500    -0.978963592945     1.007825032230

  Running in c2v symmetry.

  Rotational constants: A =      8.14019  B =      7.05696  C =      3.77999 [cm^-1]
  Rotational constants: A = 244036.73529  B = 211562.40259  C = 113321.10565 [MHz]
  Nuclear repulsion =   10.041726875196726

  Charge       = 0
  Multiplicity = 1
  Electrons    = 16
  Nalpha       = 8
  Nbeta        = 8

  ==> Algorithm <==

  SCF Algorithm Type is OUT_OF_CORE.
  DIIS enabled.
  MOM disabled.
  Fractional occupation disabled.
  Guess Type is SAD.
  Energy threshold   = 1.00e-08
  Density threshold  = 1.00e-08
  Integral threshold = 1.00e-12

  ==> Primary Basis <==

  Basis Set: AUG-CC-PV(Q+D)Z
    Blend: AUG-CC-PV(Q+D)Z
    Number of shells: 51
    Number of basis function: 181
    Number of Cartesian functions: 225
    Spherical Harmonics?: true
    Max angular momentum: 4

  ==> Integral Setup <==

  ==> DiskJK: Disk-Based J/K Matrices <==

    J tasked:                  Yes
    K tasked:                  Yes
    wK tasked:                  No
    Memory [MiB]:           178813
    Schwarz Cutoff:          1E-12

  Minimum eigenvalue in the overlap matrix is 5.6396319854E-05.
  Reciprocal condition number of the overlap matrix is 8.6263177502E-06.
    Using symmetric orthogonalization.

  ==> Pre-Iterations <==

  SCF Guess: Superposition of Atomic Densities via on-the-fly atomic UHF (no occupation information).


 WARNING: Atomic UHF is not converging! Try casting from a smaller basis or call Rob at CCMST.

 WARNING: Atomic UHF is not converging! Try casting from a smaller basis or call Rob at CCMST.
   -------------------------
    Irrep   Nso     Nmo    
   -------------------------
     A1        65      65 
     A2        28      28 
     B1        37      37 
     B2        51      51 
   -------------------------
    Total     181     181
   -------------------------

  ==> Iterations <==

                        Total Energy        Delta E     RMS |[F,P]|

   @RHF iter SAD:  -286.23063894117291   -2.86231e+02   0.00000e+00 
   @RHF iter   1:  -289.96452201265743   -3.73388e+00   3.12897e-03 DIIS
   @RHF iter   2:  -290.03214472961798   -6.76227e-02   7.33945e-04 DIIS
   @RHF iter   3:  -290.03431127735922   -2.16655e-03   1.67527e-04 DIIS
   @RHF iter   4:  -290.03475091994181   -4.39643e-04   4.46142e-05 DIIS
   @RHF iter   5:  -290.03479387448618   -4.29545e-05   8.11062e-06 DIIS
   @RHF iter   6:  -290.03479530599282   -1.43151e-06   1.13580e-06 DIIS
   @RHF iter   7:  -290.03479532537125   -1.93784e-08   1.62633e-07 DIIS
   @RHF iter   8:  -290.03479532576688   -3.95630e-10   3.53771e-08 DIIS
   @RHF iter   9:  -290.03479532579479   -2.79101e-11   7.92492e-09 DIIS
  Energy and wave function converged.


  ==> Post-Iterations <==

    Orbital Energies [Eh]
    ---------------------

    Doubly Occupied:                                                      

       1A1   -68.798047     2A1    -6.143976     1B1    -4.247423  
       1B2    -4.245448     3A1    -4.244649     4A1    -0.675602  
       2B2    -0.460351     5A1    -0.338402  

    Virtual:                                                              

       2B1    -0.002897     6A1     0.028780     3B2     0.043744  
       7A1     0.047948     3B1     0.064147     4B2     0.065058  
       8A1     0.105236     9A1     0.108976     1A2     0.112327  
       4B1     0.114154     5B2     0.128172    10A1     0.128643  
      11A1     0.188245     6B2     0.194046     7B2     0.217188  
      12A1     0.230699     5B1     0.254247     2A2     0.254746  
      13A1     0.255291     8B2     0.285881     6B1     0.297547  
      14A1     0.323010     7B1     0.328790     9B2     0.330354  
       3A2     0.334217    15A1     0.334461     8B1     0.336226  
      16A1     0.378660    10B2     0.393837    17A1     0.410065  
      11B2     0.421754     9B1     0.441513     4A2     0.446514  
      18A1     0.466780    19A1     0.486834    12B2     0.491616  
      20A1     0.621403    13B2     0.658166     5A2     0.696384  
      14B2     0.696737    10B1     0.720266    21A1     0.734935  
      11B1     0.764500    22A1     0.777588    15B2     0.782123  
      23A1     0.809286     6A2     0.813643     7A2     0.840382  
      12B1     0.846539    24A1     0.881790    16B2     0.890892  
      25A1     0.906819    17B2     0.932212    13B1     0.991853  
      14B1     1.006491    26A1     1.013665     8A2     1.028883  
      15B1     1.036619    18B2     1.040573    27A1     1.071910  
      19B2     1.101700    28A1     1.113301     9A2     1.149241  
      29A1     1.158652    16B1     1.177215    30A1     1.179462  
      20B2     1.193680    10A2     1.212721    17B1     1.248795  
      21B2     1.249180    31A1     1.278451    22B2     1.462116  
      11A2     1.499762    18B1     1.514746    32A1     1.521175  
      23B2     1.569374    33A1     1.613512    24B2     1.668795  
      19B1     1.677208    34A1     1.682419    35A1     1.767067  
      25B2     1.838923    12A2     1.881884    20B1     1.913840  
      36A1     1.935612    13A2     1.964031    26B2     1.964971  
      37A1     2.049780    21B1     2.085147    27B2     2.089635  
      28B2     2.139183    38A1     2.148048    39A1     2.156372  
      14A2     2.204516    22B1     2.233540    15A2     2.271619  
      29B2     2.307969    40A1     2.315953    23B1     2.396203  
      41A1     2.403472    30B2     2.420628    24B1     2.428099  
      16A2     2.431032    17A2     2.468088    31B2     2.471298  
      42A1     2.496642    43A1     2.555440    25B1     2.606690  
      32B2     2.640585    44A1     2.675069    26B1     2.678560  
      18A2     2.687845    45A1     2.734459    33B2     2.753320  
      34B2     2.815250    46A1     2.898918    19A2     2.996642  
      35B2     3.033053    27B1     3.123536    47A1     3.135490  
      48A1     3.283084    28B1     3.327980    20A2     3.343655  
      36B2     3.485288    29B1     3.486622    49A1     3.522145  
      37B2     3.570842    21A2     3.862894    50A1     3.922000  
      38B2     3.940622    51A1     4.015382    39B2     4.056782  
      30B1     5.898907    22A2     6.116742    52A1     6.145122  
      31B1     6.164957    53A1     6.223234    40B2     6.497906  
      32B1     6.652314    41B2     6.674246    54A1     6.721014  
      23A2     6.723067    42B2     6.788862    24A2     6.873725  
      33B1     6.956673    55A1     6.996134    56A1     7.063884  
      43B2     7.065765    34B1     7.085522    25A2     7.128140  
      57A1     7.333551    44B2     7.512722    58A1     7.803168  
      45B2     7.929536    59A1     8.038481    46B2     8.215678  
      26A2     8.546257    35B1     8.566521    60A1     8.568499  
      27A2     8.579326    47B2     8.607832    36B1     8.667481  
      61A1     8.708646    48B2     8.725420    62A1     9.115054  
      28A2     9.165827    37B1     9.238303    49B2     9.241595  
      63A1     9.428800    64A1     9.570535    50B2     9.605597  
      51B2    11.101257    65A1    13.310343  

    Final Occupation by Irrep:
             A1    A2    B1    B2 
    DOCC [     5,    0,    1,    2 ]

  @RHF Final Energy:  -290.03479532579479

   => Energetics <=

    Nuclear Repulsion Energy =             10.0417268751967264
    One-Electron Energy =                -421.8452472471346368
    Two-Electron Energy =                 121.7687250461431461
    Total Energy =                       -290.0347953257947893

Computation Completed


Properties will be evaluated at   0.000000,   0.000000,   0.000000 [a0]

Properties computed using the SCF density matrix

  Nuclear Dipole Moment: [e a0]
     X:     0.0000      Y:     0.0000      Z:    -1.8340

  Electronic Dipole Moment: [e a0]
     X:     0.0000      Y:     0.0000      Z:     1.7149

  Dipole Moment: [e a0]
     X:     0.0000      Y:     0.0000      Z:    -0.1190     Total:     0.1190

  Dipole Moment: [D]
     X:     0.0000      Y:     0.0000      Z:    -0.3025     Total:     0.3025


*** tstop() called on l43 at Wed Jan 20 22:00:13 2021
Module time:
	user time   =      26.20 seconds =       0.44 minutes
	system time =       6.87 seconds =       0.11 minutes
	total time  =         25 seconds =       0.42 minutes
Total time:
	user time   =      26.20 seconds =       0.44 minutes
	system time =       6.87 seconds =       0.11 minutes
	total time  =         25 seconds =       0.42 minutes

*** tstart() called on l43
*** at Wed Jan 20 22:00:13 2021


	Wfn Parameters:
	--------------------
	Wavefunction         = CCSD_T
	Number of irreps     = 4
	Number of MOs        = 181
	Number of active MOs = 176
	AO-Basis             = NONE
	Semicanonical        = false
	Reference            = RHF
	Print Level          = 1

	IRREP	# MOs	# FZDC	# DOCC	# SOCC	# VIRT	# FZVR
	-----	-----	------	------	------	------	------
	 A1	   65	    3	    2	    0	    60	    0
	 A2	   28	    0	    0	    0	    28	    0
	 B1	   37	    1	    0	    0	    36	    0
	 B2	   51	    1	    1	    0	    49	    0
	Transforming integrals...
	IWL integrals will be deleted.
	(OO|OO)...
	Presorting SO-basis two-electron integrals.
	Sorting File: SO Ints (nn|nn) nbuckets = 1
	Constructing frozen core operators
	Starting first half-transformation.
	Sorting half-transformed integrals.
	First half integral transformation complete.
	Starting second half-transformation.
	Two-electron integral transformation complete.
	(OO|OV)...
	Starting second half-transformation.
	Two-electron integral transformation complete.
	(OO|VV)...
	Starting second half-transformation.
	Two-electron integral transformation complete.
	(OV|OO)...
	Starting first half-transformation.
	Sorting half-transformed integrals.
	First half integral transformation complete.
	Starting second half-transformation.
	Two-electron integral transformation complete.
	(OV|OV)...
	Starting second half-transformation.
	Two-electron integral transformation complete.
	(OV|VV)...
	Starting second half-transformation.
	Two-electron integral transformation complete.
	(VV|OO)...
	Starting first half-transformation.
	Sorting half-transformed integrals.
	First half integral transformation complete.
	Starting second half-transformation.
	Two-electron integral transformation complete.
	(VV|OV)...
	Starting second half-transformation.
	Two-electron integral transformation complete.
	(VV|VV)...
	Starting second half-transformation.
	Two-electron integral transformation complete.
	Frozen core energy     =   -292.17601277056474

	Size of irrep 0 of <ab|cd> integrals:     65.303 (MW) /    522.420 (MB)
	Size of irrep 1 of <ab|cd> integrals:     47.445 (MW) /    379.556 (MB)
	Size of irrep 2 of <ab|cd> integrals:     49.900 (MW) /    399.201 (MB)
	Size of irrep 3 of <ab|cd> integrals:     62.347 (MW) /    498.775 (MB)
	Total:                                   224.994 (MW) /   1799.952 (MB)

	Size of irrep 0 of <ia|bc> integrals:      1.366 (MW) /     10.926 (MB)
	Size of irrep 1 of <ia|bc> integrals:      0.634 (MW) /      5.070 (MB)
	Size of irrep 2 of <ia|bc> integrals:      0.706 (MW) /      5.651 (MB)
	Size of irrep 3 of <ia|bc> integrals:      1.248 (MW) /      9.981 (MB)
	Total:                                     3.953 (MW) /     31.627 (MB)

	Size of irrep 0 of tijab amplitudes:       0.040 (MW) /      0.323 (MB)
	Size of irrep 1 of tijab amplitudes:       0.000 (MW) /      0.000 (MB)
	Size of irrep 2 of tijab amplitudes:       0.000 (MW) /      0.000 (MB)
	Size of irrep 3 of tijab amplitudes:       0.032 (MW) /      0.253 (MB)
	Total:                                     0.072 (MW) /      0.576 (MB)

	Nuclear Rep. energy          =     10.04172687519673
	SCF energy                   =   -290.03479532579479
	One-electron energy          =    -12.85230709280182
	Two-electron energy          =      4.95179766237344
	Reference energy             =   -290.03479532579638

*** tstop() called on l43 at Wed Jan 20 22:00:35 2021
Module time:
	user time   =      14.25 seconds =       0.24 minutes
	system time =       7.37 seconds =       0.12 minutes
	total time  =         22 seconds =       0.37 minutes
Total time:
	user time   =      40.46 seconds =       0.67 minutes
	system time =      14.24 seconds =       0.24 minutes
	total time  =         47 seconds =       0.78 minutes
            **************************
            *                        *
            *        CCENERGY        *
            *                        *
            **************************

    Nuclear Rep. energy (wfn)     =   10.041726875196726
    SCF energy          (wfn)     = -290.034795325794789
    Reference energy    (file100) = -290.034795325796381

    Input parameters:
    -----------------
    Wave function   =     CCSD_T
    Reference wfn   =     RHF
    Brueckner       =     No
    Memory (Mbytes) =     250000.0
    Maxiter         =     50
    R_Convergence   =     1.0e-07
    E_Convergence   =     1.0e-06
    Restart         =     Yes
    DIIS            =     Yes
    AO Basis        =     NONE
    ABCD            =     NEW
    Cache Level     =     2
    Cache Type      =     LOW
    Print Level     =     1
    Num. of threads =     48
    # Amps to Print =     10
    Print MP2 Amps? =     No
    Analyze T2 Amps =     No
    Print Pair Ener =     No
    Local CC        =     No
    SCS-MP2         =     False
    SCSN-MP2        =     False
    SCS-CCSD        =     False

MP2 correlation energy -0.1178072093871148
                Solving CC Amplitude Equations
                ------------------------------
  Iter             Energy              RMS        T1Diag      D1Diag    New D1Diag    D2Diag
  ----     ---------------------    ---------   ----------  ----------  ----------   --------
     0        -0.117807209387115    0.000e+00    0.000000    0.000000    0.000000    0.151105
     1        -0.133781966829621    5.763e-02    0.007466    0.013615    0.013615    0.186779
     2        -0.142169005061873    2.613e-02    0.012138    0.022267    0.022267    0.215012
     3        -0.142480889832940    8.258e-03    0.013764    0.025547    0.025547    0.222440
     4        -0.142574959348250    3.756e-03    0.014382    0.026988    0.026988    0.226587
     5        -0.142600372736674    1.248e-03    0.014451    0.027273    0.027273    0.227478
     6        -0.142587334413629    4.392e-04    0.014420    0.027280    0.027280    0.227550
     7        -0.142591696603858    1.637e-04    0.014397    0.027257    0.027257    0.227612
     8        -0.142593485002247    4.791e-05    0.014391    0.027246    0.027246    0.227633
     9        -0.142592319429492    1.681e-05    0.014387    0.027239    0.027239    0.227632
    10        -0.142592350282636    6.180e-06    0.014386    0.027236    0.027236    0.227633
    11        -0.142592407132890    1.992e-06    0.014386    0.027235    0.027235    0.227634
    12        -0.142592475882511    6.932e-07    0.014386    0.027235    0.027235    0.227634
    13        -0.142592493297378    2.114e-07    0.014386    0.027235    0.027235    0.227634
    14        -0.142592492463265    8.373e-08    0.014386    0.027235    0.027235    0.227634

    Iterations converged.


    Largest TIA Amplitudes:
              2 126         0.0128707446
              1   7        -0.0105227347
              1   5        -0.0101539216
              1   4        -0.0099126633
              0   4         0.0093864621
              2 128        -0.0091836259
              0   6         0.0084244537
              0   8        -0.0070576633
              1  13         0.0066534626
              2 130         0.0064789127

    Largest TIjAb Amplitudes:
      1   1  88  88        -0.0798361777
      1   1  88  89        -0.0411010907
      1   1  89  88        -0.0411010907
      1   1 126 126        -0.0403569733
      1   1  88  92         0.0354962252
      1   1  92  88         0.0354962252
      0   0  88  88        -0.0299913750
      0   1  88  88         0.0279449618
      1   0  88  88         0.0279449618
      1   1 126 130        -0.0267899280

    SCF energy       (wfn)                    = -290.034795325794789
    Reference energy (file100)                = -290.034795325796381

    Opposite-spin MP2 correlation energy      =   -0.105914390017156
    Same-spin MP2 correlation energy          =   -0.011892819369959
    Singles MP2 correlation energy            =   -0.000000000000000
    MP2 correlation energy                    =   -0.117807209387115
      * MP2 total energy                      = -290.152602535183519

    Opposite-spin CCSD correlation energy     =   -0.129789365944474
    Same-spin CCSD correlation energy         =   -0.012803126518796
    Singles CCSD correlation energy           =    0.000000000000000
    CCSD correlation energy                   =   -0.142592492463265
      * CCSD total energy                     = -290.177387818259660

            **************************
            *                        *
            *        CCTRIPLES       *
            *                        *
            **************************


    Wave function   =    CCSD_T
    Reference wfn   =      RHF

    Nuclear Rep. energy (wfn)                =   10.041726875196726
    SCF energy          (wfn)                = -290.034795325794789
    Reference energy    (file100)            = -290.034795325796381
    CCSD energy         (file100)            =   -0.142592492463265
    Total CCSD energy   (file100)            = -290.177387818259660

    Number of ijk index combinations:               10
    Memory available in words        :     31250000000
    ~Words needed per explicit thread:          864000
    Number of threads for explicit ijk threading:   48

    (T) energy                                =   -0.004222650532340
      * CCSD(T) total energy                  = -290.181610468791973


    Psi4 stopped on: Wednesday, 20 January 2021 10:00PM
    Psi4 wall time for execution: 0:00:57.61

*** Psi4 exiting successfully. Buy a developer a beer!
