
    -----------------------------------------------------------------------
          Psi4: An Open-Source Ab Initio Electronic Structure Package
                               Psi4 1.2a1.dev939 

                         Git: Rev {HEAD} fa1ec19 


    R. M. Parrish, L. A. Burns, D. G. A. Smith, A. C. Simmonett,
    A. E. DePrince III, E. G. Hohenstein, U. Bozkaya, A. Yu. Sokolov,
    R. Di Remigio, R. M. Richard, J. F. Gonthier, A. M. James,
    H. R. McAlexander, A. Kumar, M. Saitow, X. Wang, B. P. Pritchard,
    P. Verma, H. F. Schaefer III, K. Patkowski, R. A. King, E. F. Valeev,
    F. A. Evangelista, J. M. Turney, T. D. Crawford, and C. D. Sherrill,
    J. Chem. Theory Comput. 13(7) pp 3185--3197 (2017).
    (doi: 10.1021/acs.jctc.7b00174)

    -----------------------------------------------------------------------


    Psi4 started on: Friday, 26 April 2019 03:37PM

    Process ID:   7439
    PSIDATADIR: /home/grueneis/src/psi4/objdir/stage/usr/local/psi4/share/psi4
    Memory:     500.0 MiB
    Threads:    1
    
  ==> Input File <==

--------------------------------------------------------------------------
# Any line starting with the # character is a comment line

memory 32000 mb

molecule molecule {
-1 1
N          0.0000000000        0.0000000000        0.0812547326
H          0.0000000000        0.8002632301       -0.5645726249
H          0.0000000000       -0.8002632301       -0.5645726249
}

set {
  reference rhf
  basis aug-cc-pv(D+d)z
  scf_type OUT_OF_CORE
  freeze_core true
}

energy('ccsd')
--------------------------------------------------------------------------

  Memory set to  29.802 GiB by Python driver.

*** tstart() called on cqc01
*** at Fri Apr 26 15:37:39 2019

   => Loading Basis Set <=

    Name: AUG-CC-PV(D+D)Z
    Role: ORBITAL
    Keyword: BASIS
    atoms 1   entry N          line   234 file /home/grueneis/src/psi4/objdir/stage/usr/local/psi4/share/psi4/basis/aug-cc-pv_dpd_z.gbs 
    atoms 2-3 entry H          line    56 file /home/grueneis/src/psi4/objdir/stage/usr/local/psi4/share/psi4/basis/aug-cc-pv_dpd_z.gbs 


         ---------------------------------------------------------
                                   SCF
            by Justin Turney, Rob Parrish, Andy Simmonett
                             and Daniel Smith
                              RHF Reference
                        1 Threads,  30517 MiB Core
         ---------------------------------------------------------

  ==> Geometry <==

    Molecular point group: c2v
    Full point group: C2v

    Geometry (in Angstrom), charge = -1, multiplicity = 1:

       Center              X                  Y                   Z               Mass       
    ------------   -----------------  -----------------  -----------------  -----------------
           N          0.000000000000     0.000000000000     0.081265021419    14.003074004780
           H         -0.000000000000     0.800263230100    -0.564562336081     1.007825032070
           H          0.000000000000    -0.800263230100    -0.564562336081     1.007825032070

  Running in c2v symmetry.

  Rotational constants: A =     22.93787  B =     13.05917  C =      8.32151 [cm^-1]
  Rotational constants: A = 687659.93188  B = 391504.11746  C = 249472.44574 [MHz]
  Nuclear repulsion =    7.534831929692208

  Charge       = -1
  Multiplicity = 1
  Electrons    = 10
  Nalpha       = 5
  Nbeta        = 5

  ==> Algorithm <==

  SCF Algorithm Type is OUT_OF_CORE.
  DIIS enabled.
  MOM disabled.
  Fractional occupation disabled.
  Guess Type is SAD.
  Energy threshold   = 1.00e-08
  Density threshold  = 1.00e-08
  Integral threshold = 0.00e+00

  ==> Primary Basis <==

  Basis Set: AUG-CC-PV(D+D)Z
    Blend: AUG-CC-PV(D+D)Z
    Number of shells: 19
    Number of basis function: 41
    Number of Cartesian functions: 43
    Spherical Harmonics?: true
    Max angular momentum: 2

  ==> Pre-Iterations <==

   -------------------------------------------------------
    Irrep   Nso     Nmo     Nalpha   Nbeta   Ndocc  Nsocc
   -------------------------------------------------------
     A1        18      18       0       0       0       0
     A2         4       4       0       0       0       0
     B1         7       7       0       0       0       0
     B2        12      12       0       0       0       0
   -------------------------------------------------------
    Total      41      41       5       5       5       0
   -------------------------------------------------------

  ==> Integral Setup <==

  ==> DiskJK: Disk-Based J/K Matrices <==

    J tasked:                  Yes
    K tasked:                  Yes
    wK tasked:                  No
    Memory (MB):             22888
    Schwarz Cutoff:          1E-12

  Minimum eigenvalue in the overlap matrix is 2.4095826894E-03.
  Using Symmetric Orthogonalization.

  SCF Guess: Superposition of Atomic Densities via on-the-fly atomic UHF.

  ==> Iterations <==

                        Total Energy        Delta E     RMS |[F,P]|

   @RHF iter   0:   -59.06261159536802   -5.90626e+01   6.36645e-02 
    Occupation by irrep:
             A1    A2    B1    B2 
    DOCC [     3,    0,    1,    1 ]

   @RHF iter   1:   -54.53088763739228    4.53172e+00   4.45998e-02 
   @RHF iter   2:   -54.61835700243478   -8.74694e-02   6.08367e-02 DIIS
   @RHF iter   3:   -55.42266193624106   -8.04305e-01   1.95268e-02 DIIS
   @RHF iter   4:   -55.52901302313951   -1.06351e-01   4.02889e-03 DIIS
   @RHF iter   5:   -55.53582707766510   -6.81405e-03   4.25030e-04 DIIS
   @RHF iter   6:   -55.53590649004533   -7.94124e-05   2.21587e-04 DIIS
   @RHF iter   7:   -55.53592343789464   -1.69478e-05   1.25452e-04 DIIS
   @RHF iter   8:   -55.53592975954081   -6.32165e-06   5.38389e-05 DIIS
   @RHF iter   9:   -55.53593128796436   -1.52842e-06   8.24683e-06 DIIS
   @RHF iter  10:   -55.53593133149034   -4.35260e-08   1.17152e-06 DIIS
   @RHF iter  11:   -55.53593133207971   -5.89367e-10   1.36607e-07 DIIS
   @RHF iter  12:   -55.53593133209162   -1.19158e-11   1.39757e-08 DIIS
   @RHF iter  13:   -55.53593133209195   -3.26850e-13   1.95720e-09 DIIS

  ==> Post-Iterations <==

    Orbital Energies (a.u.)
    -----------------------

    Doubly Occupied:                                                      

       1A1   -15.234945     2A1    -0.760855     1B2    -0.289587  
       3A1    -0.140994     1B1    -0.048026  

    Virtual:                                                              

       4A1     0.184370     2B2     0.192819     5A1     0.346002  
       2B1     0.372779     3B2     0.386838     6A1     0.407251  
       4B2     0.529233     7A1     0.547158     1A2     0.607986  
       8A1     0.617674     3B1     0.660331     5B2     0.756719  
       9A1     0.857539     6B2     0.860034     7B2     0.978715  
      10A1     1.029741     4B1     1.096965    11A1     1.155571  
       2A2     1.163844    12A1     1.414179     8B2     1.500599  
       5B1     1.585473    13A1     1.609612     9B2     2.124368  
       3A2     2.156682     6B1     2.273285    14A1     2.374079  
      10B2     2.458613    15A1     2.605126    11B2     2.684552  
      16A1     2.774448     7B1     3.022708     4A2     3.086867  
      17A1     3.160438    18A1     3.498847    12B2     3.809632  

    Final Occupation by Irrep:
             A1    A2    B1    B2 
    DOCC [     3,    0,    1,    1 ]

  Energy converged.

  @RHF Final Energy:   -55.53593133209195

   => Energetics <=

    Nuclear Repulsion Energy =              7.5348319296922082
    One-Electron Energy =                 -93.1927124494483934
    Two-Electron Energy =                  30.1219491876642458
    Total Energy =                        -55.5359313320919483



Properties will be evaluated at   0.000000,   0.000000,   0.000000 Bohr

Properties computed using the SCF density matrix

  Nuclear Dipole Moment: (a.u.)
     X:     0.0000      Y:     0.0000      Z:    -1.0588

  Electronic Dipole Moment: (a.u.)
     X:     0.0000      Y:     0.0000      Z:     0.4503

  Dipole Moment: (a.u.)
     X:     0.0000      Y:     0.0000      Z:    -0.6084     Total:     0.6084

  Dipole Moment: (Debye)
     X:     0.0000      Y:     0.0000      Z:    -1.5464     Total:     1.5464


*** tstop() called on cqc01 at Fri Apr 26 15:37:40 2019
Module time:
	user time   =       0.43 seconds =       0.01 minutes
	system time =       0.34 seconds =       0.01 minutes
	total time  =          1 seconds =       0.02 minutes
Total time:
	user time   =       0.43 seconds =       0.01 minutes
	system time =       0.34 seconds =       0.01 minutes
	total time  =          1 seconds =       0.02 minutes

*** tstart() called on cqc01
*** at Fri Apr 26 15:37:40 2019


	Wfn Parameters:
	--------------------
	Wavefunction         = CCSD
	Number of irreps     = 4
	Number of MOs        = 41
	Number of active MOs = 40
	AO-Basis             = NONE
	Semicanonical        = false
	Reference            = RHF
	Print Level          = 1

	IRREP	# MOs	# FZDC	# DOCC	# SOCC	# VIRT	# FZVR
	-----	-----	------	------	------	------	------
	 A1	   18	    1	    2	    0	    15	    0
	 A2	   4	    0	    0	    0	    4	    0
	 B1	   7	    0	    1	    0	    6	    0
	 B2	   12	    0	    1	    0	    11	    0
	Transforming integrals...
	IWL integrals will be deleted.
	(OO|OO)...
	Presorting SO-basis two-electron integrals.
	Sorting File: SO Ints (nn|nn) nbuckets = 1
	Transforming the one-electron integrals and constructing Fock matrices
	Starting first half-transformation.
	Sorting half-transformed integrals.
	First half integral transformation complete.
	Starting second half-transformation.
	Two-electron integral transformation complete.
	(OO|OV)...
	Starting second half-transformation.
	Two-electron integral transformation complete.
	(OO|VV)...
	Starting second half-transformation.
	Two-electron integral transformation complete.
	(OV|OO)...
	Starting first half-transformation.
	Sorting half-transformed integrals.
	First half integral transformation complete.
	Starting second half-transformation.
	Two-electron integral transformation complete.
	(OV|OV)...
	Starting second half-transformation.
	Two-electron integral transformation complete.
	(OV|VV)...
	Starting second half-transformation.
	Two-electron integral transformation complete.
	(VV|OO)...
	Starting first half-transformation.
	Sorting half-transformed integrals.
	First half integral transformation complete.
	Starting second half-transformation.
	Two-electron integral transformation complete.
	(VV|OV)...
	Starting second half-transformation.
	Two-electron integral transformation complete.
	(VV|VV)...
	Starting second half-transformation.
	Two-electron integral transformation complete.
	Frozen core energy     =    -46.79069133132182

	Size of irrep 0 of <ab|cd> integrals:      0.158 (MW) /      1.267 (MB)
	Size of irrep 1 of <ab|cd> integrals:      0.064 (MW) /      0.508 (MB)
	Size of irrep 2 of <ab|cd> integrals:      0.072 (MW) /      0.575 (MB)
	Size of irrep 3 of <ab|cd> integrals:      0.143 (MW) /      1.143 (MB)
	Total:                                     0.437 (MW) /      3.493 (MB)

	Size of irrep 0 of <ia|bc> integrals:      0.019 (MW) /      0.150 (MB)
	Size of irrep 1 of <ia|bc> integrals:      0.006 (MW) /      0.050 (MB)
	Size of irrep 2 of <ia|bc> integrals:      0.008 (MW) /      0.066 (MB)
	Size of irrep 3 of <ia|bc> integrals:      0.015 (MW) /      0.124 (MB)
	Total:                                     0.049 (MW) /      0.390 (MB)

	Size of irrep 0 of tijab amplitudes:       0.002 (MW) /      0.019 (MB)
	Size of irrep 1 of tijab amplitudes:       0.001 (MW) /      0.004 (MB)
	Size of irrep 2 of tijab amplitudes:       0.001 (MW) /      0.009 (MB)
	Size of irrep 3 of tijab amplitudes:       0.002 (MW) /      0.012 (MB)
	Total:                                     0.005 (MW) /      0.044 (MB)

	Nuclear Rep. energy          =      7.53483192969221
	SCF energy                   =    -55.53593133209195
	One-electron energy          =    -30.08122059001085
	Two-electron energy          =     13.80114865954854
	Reference energy             =    -55.53593133209193

*** tstop() called on cqc01 at Fri Apr 26 15:37:40 2019
Module time:
	user time   =       0.05 seconds =       0.00 minutes
	system time =       0.06 seconds =       0.00 minutes
	total time  =          0 seconds =       0.00 minutes
Total time:
	user time   =       0.48 seconds =       0.01 minutes
	system time =       0.40 seconds =       0.01 minutes
	total time  =          1 seconds =       0.02 minutes

*** tstart() called on cqc01
*** at Fri Apr 26 15:37:40 2019

            **************************
            *                        *
            *        CCENERGY        *
            *                        *
            **************************

    Nuclear Rep. energy (wfn)     =    7.534831929692208
    SCF energy          (wfn)     =  -55.535931332091948
    Reference energy    (file100) =  -55.535931332091934

    Input parameters:
    -----------------
    Wave function   =     CCSD
    Reference wfn   =     RHF
    Brueckner       =     No
    Memory (Mbytes) =     32000.0
    Maxiter         =     50
    R_Convergence   =     1.0e-07
    E_Convergence   =     1.0e-06
    Restart         =     Yes
    DIIS            =     Yes
    AO Basis        =     NONE
    ABCD            =     NEW
    Cache Level     =     2
    Cache Type      =     LOW
    Print Level     =     1
    Num. of threads =     1
    # Amps to Print =     10
    Print MP2 Amps? =     No
    Analyze T2 Amps =     No
    Print Pair Ener =     No
    Local CC        =     No
    SCS-MP2         =     False
    SCSN-MP2        =     False
    SCS-CCSD        =     False

MP2 correlation energy -0.2199717697185015
                Solving CC Amplitude Equations
                ------------------------------
  Iter             Energy              RMS        T1Diag      D1Diag    New D1Diag    D2Diag
  ----     ---------------------    ---------   ----------  ----------  ----------   --------
     0        -0.219971769718501    0.000e+00    0.000000    0.000000    0.000000    0.146834
     1        -0.239799007797499    2.432e-01    0.031462    0.064062    0.064062    0.166030
     2        -0.231497722213748    5.122e-02    0.019283    0.040339    0.040339    0.165730
     3        -0.227548815279647    1.469e-02    0.020163    0.042729    0.042729    0.161105
     4        -0.227218122795567    3.800e-03    0.019450    0.041429    0.041429    0.160680
     5        -0.227152025660011    1.129e-03    0.019200    0.040971    0.040971    0.160517
     6        -0.227114368706665    3.773e-04    0.019130    0.040872    0.040872    0.160413
     7        -0.227111253391724    1.132e-04    0.019104    0.040838    0.040838    0.160380
     8        -0.227114211227242    4.306e-05    0.019095    0.040829    0.040829    0.160373
     9        -0.227114159723255    1.977e-05    0.019093    0.040828    0.040828    0.160371
    10        -0.227113536995308    7.933e-06    0.019091    0.040827    0.040827    0.160369
    11        -0.227113582199129    4.076e-06    0.019091    0.040828    0.040828    0.160370
    12        -0.227113717092666    1.851e-06    0.019091    0.040828    0.040828    0.160370
    13        -0.227113713919460    6.996e-07    0.019091    0.040828    0.040828    0.160370
    14        -0.227113725020222    2.338e-07    0.019091    0.040828    0.040828    0.160370
    15        -0.227113720006479    7.943e-08    0.019091    0.040828    0.040828    0.160370
    15        -0.227113720006479    7.943e-08    0.019091    0.040828    0.040828    0.160370

    Iterations converged.


    CCSD corr. energy   =   -0.227113720006479
    PPL corr. energy    =    0.053699435275166
    OS PPL corr. energy =    0.044821033894484
    SS PPL corr. energy =    0.008878401380682
    Largest TIA Amplitudes:
              2  19        -0.0370548625
              1   1         0.0244232882
              2  20        -0.0136303458
              1   4         0.0133891460
              2  22         0.0099285242
              3  34         0.0080318796
              1   2        -0.0068080959
              1   9         0.0065859437
              3  30         0.0059209930
              0   1        -0.0059048380

    Largest TIjAb Amplitudes:
      2   2  19  19        -0.0822704823
      2   2  19  20        -0.0396485505
      2   2  20  19        -0.0396485505
      2   2  22  22        -0.0395937639
      1   1   4   4        -0.0385683241
      3   3  27  27        -0.0362758871
      2   2  20  20        -0.0359182485
      3   3  30  30        -0.0356214956
      1   1  30  30        -0.0343987341
      1   1   9   9        -0.0317144005

    SCF energy       (wfn)                    =  -55.535931332091948
    Reference energy (file100)                =  -55.535931332091934

    Opposite-spin MP2 correlation energy      =   -0.165064707544403
    Same-spin MP2 correlation energy          =   -0.054907062174098
    MP2 correlation energy                    =   -0.219971769718502
      * MP2 total energy                      =  -55.755903101810439

    Opposite-spin CCSD correlation energy     =   -0.180532829380203
    Same-spin CCSD correlation energy         =   -0.046580890578182
    CCSD correlation energy                   =   -0.227113720006479
      * CCSD total energy                     =  -55.763045052098413


*** tstop() called on cqc01 at Fri Apr 26 15:37:44 2019
Module time:
	user time   =       0.57 seconds =       0.01 minutes
	system time =       1.59 seconds =       0.03 minutes
	total time  =          4 seconds =       0.07 minutes
Total time:
	user time   =       1.05 seconds =       0.02 minutes
	system time =       1.99 seconds =       0.03 minutes
	total time  =          5 seconds =       0.08 minutes

*** Psi4 exiting successfully. Buy a developer a beer!
