
    -----------------------------------------------------------------------
          Psi4: An Open-Source Ab Initio Electronic Structure Package
                               Psi4 1.2a1.dev939 

                         Git: Rev {HEAD} fa1ec19 dirty


    R. M. Parrish, L. A. Burns, D. G. A. Smith, A. C. Simmonett,
    A. E. DePrince III, E. G. Hohenstein, U. Bozkaya, A. Yu. Sokolov,
    R. Di Remigio, R. M. Richard, J. F. Gonthier, A. M. James,
    H. R. McAlexander, A. Kumar, M. Saitow, X. Wang, B. P. Pritchard,
    P. Verma, H. F. Schaefer III, K. Patkowski, R. A. King, E. F. Valeev,
    F. A. Evangelista, J. M. Turney, T. D. Crawford, and C. D. Sherrill,
    J. Chem. Theory Comput. 13(7) pp 3185--3197 (2017).
    (doi: 10.1021/acs.jctc.7b00174)

    -----------------------------------------------------------------------


    Psi4 started on: Tuesday, 11 August 2020 08:27PM

    Process ID: 445280
    PSIDATADIR: /home/fs71337/airmler/src/psi4new/build/stage/usr/local/psi4/share/psi4
    Memory:     500.0 MiB
    Threads:    48
    
  ==> Input File <==

--------------------------------------------------------------------------
# Any line starting with the # character is a comment line
memory 250000 mb
molecule molecule{
-1 1
N          0.0000000000        0.0000000000        0.0812547326
H          0.0000000000        0.8002632301       -0.5645726249
H          0.0000000000       -0.8002632301       -0.5645726249
}

set {
  reference rhf
  basis aug-cc-pv(6+d)z
  scf_type OUT_OF_CORE
  freeze_core true
}

energy('ccsd')
--------------------------------------------------------------------------

  Memory set to 232.831 GiB by Python driver.

*** tstart() called on n412-017.vsc4.prov
*** at Tue Aug 11 20:27:16 2020

   => Loading Basis Set <=

    Name: AUG-CC-PV(6+D)Z
    Role: ORBITAL
    Keyword: BASIS
    atoms 1   entry N          line   363 file /home/fs71337/airmler/src/psi4new/build/stage/usr/local/psi4/share/psi4/basis/aug-cc-pv_6pd_z.gbs 
    atoms 2-3 entry H          line    51 file /home/fs71337/airmler/src/psi4new/build/stage/usr/local/psi4/share/psi4/basis/aug-cc-pv_6pd_z.gbs 


         ---------------------------------------------------------
                                   SCF
            by Justin Turney, Rob Parrish, Andy Simmonett
                             and Daniel Smith
                              RHF Reference
                       48 Threads, 238418 MiB Core
         ---------------------------------------------------------

  ==> Geometry <==

    Molecular point group: c2v
    Full point group: C2v

    Geometry (in Angstrom), charge = -1, multiplicity = 1:

       Center              X                  Y                   Z               Mass       
    ------------   -----------------  -----------------  -----------------  -----------------
           N          0.000000000000     0.000000000000     0.081265021419    14.003074004780
           H         -0.000000000000     0.800263230100    -0.564562336081     1.007825032070
           H          0.000000000000    -0.800263230100    -0.564562336081     1.007825032070

  Running in c2v symmetry.

  Rotational constants: A =     22.93787  B =     13.05917  C =      8.32151 [cm^-1]
  Rotational constants: A = 687659.93188  B = 391504.11746  C = 249472.44574 [MHz]
  Nuclear repulsion =    7.534831929692207

  Charge       = -1
  Multiplicity = 1
  Electrons    = 10
  Nalpha       = 5
  Nbeta        = 5

  ==> Algorithm <==

  SCF Algorithm Type is OUT_OF_CORE.
  DIIS enabled.
  MOM disabled.
  Fractional occupation disabled.
  Guess Type is SAD.
  Energy threshold   = 1.00e-08
  Density threshold  = 1.00e-08
  Integral threshold = 0.00e+00

  ==> Primary Basis <==

  Basis Set: AUG-CC-PV(6+D)Z
    Blend: AUG-CC-PV(6+D)Z
    Number of shells: 89
    Number of basis function: 443
    Number of Cartesian functions: 658
    Spherical Harmonics?: true
    Max angular momentum: 6

  ==> Pre-Iterations <==

   -------------------------------------------------------
    Irrep   Nso     Nmo     Nalpha   Nbeta   Ndocc  Nsocc
   -------------------------------------------------------
     A1       143     143       0       0       0       0
     A2        81      81       0       0       0       0
     B1        96      96       0       0       0       0
     B2       123     123       0       0       0       0
   -------------------------------------------------------
    Total     443     443       5       5       5       0
   -------------------------------------------------------

  ==> Integral Setup <==

  ==> DiskJK: Disk-Based J/K Matrices <==

    J tasked:                  Yes
    K tasked:                  Yes
    wK tasked:                  No
    Memory (MB):            178813
    Schwarz Cutoff:          1E-12

  Minimum eigenvalue in the overlap matrix is 2.9150150595E-06.
  Using Symmetric Orthogonalization.

  SCF Guess: Superposition of Atomic Densities via on-the-fly atomic UHF.

  ==> Iterations <==

                        Total Energy        Delta E     RMS |[F,P]|

   @RHF iter   0:   -59.06831041724448   -5.90683e+01   3.20708e-02 
    Occupation by irrep:
             A1    A2    B1    B2 
    DOCC [     3,    0,    1,    1 ]

   @RHF iter   1:   -54.37937626291404    4.68893e+00   1.71461e-02 
   @RHF iter   2:   -54.52716798186879   -1.47792e-01   3.03575e-02 DIIS
   @RHF iter   3:   -55.41035948879118   -8.83192e-01   8.53084e-03 DIIS
   @RHF iter   4:   -55.54379788935314   -1.33438e-01   1.83260e-03 DIIS
   @RHF iter   5:   -55.55241361246276   -8.61572e-03   2.17280e-04 DIIS
   @RHF iter   6:   -55.55269138210603   -2.77770e-04   1.30713e-04 DIIS
   @RHF iter   7:   -55.55275723870358   -6.58566e-05   9.11509e-05 DIIS
   @RHF iter   8:   -55.55278316436137   -2.59257e-05   2.70644e-05 DIIS
   @RHF iter   9:   -55.55278657026246   -3.40590e-06   5.62196e-06 DIIS
   @RHF iter  10:   -55.55278669408316   -1.23821e-07   1.07776e-06 DIIS
   @RHF iter  11:   -55.55278669689822   -2.81506e-09   7.80689e-08 DIIS
   @RHF iter  12:   -55.55278669693048   -3.22586e-11   1.21819e-08 DIIS
   @RHF iter  13:   -55.55278669693249   -2.01084e-12   2.44949e-09 DIIS

  ==> Post-Iterations <==

    Orbital Energies (a.u.)
    -----------------------

    Doubly Occupied:                                                      

       1A1   -15.226756     2A1    -0.761851     1B2    -0.292670  
       3A1    -0.144677     1B1    -0.049979  

    Virtual:                                                              

       2B2     0.132777     4A1     0.136293     5A1     0.198737  
       2B1     0.211350     3B2     0.223564     6A1     0.263004  
       7A1     0.293096     4B2     0.293628     1A2     0.306642  
       8A1     0.321246     3B1     0.329239     5B2     0.358634  
       6B2     0.413921     9A1     0.441532     7B2     0.466258  
      10A1     0.467024     4B1     0.503059    11A1     0.504398  
       2A2     0.543899     8B2     0.555327    12A1     0.561327  
       5B1     0.579646    13A1     0.589519     3A2     0.613859  
      14A1     0.618518     6B1     0.622146     7B1     0.628405  
       9B2     0.654628    15A1     0.687519    10B2     0.693145  
       4A2     0.707980    11B2     0.734386    16A1     0.788137  
      12B2     0.806399    17A1     0.872394     8B1     0.880008  
      13B2     0.885089     5A2     0.889993    18A1     0.903883  
      19A1     0.940206    20A1     0.993144    14B2     0.997134  
       9B1     1.012385    15B2     1.024087     6A2     1.069513  
      21A1     1.078243    10B1     1.085205    22A1     1.187670  
      16B2     1.211451    11B1     1.227317     7A2     1.235885  
      23A1     1.247348    17B2     1.257451    12B1     1.274032  
      13B1     1.279861    24A1     1.318452    18B2     1.343033  
       8A2     1.343162    25A1     1.372144    26A1     1.388698  
       9A2     1.398699    19B2     1.410393    14B1     1.430633  
      20B2     1.449250    21B2     1.537145    27A1     1.538082  
      10A2     1.542577    15B1     1.547753    28A1     1.547888  
      29A1     1.583802    22B2     1.625896    23B2     1.707049  
      30A1     1.895634    16B1     1.949055    11A2     2.026375  
      17B1     2.050539    24B2     2.065185    31A1     2.077688  
      32A1     2.084598    25B2     2.089442    12A2     2.101515  
      33A1     2.129273    26B2     2.132285    18B1     2.133770  
      27B2     2.158520    19B1     2.184118    34A1     2.186531  
      13A2     2.211252    35A1     2.216275    20B1     2.256185  
      14A2     2.305594    36A1     2.313894    28B2     2.432173  
      15A2     2.480508    37A1     2.482414    21B1     2.483845  
      38A1     2.528623    22B1     2.572272    39A1     2.579640  
      29B2     2.582677    30B2     2.613166    40A1     2.628374  
      16A2     2.663654    31B2     2.683669    23B1     2.692229  
      17A2     2.724755    41A1     2.725444    32B2     2.727470  
      18A2     2.743421    24B1     2.758601    33B2     2.783444  
      42A1     2.784642    43A1     2.794656    25B1     2.804507  
      34B2     2.821890    44A1     2.851882    19A2     2.856163  
      35B2     2.876771    26B1     2.902047    45A1     2.913020  
      36B2     2.983827    20A2     3.011254    27B1     3.155567  
      46A1     3.190949    37B2     3.218146    38B2     3.405969  
      47A1     3.504079    21A2     3.530944    39B2     3.556028  
      48A1     3.621343    28B1     3.641240    29B1     3.801845  
      49A1     3.957108    50A1     4.053985    40B2     4.102238  
      30B1     4.184521    41B2     4.187818    22A2     4.204111  
      51A1     4.226166    31B1     4.258193    52A1     4.272502  
      23A2     4.321354    42B2     4.332527    32B1     4.407021  
      53A1     4.444453    43B2     4.449902    44B2     4.476682  
      24A2     4.483709    54A1     4.500204    25A2     4.543829  
      33B1     4.565146    55A1     4.587421    34B1     4.615896  
      26A2     4.624075    45B2     4.654865    56A1     4.672327  
      46B2     4.729423    35B1     4.740152    57A1     4.797787  
      36B1     4.842504    58A1     4.843611    47B2     4.854722  
      27A2     4.874244    59A1     4.923085    28A2     4.939724  
      37B1     4.960379    38B1     5.025550    60A1     5.028847  
      48B2     5.053430    49B2     5.082462    29A2     5.107572  
      61A1     5.131184    50B2     5.191229    30A2     5.220643  
      62A1     5.264643    63A1     5.294043    39B1     5.317549  
      51B2     5.357251    40B1     5.377759    31A2     5.378857  
      52B2     5.379210    53B2     5.450184    64A1     5.454532  
      41B1     5.470061    54B2     5.487001    32A2     5.512686  
      65A1     5.525646    33A2     5.527926    66A1     5.577380  
      42B1     5.588163    67A1     5.752042    55B2     5.807924  
      43B1     5.865821    56B2     5.873636    34A2     5.891730  
      57B2     5.983336    68A1     5.993435    69A1     6.134457  
      35A2     6.156210    44B1     6.172733    70A1     6.246001  
      58B2     6.300267    59B2     6.351732    71A1     6.478552  
      45B1     6.544343    72A1     6.839867    46B1     6.876679  
      36A2     6.898977    60B2     6.925645    61B2     7.111932  
      37A2     7.115553    73A1     7.162018    62B2     7.247252  
      47B1     7.290020    74A1     7.444955    75A1     7.544542  
      48B1     7.615525    38A2     7.736176    76A1     7.831765  
      49B1     7.891635    63B2     7.933594    39A2     7.973105  
      64B2     8.271876    65B2     8.326170    77A1     8.331638  
      50B1     8.453512    78A1     8.504545    40A2     8.521281  
      66B2     8.531787    51B1     8.709594    79A1     8.786991  
      67B2     8.800155    52B1     8.800240    41A2     8.800381  
      80A1     8.880877    53B1     8.927600    42A2     8.997923  
      68B2     9.020415    81A1     9.035984    69B2     9.069422  
      43A2     9.084764    54B1     9.125622    70B2     9.152272  
      44A2     9.242945    82A1     9.266655    55B1     9.335336  
      83A1     9.408044    84A1     9.520351    71B2     9.561515  
      85A1     9.740928    56B1     9.791137    72B2     9.981267  
      86A1    10.002382    73B2    10.039544    45A2    10.059407  
      87A1    10.138087    46A2    10.153690    74B2    10.175703  
      57B1    10.199531    88A1    10.317179    75B2    10.415818  
      58B1    10.435099    59B1    10.472592    47A2    10.478476  
      89A1    10.548627    90A1    10.610859    91A1    10.679607  
      60B1    10.734836    48A2    10.749558    76B2    10.752733  
      77B2    10.827017    92A1    10.843941    61B1    10.856386  
      49A2    10.945099    78B2    11.087744    93A1    11.156127  
      79B2    11.157019    50A2    11.168653    94A1    11.372896  
      62B1    11.396976    80B2    11.514385    95A1    11.567987  
      63B1    11.577902    51A2    11.604761    96A1    11.706571  
      64B1    11.927437    52A2    12.114112    81B2    12.175070  
      82B2    12.275672    97A1    12.297167    65B1    12.353500  
      98A1    12.422598    53A2    12.466767    83B2    12.726302  
      99A1    12.778903    84B2    13.082494    54A2    13.161702  
      66B1    13.288968    85B2    13.428299   100A1    13.629837  
      67B1    13.686100    86B2    13.955064    55A2    13.966071  
      87B2    14.193630    68B1    14.194819   101A1    14.238743  
      56A2    14.385787   102A1    14.431850   103A1    14.790905  
      88B2    15.285546    69B1    15.968513   104A1    16.457177  
      89B2    16.952526    57A2    16.999391    58A2    17.380797  
     105A1    17.513680    90B2    17.671964    59A2    17.773971  
     106A1    17.778511    70B1    17.821657   107A1    17.832092  
      71B1    17.931306    91B2    17.944189   108A1    17.990333  
      60A2    18.004135    92B2    18.032985    72B1    18.123644  
      93B2    18.371588    73B1    18.380958   109A1    18.401199  
      61A2    18.573092    62A2    18.795429    74B1    18.810353  
     110A1    18.826485    94B2    18.910169   111A1    18.914675  
      95B2    19.044364   112A1    19.167456    96B2    19.666526  
      63A2    19.722314    75B1    19.797018   113A1    19.966032  
      64A2    19.979810   114A1    20.026632    76B1    20.100747  
      97B2    20.242619    77B1    20.306872    98B2    20.466786  
      78B1    20.541633    99B2    20.624306   115A1    20.691609  
     116A1    20.904125    79B1    20.931572   100B2    20.963828  
      65A2    20.965214   117A1    21.046286    80B1    21.099117  
      66A2    21.103154   118A1    21.234810   101B2    21.471269  
     119A1    21.480378    81B1    21.501566   102B2    21.519393  
      67A2    21.588494    82B1    21.621029   120A1    22.020045  
     103B2    22.119822   121A1    22.156303    83B1    22.231619  
     122A1    22.299678    68A2    22.326920    84B1    22.411566  
      69A2    22.483408   104B2    22.522573   105B2    22.665740  
     106B2    22.857063    70A2    22.872948    85B1    22.878966  
     123A1    22.906104   124A1    23.224588   107B2    23.357300  
      86B1    23.383801    71A2    23.512746   125A1    23.615553  
     126A1    23.891905   108B2    24.045144    72A2    24.217523  
     127A1    24.345998   109B2    24.362861    87B1    24.369225  
     128A1    24.386665    73A2    24.587841    88B1    24.626888  
     110B2    24.641281   129A1    24.695205   111B2    24.733617  
      74A2    24.778142    89B1    24.927039   112B2    25.074894  
     130A1    25.133599    90B1    25.189823    75A2    25.269261  
     131A1    25.369882    91B1    25.443365    76A2    25.577971  
     113B2    25.625572   132A1    25.909201   114B2    26.061797  
     133A1    26.691603   115B2    26.816909    92B1    26.847848  
     134A1    27.108525    77A2    27.165110    93B1    27.730195  
     116B2    27.732309   135A1    27.889213    78A2    27.948199  
     117B2    28.314015   118B2    28.695336   136A1    28.698078  
      94B1    29.166145   137A1    29.255531    79A2    29.292083  
     138A1    29.864331   119B2    30.455496   120B2    30.924528  
      95B1    31.465772    80A2    31.699520   139A1    32.270198  
     140A1    33.155878   121B2    34.640930    96B1    37.268875  
     141A1    37.499588    81A2    37.514721   122B2    37.967291  
     142A1    40.217477   123B2    41.421990   143A1    84.890712  

    Final Occupation by Irrep:
             A1    A2    B1    B2 
    DOCC [     3,    0,    1,    1 ]

  Energy converged.

  @RHF Final Energy:   -55.55278669693249

   => Energetics <=

    Nuclear Repulsion Energy =              7.5348319296922073
    One-Electron Energy =                 -93.2233718224686356
    Two-Electron Energy =                  30.1357531958439395
    Total Energy =                        -55.5527866969324933



Properties will be evaluated at   0.000000,   0.000000,   0.000000 Bohr

Properties computed using the SCF density matrix

  Nuclear Dipole Moment: (a.u.)
     X:     0.0000      Y:     0.0000      Z:    -1.0588

  Electronic Dipole Moment: (a.u.)
     X:     0.0000      Y:     0.0000      Z:     0.4860

  Dipole Moment: (a.u.)
     X:     0.0000      Y:     0.0000      Z:    -0.5728     Total:     0.5728

  Dipole Moment: (Debye)
     X:     0.0000      Y:     0.0000      Z:    -1.4558     Total:     1.4558


*** tstop() called on n412-017.vsc4.prov at Tue Aug 11 20:45:17 2020
Module time:
	user time   =    1229.30 seconds =      20.49 minutes
	system time =     149.67 seconds =       2.49 minutes
	total time  =       1081 seconds =      18.02 minutes
Total time:
	user time   =    1229.30 seconds =      20.49 minutes
	system time =     149.67 seconds =       2.49 minutes
	total time  =       1081 seconds =      18.02 minutes

*** tstart() called on n412-017.vsc4.prov
*** at Tue Aug 11 20:45:17 2020


	Wfn Parameters:
	--------------------
	Wavefunction         = CCSD
	Number of irreps     = 4
	Number of MOs        = 443
	Number of active MOs = 442
	AO-Basis             = NONE
	Semicanonical        = false
	Reference            = RHF
	Print Level          = 1

	IRREP	# MOs	# FZDC	# DOCC	# SOCC	# VIRT	# FZVR
	-----	-----	------	------	------	------	------
	 A1	   143	    1	    2	    0	    140	    0
	 A2	   81	    0	    0	    0	    81	    0
	 B1	   96	    0	    1	    0	    95	    0
	 B2	   123	    0	    1	    0	    122	    0
	Transforming integrals...
	IWL integrals will be deleted.
	(OO|OO)...
	Presorting SO-basis two-electron integrals.
	Sorting File: SO Ints (nn|nn) nbuckets = 1
	Transforming the one-electron integrals and constructing Fock matrices
	Starting first half-transformation.
	Sorting half-transformed integrals.
	First half integral transformation complete.
	Starting second half-transformation.
	Two-electron integral transformation complete.
	(OO|OV)...
	Starting second half-transformation.
	Two-electron integral transformation complete.
	(OO|VV)...
	Starting second half-transformation.
	Two-electron integral transformation complete.
	(OV|OO)...
	Starting first half-transformation.
	Sorting half-transformed integrals.
	First half integral transformation complete.
	Starting second half-transformation.
	Two-electron integral transformation complete.
	(OV|OV)...
	Starting second half-transformation.
	Two-electron integral transformation complete.
	(OV|VV)...
	Starting second half-transformation.
	Two-electron integral transformation complete.
	(VV|OO)...
	Starting first half-transformation.
	Sorting half-transformed integrals.
	First half integral transformation complete.
	Starting second half-transformation.
	Two-electron integral transformation complete.
	(VV|OV)...
	Starting second half-transformation.
	Two-electron integral transformation complete.
	(VV|VV)...
	Starting second half-transformation.
	Two-electron integral transformation complete.
	Frozen core energy     =    -46.79211833134089

	Size of irrep 0 of <ab|cd> integrals:   2507.005 (MW) /  20056.039 (MB)
	Size of irrep 1 of <ab|cd> integrals:   2103.140 (MW) /  16825.117 (MB)
	Size of irrep 2 of <ab|cd> integrals:   2149.620 (MW) /  17196.964 (MB)
	Size of irrep 3 of <ab|cd> integrals:   2455.202 (MW) /  19641.620 (MB)
	Total:                                  9214.967 (MW) /  73719.740 (MB)

	Size of irrep 0 of <ia|bc> integrals:     24.885 (MW) /    199.078 (MB)
	Size of irrep 1 of <ia|bc> integrals:     17.381 (MW) /    139.048 (MB)
	Size of irrep 2 of <ia|bc> integrals:     19.056 (MW) /    152.445 (MB)
	Size of irrep 3 of <ia|bc> integrals:     23.041 (MW) /    184.326 (MB)
	Total:                                    84.362 (MW) /    674.897 (MB)

	Size of irrep 0 of tijab amplitudes:       0.300 (MW) /      2.403 (MB)
	Size of irrep 1 of tijab amplitudes:       0.092 (MW) /      0.734 (MB)
	Size of irrep 2 of tijab amplitudes:       0.185 (MW) /      1.484 (MB)
	Size of irrep 3 of tijab amplitudes:       0.198 (MW) /      1.586 (MB)
	Total:                                     0.776 (MW) /      6.206 (MB)

	Nuclear Rep. energy          =      7.53483192969221
	SCF energy                   =    -55.55278669693249
	One-electron energy          =    -30.09264745298415
	Two-electron energy          =     13.79714715769983
	Reference energy             =    -55.55278669693300

*** tstop() called on n412-017.vsc4.prov at Tue Aug 11 21:12:15 2020
Module time:
	user time   =    5188.18 seconds =      86.47 minutes
	system time =     346.33 seconds =       5.77 minutes
	total time  =       1618 seconds =      26.97 minutes
Total time:
	user time   =    6417.49 seconds =     106.96 minutes
	system time =     496.00 seconds =       8.27 minutes
	total time  =       2699 seconds =      44.98 minutes

*** tstart() called on n412-017.vsc4.prov
*** at Tue Aug 11 21:12:15 2020

            **************************
            *                        *
            *        CCENERGY        *
            *                        *
            **************************

    Nuclear Rep. energy (wfn)     =    7.534831929692207
    SCF energy          (wfn)     =  -55.552786696932493
    Reference energy    (file100) =  -55.552786696932998

    Input parameters:
    -----------------
    Wave function   =     CCSD
    Reference wfn   =     RHF
    Brueckner       =     No
    Memory (Mbytes) =     250000.0
    Maxiter         =     50
    R_Convergence   =     1.0e-07
    E_Convergence   =     1.0e-06
    Restart         =     Yes
    DIIS            =     Yes
    AO Basis        =     NONE
    ABCD            =     NEW
    Cache Level     =     2
    Cache Type      =     LOW
    Print Level     =     1
    Num. of threads =     48
    # Amps to Print =     10
    Print MP2 Amps? =     No
    Analyze T2 Amps =     No
    Print Pair Ener =     No
    Local CC        =     No
    SCS-MP2         =     False
    SCSN-MP2        =     False
    SCS-CCSD        =     False

MP2 correlation energy -0.2828591807092022
                Solving CC Amplitude Equations
                ------------------------------
  Iter             Energy              RMS        T1Diag      D1Diag    New D1Diag    D2Diag
  ----     ---------------------    ---------   ----------  ----------  ----------   --------
     0        -0.282859180709190    0.000e+00    0.000000    0.000000    0.000000    0.156552
     1        -0.280874730722798    2.800e-01    0.030743    0.065935    0.065935    0.161273
     2        -0.285056846503324    7.398e-02    0.017418    0.037102    0.037102    0.170105
     3        -0.281014899705680    3.068e-02    0.019659    0.044300    0.044300    0.163344
     4        -0.279465781907445    6.246e-03    0.019110    0.042972    0.042972    0.162122
     5        -0.279338651781164    2.160e-03    0.018842    0.042580    0.042580    0.161887
     6        -0.279361173213646    1.042e-03    0.018784    0.042596    0.042596    0.161785
     7        -0.279346862319898    3.439e-04    0.018761    0.042613    0.042613    0.161727
     8        -0.279335304228725    1.692e-04    0.018744    0.042631    0.042631    0.161700
     9        -0.279338596702706    7.775e-05    0.018742    0.042661    0.042661    0.161703
    10        -0.279341427781046    4.086e-05    0.018744    0.042681    0.042681    0.161710
    11        -0.279340021714651    2.020e-05    0.018747    0.042699    0.042699    0.161713
    12        -0.279339826953803    9.376e-06    0.018748    0.042706    0.042706    0.161716
    13        -0.279340291503573    4.502e-06    0.018749    0.042711    0.042711    0.161718
    14        -0.279340262918130    1.917e-06    0.018750    0.042712    0.042712    0.161718
    15        -0.279340309476672    1.060e-06    0.018750    0.042713    0.042713    0.161718
    16        -0.279340340177787    5.290e-07    0.018750    0.042713    0.042713    0.161718
    17        -0.279340340913818    2.230e-07    0.018750    0.042713    0.042713    0.161718
    18        -0.279340335090417    9.861e-08    0.018750    0.042713    0.042713    0.161718
    18        -0.279340335090417    9.861e-08    0.018750    0.042713    0.042713    0.161718

    Iterations converged.


    CCSD corr. energy   =   -0.279340335090417
    PPL corr. energy    =    0.075104939170820
    OS PPL corr. energy =    0.063891113163853
    SS PPL corr. energy =    0.011213826006966
    Largest TIA Amplitudes:
              2 221        -0.0341429839
              2 222        -0.0210462149
              1   1         0.0159856163
              1   4         0.0127586630
              1   8        -0.0078925955
              2 231         0.0078277065
              2 226        -0.0063006142
              3 333         0.0053136907
              3 326         0.0051296127
              1   3         0.0050839242

    Largest TIjAb Amplitudes:
      2   2 221 221        -0.0361117840
      2   2 221 222        -0.0258765617
      2   2 222 221        -0.0258765617
      2   2 225 225        -0.0253408347
      2   2 222 222        -0.0242120799
      2   2 221 225        -0.0241452642
      2   2 225 221        -0.0241452642
      2   2 221 223        -0.0224889483
      2   2 223 221        -0.0224889483
      2   2 223 223        -0.0218773023

    SCF energy       (wfn)                    =  -55.552786696932493
    Reference energy (file100)                =  -55.552786696932998

    Opposite-spin MP2 correlation energy      =   -0.218381068198179
    Same-spin MP2 correlation energy          =   -0.064478112511010
    MP2 correlation energy                    =   -0.282859180709202
      * MP2 total energy                      =  -55.835645877642200

    Opposite-spin CCSD correlation energy     =   -0.224438765762338
    Same-spin CCSD correlation energy         =   -0.054901565214404
    CCSD correlation energy                   =   -0.279340335090417
      * CCSD total energy                     =  -55.832127032023415


*** tstop() called on n412-017.vsc4.prov at Tue Aug 11 21:35:32 2020
Module time:
	user time   =    4451.00 seconds =      74.18 minutes
	system time =     485.24 seconds =       8.09 minutes
	total time  =       1397 seconds =      23.28 minutes
Total time:
	user time   =   10868.49 seconds =     181.14 minutes
	system time =     981.24 seconds =      16.35 minutes
	total time  =       4096 seconds =      68.27 minutes

*** Psi4 exiting successfully. Buy a developer a beer!
