
    -----------------------------------------------------------------------
          Psi4: An Open-Source Ab Initio Electronic Structure Package
                               Psi4 1.2a1.dev938 

                         Git: Rev {HEAD} fc51d9a dirty


    R. M. Parrish, L. A. Burns, D. G. A. Smith, A. C. Simmonett,
    A. E. DePrince III, E. G. Hohenstein, U. Bozkaya, A. Yu. Sokolov,
    R. Di Remigio, R. M. Richard, J. F. Gonthier, A. M. James,
    H. R. McAlexander, A. Kumar, M. Saitow, X. Wang, B. P. Pritchard,
    P. Verma, H. F. Schaefer III, K. Patkowski, R. A. King, E. F. Valeev,
    F. A. Evangelista, J. M. Turney, T. D. Crawford, and C. D. Sherrill,
    J. Chem. Theory Comput. 13(7) pp 3185--3197 (2017).
    (doi: 10.1021/acs.jctc.7b00174)

    -----------------------------------------------------------------------


    Psi4 started on: Thursday, 20 August 2020 07:56PM

    Process ID: 423011
    PSIDATADIR: /home/irmler/Programs/psi4/beforeGrueneis3/stage/usr/local/psi4/share/psi4
    Memory:     500.0 MiB
    Threads:    4
    
  ==> Input File <==

--------------------------------------------------------------------------
# Any line starting with the # character is a comment line
memory 250000 mb
molecule molecule{
-1 2
S          0.0000000000        0.0000000000        0.0000000000
}

set {
  reference uhf
  basis aug-cc-pv(d+d)z
  scf_type OUT_OF_CORE
  freeze_core true
}

energy('ccsd')
--------------------------------------------------------------------------

  Memory set to 232.831 GiB by Python driver.

*** tstart() called on cqc05
*** at Thu Aug 20 19:56:15 2020

   => Loading Basis Set <=

    Name: AUG-CC-PV(D+D)Z
    Role: ORBITAL
    Keyword: BASIS
    atoms 1 entry S          line   724 file /home/irmler/Programs/psi4/beforeGrueneis3/stage/usr/local/psi4/share/psi4/basis/aug-cc-pv_dpd_z.gbs 


         ---------------------------------------------------------
                                   SCF
            by Justin Turney, Rob Parrish, Andy Simmonett
                             and Daniel Smith
                              UHF Reference
                        4 Threads, 238418 MiB Core
         ---------------------------------------------------------

  ==> Geometry <==

    Molecular point group: d2h
    Geometry (in Angstrom), charge = -1, multiplicity = 2:

       Center              X                  Y                   Z               Mass       
    ------------   -----------------  -----------------  -----------------  -----------------
           S          0.000000000000     0.000000000000     0.000000000000    31.972070999000

  Running in d2h symmetry.

  Rotational constants: A = ************  B = ************  C = ************ [cm^-1]
  Rotational constants: A = ************  B = ************  C = ************ [MHz]
  Nuclear repulsion =    0.000000000000000

  Charge       = -1
  Multiplicity = 2
  Electrons    = 17
  Nalpha       = 9
  Nbeta        = 8

  ==> Algorithm <==

  SCF Algorithm Type is OUT_OF_CORE.
  DIIS enabled.
  MOM disabled.
  Fractional occupation disabled.
  Guess Type is GWH.
  Energy threshold   = 1.00e-08
  Density threshold  = 1.00e-08
  Integral threshold = 0.00e+00

  ==> Primary Basis <==

  Basis Set: AUG-CC-PV(D+D)Z
    Blend: AUG-CC-PV(D+D)Z
    Number of shells: 12
    Number of basis function: 32
    Number of Cartesian functions: 35
    Spherical Harmonics?: true
    Max angular momentum: 2

  ==> Pre-Iterations <==

   -------------------------------------------------------
    Irrep   Nso     Nmo     Nalpha   Nbeta   Ndocc  Nsocc
   -------------------------------------------------------
     Ag        11      11       0       0       0       0
     B1g        3       3       0       0       0       0
     B2g        3       3       0       0       0       0
     B3g        3       3       0       0       0       0
     Au         0       0       0       0       0       0
     B1u        4       4       0       0       0       0
     B2u        4       4       0       0       0       0
     B3u        4       4       0       0       0       0
   -------------------------------------------------------
    Total      32      32       9       8       8       1
   -------------------------------------------------------

  ==> Integral Setup <==

  ==> DiskJK: Disk-Based J/K Matrices <==

    J tasked:                  Yes
    K tasked:                  Yes
    wK tasked:                  No
    Memory (MB):            178813
    Schwarz Cutoff:          1E-12

  Minimum eigenvalue in the overlap matrix is 4.6684866848E-02.
  Using Symmetric Orthogonalization.

  SCF Guess: Generalized Wolfsberg-Helmholtz.

  ==> Iterations <==

                        Total Energy        Delta E     RMS |[F,P]|

    Occupation by irrep:
             Ag   B1g   B2g   B3g    Au   B1u   B2u   B3u 
    DOCC [     3,    0,    0,    0,    0,    1,    2,    2 ]
    SOCC [     0,    0,    0,    0,    0,    1,    0,    0 ]

   @UHF iter   1:  -375.29291966032764   -3.75293e+02   5.71857e-01 
   @UHF iter   2:  -392.10024070286818   -1.68073e+01   2.59106e-01 DIIS
   @UHF iter   3:  -397.14460013004901   -5.04436e+00   6.65156e-02 DIIS
   @UHF iter   4:  -397.52698845628589   -3.82388e-01   1.19603e-02 DIIS
   @UHF iter   5:  -397.53153781399709   -4.54936e-03   3.85957e-03 DIIS
   @UHF iter   6:  -397.53273311704527   -1.19530e-03   3.93071e-04 DIIS
   @UHF iter   7:  -397.53275207418312   -1.89571e-05   9.93279e-05 DIIS
   @UHF iter   8:  -397.53275385787720   -1.78369e-06   2.06898e-05 DIIS
   @UHF iter   9:  -397.53275400095140   -1.43074e-07   5.63300e-06 DIIS
   @UHF iter  10:  -397.53275401011177   -9.16037e-09   1.72974e-06 DIIS
   @UHF iter  11:  -397.53275401152206   -1.41029e-09   6.20119e-07 DIIS
   @UHF iter  12:  -397.53275401173352   -2.11458e-10   1.18203e-07 DIIS
   @UHF iter  13:  -397.53275401174091   -7.38964e-12   5.56491e-08 DIIS
   @UHF iter  14:  -397.53275401174244   -1.53477e-12   1.08924e-08 DIIS
   @UHF iter  15:  -397.53275401174250   -5.68434e-14   2.03632e-09 DIIS

  ==> Post-Iterations <==

   @Spin Contamination Metric:   1.094085765E-02
   @S^2 Expected:                7.500000000E-01
   @S^2 Observed:                7.609408576E-01
   @S   Expected:                5.000000000E-01
   @S   Observed:                5.000000000E-01

    Orbital Energies (a.u.)
    -----------------------

    Alpha Occupied:                                                       

       1Ag   -91.684954     2Ag    -8.683120     1B1u   -6.378365  
       1B2u   -6.359992     1B3u   -6.359992     3Ag    -0.635672  
       2B1u   -0.172041     2B2u   -0.106929     2B3u   -0.106929  

    Alpha Virtual:                                                        

       3B1u    0.282879     3B2u    0.297653     3B3u    0.297653  
       4Ag     0.311591     5Ag     0.592873     1B3g    0.601020  
       1B2g    0.601020     1B1g    0.627563     6Ag     0.627563  
       4B1u    1.038224     4B2u    1.080614     4B3u    1.080614  
       7Ag     1.174701     8Ag     1.312408     2B3g    1.322254  
       2B2g    1.322254     2B1g    1.359010     9Ag     1.359010  
      10Ag     5.313609     3B3g    5.320717     3B2g    5.320717  
       3B1g    5.342105    11Ag     5.342105  

    Beta Occupied:                                                        

       1Ag   -91.676792     2Ag    -8.674330     1B3u   -6.354568  
       1B2u   -6.354568     1B1u   -6.342887     3Ag    -0.530526  
       2B3u   -0.083430     2B2u   -0.083430  

    Beta Virtual:                                                         

       2B1u    0.225903     3B3u    0.300802     3B2u    0.300802  
       4Ag     0.318586     3B1u    0.357716     1B1g    0.630385  
       5Ag     0.630385     1B3g    0.645019     1B2g    0.645019  
       6Ag     0.651384     4B3u    1.091284     4B2u    1.091284  
       4B1u    1.120102     7Ag     1.198929     2B1g    1.366800  
       8Ag     1.366800     2B2g    1.373490     2B3g    1.373490  
       9Ag     1.376600    10Ag     5.324926     3B2g    5.329662  
       3B3g    5.329662     3B1g    5.343845    11Ag     5.343845  

    Final Occupation by Irrep:
             Ag   B1g   B2g   B3g    Au   B1u   B2u   B3u 
    DOCC [     3,    0,    0,    0,    0,    1,    2,    2 ]
    SOCC [     0,    0,    0,    0,    0,    1,    0,    0 ]

  Energy converged.

  @UHF Final Energy:  -397.53275401174250

   => Energetics <=

    Nuclear Repulsion Energy =              0.0000000000000000
    One-Electron Energy =                -554.4769832124876530
    Two-Electron Energy =                 156.9442292007451556
    Total Energy =                       -397.5327540117424974


  UHF NO Occupations:
  HONO-2 :    2B2u 1.9993281
  HONO-1 :    3 Ag 1.9958652
  HONO-0 :    2B1u 1.0000000
  LUNO+0 :    4 Ag 0.0041348
  LUNO+1 :    3B2u 0.0006719
  LUNO+2 :    3B3u 0.0006719
  LUNO+3 :    3B1u 0.0000007



Properties will be evaluated at   0.000000,   0.000000,   0.000000 Bohr

Properties computed using the SCF density matrix

  Nuclear Dipole Moment: (a.u.)
     X:     0.0000      Y:     0.0000      Z:     0.0000

  Electronic Dipole Moment: (a.u.)
     X:     0.0000      Y:     0.0000      Z:     0.0000

  Dipole Moment: (a.u.)
     X:     0.0000      Y:     0.0000      Z:     0.0000     Total:     0.0000

  Dipole Moment: (Debye)
     X:     0.0000      Y:     0.0000      Z:     0.0000     Total:     0.0000


*** tstop() called on cqc05 at Thu Aug 20 19:56:15 2020
Module time:
	user time   =       0.30 seconds =       0.01 minutes
	system time =       0.02 seconds =       0.00 minutes
	total time  =          0 seconds =       0.00 minutes
Total time:
	user time   =       0.30 seconds =       0.01 minutes
	system time =       0.02 seconds =       0.00 minutes
	total time  =          0 seconds =       0.00 minutes

*** tstart() called on cqc05
*** at Thu Aug 20 19:56:15 2020


	Wfn Parameters:
	--------------------
	Wavefunction         = CCSD
	Number of irreps     = 8
	Number of MOs        = 32
	Number of active MOs = 27
	AO-Basis             = NONE
	Semicanonical        = false
	Reference            = UHF
	Print Level          = 1

	IRREP	# MOs	# FZDC	# DOCC	# SOCC	# VIRT	# FZVR
	-----	-----	------	------	------	------	------
	 Ag	   11	    2	    1	    0	    8	    0
	 B1g	   3	    0	    0	    0	    3	    0
	 B2g	   3	    0	    0	    0	    3	    0
	 B3g	   3	    0	    0	    0	    3	    0
	 Au	   0	    0	    0	    0	    0	    0
	 B1u	   4	    1	    0	    1	    2	    0
	 B2u	   4	    1	    1	    0	    2	    0
	 B3u	   4	    1	    1	    0	    2	    0
	Transforming integrals...
	IWL integrals will be deleted.
	(OO|OO)...
	Presorting SO-basis two-electron integrals.
	Sorting File: SO Ints (nn|nn) nbuckets = 1
	Transforming the one-electron integrals and constructing Fock matrices
	Starting AA/AB first half-transformation.
	Sorting AA/AB half-transformed integrals.
	Starting BB first half-transformation.
	Sorting BB half-transformed integrals.
	First half integral transformation complete.
	Starting AA second half-transformation.
	Starting AB second half-transformation.
	Starting BB second half-transformation.
	Two-electron integral transformation complete.
	(OO|OV)...
	Starting AA second half-transformation.
	Starting AB second half-transformation.
	Starting BB second half-transformation.
	Two-electron integral transformation complete.
	(OO|VV)...
	Starting AA second half-transformation.
	Starting AB second half-transformation.
	Starting BB second half-transformation.
	Two-electron integral transformation complete.
	(OV|OO)...
	Starting AA/AB first half-transformation.
	Sorting AA/AB half-transformed integrals.
	Starting BB first half-transformation.
	Sorting BB half-transformed integrals.
	First half integral transformation complete.
	Starting AA second half-transformation.
	Starting AB second half-transformation.
	Starting BB second half-transformation.
	Two-electron integral transformation complete.
	(OV|OV)...
	Starting AA second half-transformation.
	Starting AB second half-transformation.
	Starting BB second half-transformation.
	Two-electron integral transformation complete.
	(OV|VV)...
	Starting AA second half-transformation.
	Starting AB second half-transformation.
	Starting BB second half-transformation.
	Two-electron integral transformation complete.
	(VV|OO)...
	Starting AA/AB first half-transformation.
	Sorting AA/AB half-transformed integrals.
	Starting BB first half-transformation.
	Sorting BB half-transformed integrals.
	First half integral transformation complete.
	Starting AA second half-transformation.
	Starting AB second half-transformation.
	Starting BB second half-transformation.
	Two-electron integral transformation complete.
	(VV|OV)...
	Starting AA second half-transformation.
	Starting AB second half-transformation.
	Starting BB second half-transformation.
	Two-electron integral transformation complete.
	(VV|VV)...
	Starting AA second half-transformation.
	Starting AB second half-transformation.
	Starting BB second half-transformation.
	Two-electron integral transformation complete.
	Frozen core energy     =   -387.54536200853852

	Size of irrep 0 of <AB|CD> integrals:      0.002 (MW) /      0.013 (MB)
	Size of irrep 1 of <AB|CD> integrals:      0.001 (MW) /      0.011 (MB)
	Size of irrep 2 of <AB|CD> integrals:      0.001 (MW) /      0.011 (MB)
	Size of irrep 3 of <AB|CD> integrals:      0.001 (MW) /      0.011 (MB)
	Size of irrep 4 of <AB|CD> integrals:      0.000 (MW) /      0.003 (MB)
	Size of irrep 5 of <AB|CD> integrals:      0.001 (MW) /      0.006 (MB)
	Size of irrep 6 of <AB|CD> integrals:      0.001 (MW) /      0.006 (MB)
	Size of irrep 7 of <AB|CD> integrals:      0.001 (MW) /      0.006 (MB)
	Total:                                     0.008 (MW) /      0.067 (MB)

	Size of irrep 0 of <ab|cd> integrals:      0.002 (MW) /      0.014 (MB)
	Size of irrep 1 of <ab|cd> integrals:      0.001 (MW) /      0.011 (MB)
	Size of irrep 2 of <ab|cd> integrals:      0.002 (MW) /      0.012 (MB)
	Size of irrep 3 of <ab|cd> integrals:      0.002 (MW) /      0.012 (MB)
	Size of irrep 4 of <ab|cd> integrals:      0.000 (MW) /      0.004 (MB)
	Size of irrep 5 of <ab|cd> integrals:      0.001 (MW) /      0.010 (MB)
	Size of irrep 6 of <ab|cd> integrals:      0.001 (MW) /      0.008 (MB)
	Size of irrep 7 of <ab|cd> integrals:      0.001 (MW) /      0.008 (MB)
	Total:                                     0.010 (MW) /      0.079 (MB)

	Size of irrep 0 of <Ab|Cd> integrals:      0.011 (MW) /      0.088 (MB)
	Size of irrep 1 of <Ab|Cd> integrals:      0.005 (MW) /      0.044 (MB)
	Size of irrep 2 of <Ab|Cd> integrals:      0.006 (MW) /      0.046 (MB)
	Size of irrep 3 of <Ab|Cd> integrals:      0.006 (MW) /      0.046 (MB)
	Size of irrep 4 of <Ab|Cd> integrals:      0.002 (MW) /      0.012 (MB)
	Size of irrep 5 of <Ab|Cd> integrals:      0.004 (MW) /      0.033 (MB)
	Size of irrep 6 of <Ab|Cd> integrals:      0.003 (MW) /      0.028 (MB)
	Size of irrep 7 of <Ab|Cd> integrals:      0.003 (MW) /      0.028 (MB)
	Total:                                     0.041 (MW) /      0.325 (MB)

	Size of irrep 0 of <IA|BC> integrals:      0.001 (MW) /      0.012 (MB)
	Size of irrep 1 of <IA|BC> integrals:      0.001 (MW) /      0.004 (MB)
	Size of irrep 2 of <IA|BC> integrals:      0.001 (MW) /      0.004 (MB)
	Size of irrep 3 of <IA|BC> integrals:      0.001 (MW) /      0.004 (MB)
	Size of irrep 4 of <IA|BC> integrals:      0.000 (MW) /      0.003 (MB)
	Size of irrep 5 of <IA|BC> integrals:      0.001 (MW) /      0.007 (MB)
	Size of irrep 6 of <IA|BC> integrals:      0.001 (MW) /      0.007 (MB)
	Size of irrep 7 of <IA|BC> integrals:      0.001 (MW) /      0.007 (MB)
	Total:                                     0.006 (MW) /      0.048 (MB)

	Size of irrep 0 of <ia|bc> integrals:      0.001 (MW) /      0.010 (MB)
	Size of irrep 1 of <ia|bc> integrals:      0.001 (MW) /      0.004 (MB)
	Size of irrep 2 of <ia|bc> integrals:      0.000 (MW) /      0.004 (MB)
	Size of irrep 3 of <ia|bc> integrals:      0.000 (MW) /      0.004 (MB)
	Size of irrep 4 of <ia|bc> integrals:      0.000 (MW) /      0.002 (MB)
	Size of irrep 5 of <ia|bc> integrals:      0.001 (MW) /      0.005 (MB)
	Size of irrep 6 of <ia|bc> integrals:      0.001 (MW) /      0.006 (MB)
	Size of irrep 7 of <ia|bc> integrals:      0.001 (MW) /      0.006 (MB)
	Total:                                     0.005 (MW) /      0.042 (MB)

	Size of irrep 0 of <Ia|Bc> integrals:      0.002 (MW) /      0.013 (MB)
	Size of irrep 1 of <Ia|Bc> integrals:      0.001 (MW) /      0.004 (MB)
	Size of irrep 2 of <Ia|Bc> integrals:      0.001 (MW) /      0.005 (MB)
	Size of irrep 3 of <Ia|Bc> integrals:      0.001 (MW) /      0.005 (MB)
	Size of irrep 4 of <Ia|Bc> integrals:      0.000 (MW) /      0.003 (MB)
	Size of irrep 5 of <Ia|Bc> integrals:      0.001 (MW) /      0.009 (MB)
	Size of irrep 6 of <Ia|Bc> integrals:      0.001 (MW) /      0.008 (MB)
	Size of irrep 7 of <Ia|Bc> integrals:      0.001 (MW) /      0.008 (MB)
	Total:                                     0.007 (MW) /      0.053 (MB)

	Size of irrep 0 of <iA|bC> integrals:      0.001 (MW) /      0.010 (MB)
	Size of irrep 1 of <iA|bC> integrals:      0.001 (MW) /      0.004 (MB)
	Size of irrep 2 of <iA|bC> integrals:      0.000 (MW) /      0.003 (MB)
	Size of irrep 3 of <iA|bC> integrals:      0.000 (MW) /      0.003 (MB)
	Size of irrep 4 of <iA|bC> integrals:      0.000 (MW) /      0.002 (MB)
	Size of irrep 5 of <iA|bC> integrals:      0.001 (MW) /      0.004 (MB)
	Size of irrep 6 of <iA|bC> integrals:      0.001 (MW) /      0.006 (MB)
	Size of irrep 7 of <iA|bC> integrals:      0.001 (MW) /      0.006 (MB)
	Total:                                     0.005 (MW) /      0.039 (MB)

	Size of irrep 0 of tIjAb amplitudes:       0.000 (MW) /      0.003 (MB)
	Size of irrep 1 of tIjAb amplitudes:       0.000 (MW) /      0.001 (MB)
	Size of irrep 2 of tIjAb amplitudes:       0.000 (MW) /      0.001 (MB)
	Size of irrep 3 of tIjAb amplitudes:       0.000 (MW) /      0.001 (MB)
	Size of irrep 4 of tIjAb amplitudes:       0.000 (MW) /      0.000 (MB)
	Size of irrep 5 of tIjAb amplitudes:       0.000 (MW) /      0.001 (MB)
	Size of irrep 6 of tIjAb amplitudes:       0.000 (MW) /      0.001 (MB)
	Size of irrep 7 of tIjAb amplitudes:       0.000 (MW) /      0.001 (MB)
	Total:                                     0.001 (MW) /      0.007 (MB)

	Nuclear Rep. energy          =      0.00000000000000
	SCF energy                   =   -397.53275401174250
	One-electron energy          =    -18.25582805699721
	Two-electron (AA) energy     =      2.15203004949909
	Two-electron (BB) energy     =      1.03274148979888
	Two-electron (AB) energy     =      5.08366451449496
	Two-electron energy          =      8.26843605379294
	Reference energy             =   -397.53275401174278

*** tstop() called on cqc05 at Thu Aug 20 19:56:15 2020
Module time:
	user time   =       0.05 seconds =       0.00 minutes
	system time =       0.02 seconds =       0.00 minutes
	total time  =          0 seconds =       0.00 minutes
Total time:
	user time   =       0.35 seconds =       0.01 minutes
	system time =       0.04 seconds =       0.00 minutes
	total time  =          0 seconds =       0.00 minutes

*** tstart() called on cqc05
*** at Thu Aug 20 19:56:15 2020

            **************************
            *                        *
            *        CCENERGY        *
            *                        *
            **************************

    Nuclear Rep. energy (wfn)     =    0.000000000000000
    SCF energy          (wfn)     = -397.532754011742497
    Reference energy    (file100) = -397.532754011742782

    Input parameters:
    -----------------
    Wave function   =     CCSD
    Reference wfn   =     UHF
    Brueckner       =     No
    Memory (Mbytes) =     250000.0
    Maxiter         =     50
    R_Convergence   =     1.0e-07
    E_Convergence   =     1.0e-06
    Restart         =     Yes
    DIIS            =     Yes
    AO Basis        =     NONE
    ABCD            =     NEW
    Cache Level     =     2
    Cache Type      =     LRU
    Print Level     =     1
    Num. of threads =     4
    # Amps to Print =     10
    Print MP2 Amps? =     No
    Analyze T2 Amps =     No
    Print Pair Ener =     No
    Local CC        =     No
    SCS-MP2         =     False
    SCSN-MP2        =     False
    SCS-CCSD        =     False

MP2 correlation energy -0.1242015685323405
                Solving CC Amplitude Equations
                ------------------------------
  Iter             Energy              RMS        T1Diag      D1Diag    New D1Diag    D2Diag
  ----     ---------------------    ---------   ----------  ----------  ----------   --------
     0        -0.124201568532341    0.000e+00    0.000000    0.000000    0.000000    0.000000
     1        -0.138244767773316    4.812e-02    0.010931    0.000000    0.000000    0.000000
     2        -0.142232975332268    1.693e-02    0.014859    0.000000    0.000000    0.000000
     3        -0.142920177725115    6.714e-03    0.017170    0.000000    0.000000    0.000000
     4        -0.142898308512724    2.501e-03    0.017778    0.000000    0.000000    0.000000
     5        -0.142883583524510    1.133e-03    0.017954    0.000000    0.000000    0.000000
     6        -0.142894087493505    3.833e-04    0.017906    0.000000    0.000000    0.000000
     7        -0.142896182629861    1.076e-04    0.017883    0.000000    0.000000    0.000000
     8        -0.142895840912881    3.638e-05    0.017880    0.000000    0.000000    0.000000
     9        -0.142895796859156    1.089e-05    0.017880    0.000000    0.000000    0.000000
    10        -0.142895841402416    3.013e-06    0.017881    0.000000    0.000000    0.000000
    11        -0.142895822829962    8.279e-07    0.017881    0.000000    0.000000    0.000000
    12        -0.142895799830456    2.418e-07    0.017881    0.000000    0.000000    0.000000
    13        -0.142895800319337    7.747e-08    0.017881    0.000000    0.000000    0.000000
    13        -0.142895800319337    7.747e-08    0.017881    0.000000    0.000000    0.000000

    Iterations converged.


    CCSD corr. energy   =   -0.142895800319337
    PPL corr. energy    =    0.035003726919075
    OS PPL corr. energy =    0.028455693501440
    SS PPL corr. energy =    0.006548033417635
    Largest TIA Amplitudes:
              1  17        -0.0234792190
              3  21        -0.0148857029
              2  19        -0.0148856562
              0   3        -0.0054789879
              0   1        -0.0037586158
              2  20        -0.0032724003
              3  22        -0.0032723873
              0   4        -0.0024287793
              1  18         0.0009103467
              0   0        -0.0004250574

    Largest Tia Amplitudes:
              0   2         0.0212664569
              1  20        -0.0160599978
              2  22        -0.0160599278
              0   5        -0.0116668481
              0   3        -0.0062658203
              2  23        -0.0034802677
              1  21        -0.0034802513
              0   0         0.0018103236
              0   6         0.0003084585

    Largest TIJAB Amplitudes:
      3   2   8   2         0.0441030370
      3   1  11   1         0.0357368064
      2   1  14   1         0.0357368059
      3   1  11   2         0.0224060272
      3   1  14   8         0.0224060271
      2   1  11   8         0.0224060269
      2   1  14   2        -0.0224060268
      3   2  21  19        -0.0219087799
      3   2   8   5         0.0198396899
      3   2   9   2         0.0198396899

    Largest Tijab Amplitudes:
      2   1   8   1         0.0426264831
      2   1  22  20        -0.0275295790
      2   1  14  11         0.0213214754
      1   0  18  14        -0.0182566486
      2   0  18  11        -0.0182566481
      2   1   8   4         0.0178738045
      2   1   9   1         0.0178738045
      2   1  23  21        -0.0174225848
      2   1   9   4         0.0168068843
      2   1  23  20         0.0154735785

    Largest TIjAb Amplitudes:
      2   1  19  20        -0.0489276375
      3   2  21  22        -0.0489276356
      2   1  14  14        -0.0485692727
      3   2  11  11        -0.0485692727
      1   0   1  18        -0.0474729235
      2   1   2   1        -0.0464038050
      3   2   8   8        -0.0464038050
      2   1   8   8        -0.0464038050
      3   2   2   1        -0.0464038049
      3   0  11  18         0.0413442904

    SCF energy       (wfn)                    = -397.532754011742497
    Reference energy (file100)                = -397.532754011742782

    Opposite-spin MP2 correlation energy      =   -0.092808102670299
    Same-spin MP2 correlation energy          =   -0.031393465862040
    MP2 correlation energy                    =   -0.124201568532341
      * MP2 total energy                      = -397.656955580275110

    Opposite-spin CCSD correlation energy     =   -0.112241194322682
    Same-spin CCSD correlation energy         =   -0.030654605872392
    CCSD correlation energy                   =   -0.142895800319337
      * CCSD total energy                     = -397.675649812062147


*** tstop() called on cqc05 at Thu Aug 20 19:56:17 2020
Module time:
	user time   =       0.21 seconds =       0.00 minutes
	system time =       0.15 seconds =       0.00 minutes
	total time  =          2 seconds =       0.03 minutes
Total time:
	user time   =       0.56 seconds =       0.01 minutes
	system time =       0.19 seconds =       0.00 minutes
	total time  =          2 seconds =       0.03 minutes

*** Psi4 exiting successfully. Buy a developer a beer!
