
    -----------------------------------------------------------------------
          Psi4: An Open-Source Ab Initio Electronic Structure Package
                               Psi4 1.2a1.dev938 

                         Git: Rev {HEAD} fc51d9a dirty


    R. M. Parrish, L. A. Burns, D. G. A. Smith, A. C. Simmonett,
    A. E. DePrince III, E. G. Hohenstein, U. Bozkaya, A. Yu. Sokolov,
    R. Di Remigio, R. M. Richard, J. F. Gonthier, A. M. James,
    H. R. McAlexander, A. Kumar, M. Saitow, X. Wang, B. P. Pritchard,
    P. Verma, H. F. Schaefer III, K. Patkowski, R. A. King, E. F. Valeev,
    F. A. Evangelista, J. M. Turney, T. D. Crawford, and C. D. Sherrill,
    J. Chem. Theory Comput. 13(7) pp 3185--3197 (2017).
    (doi: 10.1021/acs.jctc.7b00174)

    -----------------------------------------------------------------------


    Psi4 started on: Friday, 21 August 2020 06:47AM

    Process ID: 428045
    PSIDATADIR: /home/irmler/Programs/psi4/beforeGrueneis3/stage/usr/local/psi4/share/psi4
    Memory:     500.0 MiB
    Threads:    4
    
  ==> Input File <==

--------------------------------------------------------------------------
# Any line starting with the # character is a comment line
memory 250000 mb
molecule molecule{
-1 2
S          0.0000000000        0.0000000000        0.0000000000
}

set {
  reference uhf
  basis aug-cc-pv(5+d)z
  scf_type OUT_OF_CORE
  freeze_core true
}

energy('ccsd')
--------------------------------------------------------------------------

  Memory set to 232.831 GiB by Python driver.

*** tstart() called on cqc05
*** at Fri Aug 21 06:47:55 2020

   => Loading Basis Set <=

    Name: AUG-CC-PV(5+D)Z
    Role: ORBITAL
    Keyword: BASIS
    atoms 1 entry S          line   971 file /home/irmler/Programs/psi4/beforeGrueneis3/stage/usr/local/psi4/share/psi4/basis/aug-cc-pv_5pd_z.gbs 


         ---------------------------------------------------------
                                   SCF
            by Justin Turney, Rob Parrish, Andy Simmonett
                             and Daniel Smith
                              UHF Reference
                        4 Threads, 238418 MiB Core
         ---------------------------------------------------------

  ==> Geometry <==

    Molecular point group: d2h
    Geometry (in Angstrom), charge = -1, multiplicity = 2:

       Center              X                  Y                   Z               Mass       
    ------------   -----------------  -----------------  -----------------  -----------------
           S          0.000000000000     0.000000000000     0.000000000000    31.972070999000

  Running in d2h symmetry.

  Rotational constants: A = ************  B = ************  C = ************ [cm^-1]
  Rotational constants: A = ************  B = ************  C = ************ [MHz]
  Nuclear repulsion =    0.000000000000000

  Charge       = -1
  Multiplicity = 2
  Electrons    = 17
  Nalpha       = 9
  Nbeta        = 8

  ==> Algorithm <==

  SCF Algorithm Type is OUT_OF_CORE.
  DIIS enabled.
  MOM disabled.
  Fractional occupation disabled.
  Guess Type is GWH.
  Energy threshold   = 1.00e-08
  Density threshold  = 1.00e-08
  Integral threshold = 0.00e+00

  ==> Primary Basis <==

  Basis Set: AUG-CC-PV(5+D)Z
    Blend: AUG-CC-PV(5+D)Z
    Number of shells: 30
    Number of basis function: 136
    Number of Cartesian functions: 192
    Spherical Harmonics?: true
    Max angular momentum: 5

  ==> Pre-Iterations <==

   -------------------------------------------------------
    Irrep   Nso     Nmo     Nalpha   Nbeta   Ndocc  Nsocc
   -------------------------------------------------------
     Ag        29      29       0       0       0       0
     B1g       12      12       0       0       0       0
     B2g       12      12       0       0       0       0
     B3g       12      12       0       0       0       0
     Au         8       8       0       0       0       0
     B1u       21      21       0       0       0       0
     B2u       21      21       0       0       0       0
     B3u       21      21       0       0       0       0
   -------------------------------------------------------
    Total     136     136       9       8       8       1
   -------------------------------------------------------

  ==> Integral Setup <==

  ==> DiskJK: Disk-Based J/K Matrices <==

    J tasked:                  Yes
    K tasked:                  Yes
    wK tasked:                  No
    Memory (MB):            178813
    Schwarz Cutoff:          1E-12

  Minimum eigenvalue in the overlap matrix is 9.7491445103E-05.
  Using Symmetric Orthogonalization.

  SCF Guess: Generalized Wolfsberg-Helmholtz.

  ==> Iterations <==

                        Total Energy        Delta E     RMS |[F,P]|

    Occupation by irrep:
             Ag   B1g   B2g   B3g    Au   B1u   B2u   B3u 
    DOCC [     2,    0,    0,    0,    0,    2,    2,    2 ]
    SOCC [     1,    0,    0,    0,    0,    0,    0,    0 ]

   @UHF iter   1:  -371.69195482162155   -3.71692e+02   3.28378e-01 
    Occupation by irrep:
             Ag   B1g   B2g   B3g    Au   B1u   B2u   B3u 
    DOCC [     3,    0,    0,    0,    0,    2,    2,    1 ]
    SOCC [     0,    0,    0,    0,    0,    0,    0,    1 ]

   @UHF iter   2:  -389.55275159048432   -1.78608e+01   1.05999e-01 DIIS
   @UHF iter   3:  -396.51486185559992   -6.96211e+00   4.38143e-02 DIIS
   @UHF iter   4:  -397.50945730946108   -9.94595e-01   5.82186e-03 DIIS
   @UHF iter   5:  -397.53680032902417   -2.73430e-02   3.40181e-03 DIIS
   @UHF iter   6:  -397.54543922496140   -8.63890e-03   5.05050e-04 DIIS
   @UHF iter   7:  -397.54565215343820   -2.12928e-04   7.96594e-05 DIIS
   @UHF iter   8:  -397.54566128892026   -9.13548e-06   1.04370e-05 DIIS
   @UHF iter   9:  -397.54566151812116   -2.29201e-07   3.12893e-06 DIIS
   @UHF iter  10:  -397.54566155261432   -3.44932e-08   1.09781e-06 DIIS
   @UHF iter  11:  -397.54566155767588   -5.06157e-09   3.95517e-07 DIIS
   @UHF iter  12:  -397.54566155869315   -1.01727e-09   1.07374e-07 DIIS
   @UHF iter  13:  -397.54566155876250   -6.93490e-11   2.78356e-08 DIIS
   @UHF iter  14:  -397.54566155876574   -3.24007e-12   1.15175e-08 DIIS
   @UHF iter  15:  -397.54566155876620   -4.54747e-13   2.58277e-09 DIIS

  ==> Post-Iterations <==

   @Spin Contamination Metric:   1.404675830E-02
   @S^2 Expected:                7.500000000E-01
   @S^2 Observed:                7.640467583E-01
   @S   Expected:                5.000000000E-01
   @S   Observed:                5.000000000E-01

    Orbital Energies (a.u.)
    -----------------------

    Alpha Occupied:                                                       

       1Ag   -91.680381     2Ag    -8.679679     1B3u   -6.375014  
       1B2u   -6.357339     1B1u   -6.357339     3Ag    -0.634443  
       2B3u   -0.174002     2B2u   -0.106194     2B1u   -0.106194  

    Alpha Virtual:                                                        

       3B3u    0.209963     3B1u    0.216932     3B2u    0.216932  
       4Ag     0.249523     5Ag     0.366932     1B2g    0.369248  
       1B1g    0.369248     6Ag     0.377925     1B3g    0.377925  
       4B3u    0.543216     4B2u    0.567660     4B1u    0.567660  
       5B3u    0.654672     5B1u    0.656201     5B2u    0.656201  
       6B3u    0.660767     1Au     0.660767     7Ag     0.666578  
       6B1u    0.669286     6B2u    0.669286     8Ag     0.721341  
       2B1g    0.729276     2B2g    0.729276     9Ag     0.759056  
       2B3g    0.759056    10Ag     1.303328     3B2g    1.304878  
       3B1g    1.304878     3B3g    1.309515    11Ag     1.309515  
       4B2g    1.317265     4B1g    1.317265    12Ag     1.328413  
       4B3g    1.328413    13Ag     1.423412     7B3u    1.424780  
       7B2u    1.431027     7B1u    1.431027     5B1g    1.432506  
       5B2g    1.432506     8B3u    1.443788     2Au     1.443788  
       9B3u    1.463818     8B1u    1.463826     8B2u    1.463826  
      14Ag     1.463953     5B3g    1.463953     9B2u    1.502061  
       9B1u    1.502061    15Ag     1.911861    10B3u    2.852348  
      10B2u    2.857674    10B1u    2.857674     3Au     2.873809  
      11B3u    2.873809    11B1u    2.901417    11B2u    2.901417  
      16Ag     2.959032     6B1g    2.962358     6B2g    2.962358  
      12B3u    2.965235    12B2u    2.966805    12B1u    2.966805  
       4Au     2.971538    13B3u    2.971538     6B3g    2.971980  
      17Ag     2.971980    13B2u    2.979506    13B1u    2.979506  
       7B2g    2.987164     7B1g    2.987164     5Au     2.990839  
      14B3u    2.990839    14B2u    3.005884    14B1u    3.005884  
      18Ag     3.007722     7B3g    3.007722    19Ag     3.056340  
       8B1g    3.064676     8B2g    3.064676    20Ag     3.093169  
       8B3g    3.093169    15B3u    4.161806    15B2u    4.202167  
      15B1u    4.202167    16B3u    5.647408    16B2u    5.652300  
      16B1u    5.652300    17B3u    5.667145     6Au     5.667145  
      17B1u    5.692550    17B2u    5.692550    21Ag     5.970861  
      22Ag     6.209855     9B1g    6.216179     9B2g    6.216179  
       9B3g    6.243516    23Ag     6.243516    24Ag     6.432683  
      10B1g    6.435654    10B2g    6.435654    10B3g    6.444698  
      25Ag     6.444698    11B1g    6.460179    11B2g    6.460179  
      26Ag     6.483230    11B3g    6.483230    18B3u    6.539080  
      18B2u    6.541192    18B1u    6.541192     7Au     6.547555  
      19B3u    6.547555    19B2u    6.558255    19B1u    6.558255  
       8Au     6.573438    20B3u    6.573438    20B2u    6.593320  
      20B1u    6.593320    27Ag    16.551216    12B1g   16.556663  
      12B2g   16.556663    12B3g   16.573405    28Ag    16.573405  
      21B3u   24.630293    21B2u   24.649767    21B1u   24.649767  
      29Ag    56.621300  

    Beta Occupied:                                                        

       1Ag   -91.671546     2Ag    -8.671098     1B1u   -6.351968  
       1B2u   -6.351968     1B3u   -6.337717     3Ag    -0.529908  
       2B1u   -0.085506     2B2u   -0.085506  

    Beta Virtual:                                                         

       2B3u    0.195754     3B1u    0.217980     3B2u    0.217980  
       4Ag     0.252697     3B3u    0.293043     5Ag     0.376407  
       1B3g    0.376407     1B1g    0.376898     1B2g    0.376898  
       6Ag     0.377162     4B1u    0.572489     4B2u    0.572489  
       4B3u    0.602690     5B3u    0.660196     5B2u    0.660783  
       5B1u    0.660783     1Au     0.663432     6B3u    0.663432  
       6B1u    0.668131     6B2u    0.668131     7Ag     0.681593  
       8Ag     0.761864     2B3g    0.761864     2B2g    0.780479  
       2B1g    0.780479     9Ag     0.787697    10Ag     1.310750  
       3B2g    1.311800     3B1g    1.311800     3B3g    1.314956  
      11Ag     1.314956     4B2g    1.320192     4B1g    1.320192  
      12Ag     1.327365     4B3g    1.327365     7B3u    1.452908  
       7B1u    1.454281     7B2u    1.454281     2Au     1.458456  
       8B3u    1.458456     8B1u    1.463815     8B2u    1.463815  
      13Ag     1.468195     5B3g    1.468195     5B2g    1.472153  
       5B1g    1.472153    14Ag     1.473764     9B1u    1.509436  
       9B2u    1.509436     9B3u    1.521914    15Ag     1.931845  
      10B3u    2.888761    10B1u    2.890415    10B2u    2.890415  
       3Au     2.895326    11B3u    2.895326    11B1u    2.903329  
      11B2u    2.903329    12B3u    2.977395    12B1u    2.978486  
      12B2u    2.978486     4Au     2.981765    13B3u    2.981765  
      16Ag     2.983028     6B2g    2.984681     6B1g    2.984681  
      13B2u    2.987259    13B1u    2.987259     6B3g    2.989524  
      17Ag     2.989524     5Au     2.995009    14B3u    2.995009  
       7B2g    2.997277     7B1g    2.997277    14B2u    3.005070  
      14B1u    3.005070    18Ag     3.007657     7B3g    3.007657  
      19Ag     3.077909     8B2g    3.082139     8B1g    3.082139  
      20Ag     3.095083     8B3g    3.095083    15B3u    4.206379  
      15B1u    4.208721    15B2u    4.208721    16B3u    5.670239  
      16B1u    5.672826    16B2u    5.672826    17B3u    5.680650  
       6Au     5.680650    17B1u    5.693890    17B2u    5.693890  
      21Ag     5.986279    22Ag     6.225283     9B2g    6.229758  
       9B1g    6.229758     9B3g    6.246021    23Ag     6.246021  
      24Ag     6.455584    10B2g    6.457294    10B1g    6.457294  
      10B3g    6.462469    25Ag     6.462469    11B1g    6.471246  
      11B2g    6.471246    26Ag     6.483922    11B3g    6.483922  
      18B3u    6.558503    18B1u    6.559868    18B2u    6.559868  
       7Au     6.563975    19B3u    6.563975    19B2u    6.570867  
      19B1u    6.570867     8Au     6.580612    20B3u    6.580612  
      20B2u    6.593308    20B1u    6.593308    27Ag    16.565639  
      12B2g   16.568096    12B1g   16.568096    12B3g   16.575698  
      28Ag    16.575698    21B1u   24.653973    21B2u   24.653973  
      21B3u   24.658259    29Ag    56.627777  

    Final Occupation by Irrep:
             Ag   B1g   B2g   B3g    Au   B1u   B2u   B3u 
    DOCC [     3,    0,    0,    0,    0,    2,    2,    1 ]
    SOCC [     0,    0,    0,    0,    0,    0,    0,    1 ]

  Energy converged.

  @UHF Final Energy:  -397.54566155876620

   => Energetics <=

    Nuclear Repulsion Energy =              0.0000000000000000
    One-Electron Energy =                -554.5355208806174687
    Two-Electron Energy =                 156.9898593218512417
    PCM Polarization Energy =               0.0000000000000000
    Total Energy =                       -397.5456615587662554

    Alert: EFP and PCM quantities not currently incorporated into SCF psivars.
  UHF NO Occupations:
  HONO-2 :    2B2u 1.9990234
  HONO-1 :    3 Ag 1.9949197
  HONO-0 :    2B3u 1.0000000
  LUNO+0 :    4 Ag 0.0050803
  LUNO+1 :    3B2u 0.0009766
  LUNO+2 :    3B1u 0.0009766
  LUNO+3 :    3B3u 0.0000034



Properties will be evaluated at   0.000000,   0.000000,   0.000000 Bohr

Properties computed using the SCF density matrix

  Nuclear Dipole Moment: (a.u.)
     X:     0.0000      Y:     0.0000      Z:     0.0000

  Electronic Dipole Moment: (a.u.)
     X:     0.0000      Y:     0.0000      Z:     0.0000

  Dipole Moment: (a.u.)
     X:     0.0000      Y:     0.0000      Z:     0.0000     Total:     0.0000

  Dipole Moment: (Debye)
     X:     0.0000      Y:     0.0000      Z:     0.0000     Total:     0.0000


*** tstop() called on cqc05 at Fri Aug 21 06:48:03 2020
Module time:
	user time   =       9.07 seconds =       0.15 minutes
	system time =       0.31 seconds =       0.01 minutes
	total time  =          8 seconds =       0.13 minutes
Total time:
	user time   =       9.07 seconds =       0.15 minutes
	system time =       0.31 seconds =       0.01 minutes
	total time  =          8 seconds =       0.13 minutes

*** tstart() called on cqc05
*** at Fri Aug 21 06:48:03 2020


	Wfn Parameters:
	--------------------
	Wavefunction         = CCSD
	Number of irreps     = 8
	Number of MOs        = 136
	Number of active MOs = 131
	AO-Basis             = NONE
	Semicanonical        = false
	Reference            = UHF
	Print Level          = 1

	IRREP	# MOs	# FZDC	# DOCC	# SOCC	# VIRT	# FZVR
	-----	-----	------	------	------	------	------
	 Ag	   29	    2	    1	    0	    26	    0
	 B1g	   12	    0	    0	    0	    12	    0
	 B2g	   12	    0	    0	    0	    12	    0
	 B3g	   12	    0	    0	    0	    12	    0
	 Au	   8	    0	    0	    0	    8	    0
	 B1u	   21	    1	    1	    0	    19	    0
	 B2u	   21	    1	    1	    0	    19	    0
	 B3u	   21	    1	    0	    1	    19	    0
	Transforming integrals...
	IWL integrals will be deleted.
	(OO|OO)...
	Presorting SO-basis two-electron integrals.
	Sorting File: SO Ints (nn|nn) nbuckets = 1
	Transforming the one-electron integrals and constructing Fock matrices
	Starting AA/AB first half-transformation.
	Sorting AA/AB half-transformed integrals.
	Starting BB first half-transformation.
	Sorting BB half-transformed integrals.
	First half integral transformation complete.
	Starting AA second half-transformation.
	Starting AB second half-transformation.
	Starting BB second half-transformation.
	Two-electron integral transformation complete.
	(OO|OV)...
	Starting AA second half-transformation.
	Starting AB second half-transformation.
	Starting BB second half-transformation.
	Two-electron integral transformation complete.
	(OO|VV)...
	Starting AA second half-transformation.
	Starting AB second half-transformation.
	Starting BB second half-transformation.
	Two-electron integral transformation complete.
	(OV|OO)...
	Starting AA/AB first half-transformation.
	Sorting AA/AB half-transformed integrals.
	Starting BB first half-transformation.
	Sorting BB half-transformed integrals.
	First half integral transformation complete.
	Starting AA second half-transformation.
	Starting AB second half-transformation.
	Starting BB second half-transformation.
	Two-electron integral transformation complete.
	(OV|OV)...
	Starting AA second half-transformation.
	Starting AB second half-transformation.
	Starting BB second half-transformation.
	Two-electron integral transformation complete.
	(OV|VV)...
	Starting AA second half-transformation.
	Starting AB second half-transformation.
	Starting BB second half-transformation.
	Two-electron integral transformation complete.
	(VV|OO)...
	Starting AA/AB first half-transformation.
	Sorting AA/AB half-transformed integrals.
	Starting BB first half-transformation.
	Sorting BB half-transformed integrals.
	First half integral transformation complete.
	Starting AA second half-transformation.
	Starting AB second half-transformation.
	Starting BB second half-transformation.
	Two-electron integral transformation complete.
	(VV|OV)...
	Starting AA second half-transformation.
	Starting AB second half-transformation.
	Starting BB second half-transformation.
	Two-electron integral transformation complete.
	(VV|VV)...
	Starting AA second half-transformation.
	Starting AB second half-transformation.
	Starting BB second half-transformation.
	Two-electron integral transformation complete.
	Frozen core energy     =   -387.55331316409109

	Size of irrep 0 of <AB|CD> integrals:      1.132 (MW) /      9.057 (MB)
	Size of irrep 1 of <AB|CD> integrals:      0.939 (MW) /      7.512 (MB)
	Size of irrep 2 of <AB|CD> integrals:      0.939 (MW) /      7.512 (MB)
	Size of irrep 3 of <AB|CD> integrals:      0.939 (MW) /      7.512 (MB)
	Size of irrep 4 of <AB|CD> integrals:      0.796 (MW) /      6.365 (MB)
	Size of irrep 5 of <AB|CD> integrals:      1.094 (MW) /      8.753 (MB)
	Size of irrep 6 of <AB|CD> integrals:      1.094 (MW) /      8.753 (MB)
	Size of irrep 7 of <AB|CD> integrals:      1.094 (MW) /      8.753 (MB)
	Total:                                     8.027 (MW) /     64.216 (MB)

	Size of irrep 0 of <ab|cd> integrals:      1.173 (MW) /      9.383 (MB)
	Size of irrep 1 of <ab|cd> integrals:      0.976 (MW) /      7.809 (MB)
	Size of irrep 2 of <ab|cd> integrals:      0.976 (MW) /      7.809 (MB)
	Size of irrep 3 of <ab|cd> integrals:      0.955 (MW) /      7.636 (MB)
	Size of irrep 4 of <ab|cd> integrals:      0.817 (MW) /      6.538 (MB)
	Size of irrep 5 of <ab|cd> integrals:      1.119 (MW) /      8.955 (MB)
	Size of irrep 6 of <ab|cd> integrals:      1.119 (MW) /      8.955 (MB)
	Size of irrep 7 of <ab|cd> integrals:      1.149 (MW) /      9.193 (MB)
	Total:                                     8.285 (MW) /     66.279 (MB)

	Size of irrep 0 of <Ab|Cd> integrals:      5.171 (MW) /     41.369 (MB)
	Size of irrep 1 of <Ab|Cd> integrals:      3.830 (MW) /     30.639 (MB)
	Size of irrep 2 of <Ab|Cd> integrals:      3.830 (MW) /     30.639 (MB)
	Size of irrep 3 of <Ab|Cd> integrals:      3.787 (MW) /     30.295 (MB)
	Size of irrep 4 of <Ab|Cd> integrals:      3.226 (MW) /     25.805 (MB)
	Size of irrep 5 of <Ab|Cd> integrals:      4.427 (MW) /     35.415 (MB)
	Size of irrep 6 of <Ab|Cd> integrals:      4.427 (MW) /     35.415 (MB)
	Size of irrep 7 of <Ab|Cd> integrals:      4.486 (MW) /     35.887 (MB)
	Total:                                    33.183 (MW) /    265.463 (MB)

	Size of irrep 0 of <IA|BC> integrals:      0.187 (MW) /      1.497 (MB)
	Size of irrep 1 of <IA|BC> integrals:      0.112 (MW) /      0.899 (MB)
	Size of irrep 2 of <IA|BC> integrals:      0.112 (MW) /      0.899 (MB)
	Size of irrep 3 of <IA|BC> integrals:      0.112 (MW) /      0.899 (MB)
	Size of irrep 4 of <IA|BC> integrals:      0.078 (MW) /      0.628 (MB)
	Size of irrep 5 of <IA|BC> integrals:      0.144 (MW) /      1.155 (MB)
	Size of irrep 6 of <IA|BC> integrals:      0.144 (MW) /      1.155 (MB)
	Size of irrep 7 of <IA|BC> integrals:      0.144 (MW) /      1.155 (MB)
	Total:                                     1.036 (MW) /      8.287 (MB)

	Size of irrep 0 of <ia|bc> integrals:      0.147 (MW) /      1.175 (MB)
	Size of irrep 1 of <ia|bc> integrals:      0.079 (MW) /      0.632 (MB)
	Size of irrep 2 of <ia|bc> integrals:      0.079 (MW) /      0.632 (MB)
	Size of irrep 3 of <ia|bc> integrals:      0.098 (MW) /      0.782 (MB)
	Size of irrep 4 of <ia|bc> integrals:      0.058 (MW) /      0.463 (MB)
	Size of irrep 5 of <ia|bc> integrals:      0.121 (MW) /      0.965 (MB)
	Size of irrep 6 of <ia|bc> integrals:      0.121 (MW) /      0.965 (MB)
	Size of irrep 7 of <ia|bc> integrals:      0.094 (MW) /      0.755 (MB)
	Total:                                     0.796 (MW) /      6.368 (MB)

	Size of irrep 0 of <Ia|Bc> integrals:      0.191 (MW) /      1.528 (MB)
	Size of irrep 1 of <Ia|Bc> integrals:      0.115 (MW) /      0.924 (MB)
	Size of irrep 2 of <Ia|Bc> integrals:      0.115 (MW) /      0.924 (MB)
	Size of irrep 3 of <Ia|Bc> integrals:      0.113 (MW) /      0.903 (MB)
	Size of irrep 4 of <Ia|Bc> integrals:      0.079 (MW) /      0.632 (MB)
	Size of irrep 5 of <Ia|Bc> integrals:      0.145 (MW) /      1.161 (MB)
	Size of irrep 6 of <Ia|Bc> integrals:      0.145 (MW) /      1.161 (MB)
	Size of irrep 7 of <Ia|Bc> integrals:      0.148 (MW) /      1.186 (MB)
	Total:                                     1.052 (MW) /      8.420 (MB)

	Size of irrep 0 of <iA|bC> integrals:      0.146 (MW) /      1.164 (MB)
	Size of irrep 1 of <iA|bC> integrals:      0.076 (MW) /      0.611 (MB)
	Size of irrep 2 of <iA|bC> integrals:      0.076 (MW) /      0.611 (MB)
	Size of irrep 3 of <iA|bC> integrals:      0.097 (MW) /      0.778 (MB)
	Size of irrep 4 of <iA|bC> integrals:      0.057 (MW) /      0.460 (MB)
	Size of irrep 5 of <iA|bC> integrals:      0.120 (MW) /      0.959 (MB)
	Size of irrep 6 of <iA|bC> integrals:      0.120 (MW) /      0.959 (MB)
	Size of irrep 7 of <iA|bC> integrals:      0.091 (MW) /      0.729 (MB)
	Total:                                     0.784 (MW) /      6.271 (MB)

	Size of irrep 0 of tIjAb amplitudes:       0.007 (MW) /      0.055 (MB)
	Size of irrep 1 of tIjAb amplitudes:       0.002 (MW) /      0.016 (MB)
	Size of irrep 2 of tIjAb amplitudes:       0.002 (MW) /      0.016 (MB)
	Size of irrep 3 of tIjAb amplitudes:       0.004 (MW) /      0.031 (MB)
	Size of irrep 4 of tIjAb amplitudes:       0.000 (MW) /      0.000 (MB)
	Size of irrep 5 of tIjAb amplitudes:       0.004 (MW) /      0.034 (MB)
	Size of irrep 6 of tIjAb amplitudes:       0.004 (MW) /      0.034 (MB)
	Size of irrep 7 of tIjAb amplitudes:       0.002 (MW) /      0.017 (MB)
	Total:                                     0.025 (MW) /      0.201 (MB)

	Nuclear Rep. energy          =      0.00000000000000
	SCF energy                   =   -397.54566155876620
	One-electron energy          =    -18.26294579552737
	Two-electron (AA) energy     =      2.15265816636344
	Two-electron (BB) energy     =      1.03399734853424
	Two-electron (AB) energy     =      5.08394188595483
	Two-electron energy          =      8.27059740085251
	Reference energy             =   -397.54566155876597

*** tstop() called on cqc05 at Fri Aug 21 06:48:08 2020
Module time:
	user time   =       2.92 seconds =       0.05 minutes
	system time =       1.54 seconds =       0.03 minutes
	total time  =          5 seconds =       0.08 minutes
Total time:
	user time   =      11.99 seconds =       0.20 minutes
	system time =       1.85 seconds =       0.03 minutes
	total time  =         13 seconds =       0.22 minutes

*** tstart() called on cqc05
*** at Fri Aug 21 06:48:08 2020

            **************************
            *                        *
            *        CCENERGY        *
            *                        *
            **************************

    Nuclear Rep. energy (wfn)     =    0.000000000000000
    SCF energy          (wfn)     = -397.545661558766199
    Reference energy    (file100) = -397.545661558765971

    Input parameters:
    -----------------
    Wave function   =     CCSD
    Reference wfn   =     UHF
    Brueckner       =     No
    Memory (Mbytes) =     250000.0
    Maxiter         =     50
    R_Convergence   =     1.0e-07
    E_Convergence   =     1.0e-06
    Restart         =     Yes
    DIIS            =     Yes
    AO Basis        =     NONE
    ABCD            =     NEW
    Cache Level     =     2
    Cache Type      =     LRU
    Print Level     =     1
    Num. of threads =     4
    # Amps to Print =     10
    Print MP2 Amps? =     No
    Analyze T2 Amps =     No
    Print Pair Ener =     No
    Local CC        =     No
    SCS-MP2         =     False
    SCSN-MP2        =     False
    SCS-CCSD        =     False

MP2 correlation energy -0.1760720079807854
                Solving CC Amplitude Equations
                ------------------------------
  Iter             Energy              RMS        T1Diag      D1Diag    New D1Diag    D2Diag
  ----     ---------------------    ---------   ----------  ----------  ----------   --------
     0        -0.176072007980788    0.000e+00    0.000000    0.000000    0.000000    0.000000
     1        -0.187176087455349    4.505e-02    0.008850    0.000000    0.000000    0.000000
     2        -0.191908035262610    1.606e-02    0.011778    0.000000    0.000000    0.000000
     3        -0.192600216763385    6.471e-03    0.013362    0.000000    0.000000    0.000000
     4        -0.192599679706179    2.557e-03    0.014126    0.000000    0.000000    0.000000
     5        -0.192601583902898    1.047e-03    0.014341    0.000000    0.000000    0.000000
     6        -0.192594910953159    4.491e-04    0.014394    0.000000    0.000000    0.000000
     7        -0.192598079136817    1.410e-04    0.014387    0.000000    0.000000    0.000000
     8        -0.192598775335422    5.341e-05    0.014381    0.000000    0.000000    0.000000
     9        -0.192598302300596    2.342e-05    0.014379    0.000000    0.000000    0.000000
    10        -0.192598377973611    9.237e-06    0.014378    0.000000    0.000000    0.000000
    11        -0.192598443583947    2.690e-06    0.014378    0.000000    0.000000    0.000000
    12        -0.192598505110750    8.889e-07    0.014378    0.000000    0.000000    0.000000
    13        -0.192598515460245    3.317e-07    0.014378    0.000000    0.000000    0.000000
    14        -0.192598516813911    1.285e-07    0.014378    0.000000    0.000000    0.000000
    15        -0.192598517093610    5.928e-08    0.014378    0.000000    0.000000    0.000000
    15        -0.192598517093610    5.928e-08    0.014378    0.000000    0.000000    0.000000

    Iterations converged.


    CCSD corr. energy   =   -0.192598517093610
    PPL corr. energy    =    0.057952499254149
    OS PPL corr. energy =    0.049090795402749
    SS PPL corr. energy =    0.008861703851400
    Largest TIA Amplitudes:
              3 108         0.0155671736
              0   4         0.0071500229
              3 109        -0.0069593538
              0   3        -0.0054259933
              2  95        -0.0045366806
              1  76        -0.0045366326
              0   1        -0.0037744802
              2  90         0.0037130723
              1  71         0.0037128575
              1  70         0.0034584758

    Largest Tia Amplitudes:
              0   5         0.0212481813
              0   2        -0.0116544368
              0  10         0.0093627636
              0   3         0.0059981062
              1  76        -0.0056462161
              2  95        -0.0056461569
              1  71         0.0049640362
              2  90         0.0049637469
              0   0        -0.0047425276
              1  72         0.0034768282

    Largest TIJAB Amplitudes:
      2   1  51   5        -0.0381570511
      3   2  27   4         0.0317696661
      3   1  39   4         0.0317696636
      2   1  50   5        -0.0198574288
      2   1  51   2        -0.0198574288
      3   2  27   5         0.0195882705
      3   2  51  39         0.0195882704
      3   1  51  27         0.0195882699
      3   1  39   5        -0.0195882698
      2   1  90  71        -0.0193977486

    Largest Tijab Amplitudes:
      2   1  51   4        -0.0366814743
      2   1  90  71        -0.0203412664
      2   1  50   4        -0.0200040003
      2   1  51   1        -0.0200040003
      1   0 109  39        -0.0187018198
      2   0 109  27        -0.0187018180
      2   1  39  27         0.0183348167
      2   1  50   1        -0.0163686650
      2   1  51   9        -0.0155573890
      2   1  54   4        -0.0155573890

    Largest TIjAb Amplitudes:
      3   0   4 109         0.0529236168
      2   0  27 109         0.0460058874
      1   0  39 109         0.0460058856
      1   1  39  39        -0.0434052484
      2   2  27  27        -0.0434052462
      2   2  90  90        -0.0426010771
      1   1  71  71        -0.0426010741
      1   1  51  51        -0.0412929674
      1   1   5   4        -0.0412929674
      2   2   5   4        -0.0412929647

    SCF energy       (wfn)                    = -397.545661558766199
    Reference energy (file100)                = -397.545661558765971

    Opposite-spin MP2 correlation energy      =   -0.137980629506195
    Same-spin MP2 correlation energy          =   -0.038091378474552
    MP2 correlation energy                    =   -0.176072007980785
      * MP2 total energy                      = -397.721733566746764

    Opposite-spin CCSD correlation energy     =   -0.155491302941685
    Same-spin CCSD correlation energy         =   -0.037107213851778
    CCSD correlation energy                   =   -0.192598517093610
      * CCSD total energy                     = -397.738260075859557


*** tstop() called on cqc05 at Fri Aug 21 06:48:13 2020
Module time:
	user time   =       2.33 seconds =       0.04 minutes
	system time =       1.60 seconds =       0.03 minutes
	total time  =          5 seconds =       0.08 minutes
Total time:
	user time   =      14.32 seconds =       0.24 minutes
	system time =       3.45 seconds =       0.06 minutes
	total time  =         18 seconds =       0.30 minutes

*** Psi4 exiting successfully. Buy a developer a beer!
