
    -----------------------------------------------------------------------
          Psi4: An Open-Source Ab Initio Electronic Structure Package
                               Psi4 1.2a1.dev939 

                         Git: Rev {HEAD} fa1ec19 dirty


    R. M. Parrish, L. A. Burns, D. G. A. Smith, A. C. Simmonett,
    A. E. DePrince III, E. G. Hohenstein, U. Bozkaya, A. Yu. Sokolov,
    R. Di Remigio, R. M. Richard, J. F. Gonthier, A. M. James,
    H. R. McAlexander, A. Kumar, M. Saitow, X. Wang, B. P. Pritchard,
    P. Verma, H. F. Schaefer III, K. Patkowski, R. A. King, E. F. Valeev,
    F. A. Evangelista, J. M. Turney, T. D. Crawford, and C. D. Sherrill,
    J. Chem. Theory Comput. 13(7) pp 3185--3197 (2017).
    (doi: 10.1021/acs.jctc.7b00174)

    -----------------------------------------------------------------------


    Psi4 started on: Thursday, 13 August 2020 02:11PM

    Process ID: 314781
    PSIDATADIR: /home/fs71337/airmler/src/psi4new/build/stage/usr/local/psi4/share/psi4
    Memory:     500.0 MiB
    Threads:    48
    
  ==> Input File <==

--------------------------------------------------------------------------
# Any line starting with the # character is a comment line

memory 250000 mb

molecule molecule {
0 1
C         -0.0000000000        0.0000000000       -1.2269371074
Cl         0.0000000000        0.0000000000        0.5495574478
H          1.0284771469        0.0000000000       -1.5697755158
H         -0.5142385735        0.8906873364       -1.5697755158
H         -0.5142385735       -0.8906873364       -1.5697755158
}

set {
  reference rhf


  basis aug-cc-pv(6+d)z
  scf_type OUT_OF_CORE
  freeze_core true
}

energy('ccsd')
--------------------------------------------------------------------------

  Memory set to 232.831 GiB by Python driver.

*** tstart() called on n412-010.vsc4.prov
*** at Thu Aug 13 14:11:10 2020

   => Loading Basis Set <=

    Name: AUG-CC-PV(6+D)Z
    Role: ORBITAL
    Keyword: BASIS
    atoms 1   entry C          line   267 file /home/fs71337/airmler/src/psi4new/build/stage/usr/local/psi4/share/psi4/basis/aug-cc-pv_6pd_z.gbs 
    atoms 2   entry CL         line  1303 file /home/fs71337/airmler/src/psi4new/build/stage/usr/local/psi4/share/psi4/basis/aug-cc-pv_6pd_z.gbs 
    atoms 3-5 entry H          line    51 file /home/fs71337/airmler/src/psi4new/build/stage/usr/local/psi4/share/psi4/basis/aug-cc-pv_6pd_z.gbs 


         ---------------------------------------------------------
                                   SCF
            by Justin Turney, Rob Parrish, Andy Simmonett
                             and Daniel Smith
                              RHF Reference
                       48 Threads, 238418 MiB Core
         ---------------------------------------------------------

  ==> Geometry <==

    Molecular point group: cs
    Full point group: C3v

    Geometry (in Angstrom), charge = 0, multiplicity = 1:

       Center              X                  Y                   Z               Mass       
    ------------   -----------------  -----------------  -----------------  -----------------
           C         -0.000000000001     1.221895753131     0.000000000000    12.000000000000
          CL         -0.000000000001    -0.554598802069     0.000000000000    34.968852682000
           H         -0.514238573427     1.564734161531     0.890687336442     1.007825032070
           H         -0.514238573427     1.564734161531    -0.890687336442     1.007825032070
           H          1.028477146900     1.564734161531     0.000000000000     1.007825032070

  Running in cs symmetry.

  Rotational constants: A =      5.27109  B =      0.44746  C =      0.44746 [cm^-1]
  Rotational constants: A = 158023.43878  B =  13414.60722  C =  13414.60722 [MHz]
  Nuclear repulsion =   51.517275270699116

  Charge       = 0
  Multiplicity = 1
  Electrons    = 26
  Nalpha       = 13
  Nbeta        = 13

  ==> Algorithm <==

  SCF Algorithm Type is OUT_OF_CORE.
  DIIS enabled.
  MOM disabled.
  Fractional occupation disabled.
  Guess Type is SAD.
  Energy threshold   = 1.00e-08
  Density threshold  = 1.00e-08
  Integral threshold = 0.00e+00

  ==> Primary Basis <==

  Basis Set: AUG-CC-PV(6+D)Z
    Blend: AUG-CC-PV(6+D)Z
    Number of shells: 154
    Number of basis function: 768
    Number of Cartesian functions: 1144
    Spherical Harmonics?: true
    Max angular momentum: 6

  ==> Pre-Iterations <==

   -------------------------------------------------------
    Irrep   Nso     Nmo     Nalpha   Nbeta   Ndocc  Nsocc
   -------------------------------------------------------
     A'       434     434       0       0       0       0
     A"       334     334       0       0       0       0
   -------------------------------------------------------
    Total     768     768      13      13      13       0
   -------------------------------------------------------

  ==> Integral Setup <==

  ==> DiskJK: Disk-Based J/K Matrices <==

    J tasked:                  Yes
    K tasked:                  Yes
    wK tasked:                  No
    Memory (MB):            178813
    Schwarz Cutoff:          1E-12

  Minimum eigenvalue in the overlap matrix is 4.6108281076E-07.
  Using Symmetric Orthogonalization.

  SCF Guess: Superposition of Atomic Densities via on-the-fly atomic UHF.

  ==> Iterations <==

                        Total Energy        Delta E     RMS |[F,P]|

   @RHF iter   0:  -499.53955523143367   -4.99540e+02   2.47715e-02 
   @RHF iter   1:  -499.12026619250457    4.19289e-01   2.89856e-03 
   @RHF iter   2:  -499.14998441009249   -2.97182e-02   1.03956e-03 DIIS
   @RHF iter   3:  -499.15619841873843   -6.21401e-03   3.08405e-04 DIIS
   @RHF iter   4:  -499.15683584914564   -6.37430e-04   6.94718e-05 DIIS
   @RHF iter   5:  -499.15688972339217   -5.38742e-05   1.56786e-05 DIIS
   @RHF iter   6:  -499.15689492699914   -5.20361e-06   4.95772e-06 DIIS
   @RHF iter   7:  -499.15689537251819   -4.45519e-07   1.55933e-06 DIIS
   @RHF iter   8:  -499.15689541645861   -4.39404e-08   3.49200e-07 DIIS
   @RHF iter   9:  -499.15689541912150   -2.66289e-09   7.52086e-08 DIIS
   @RHF iter  10:  -499.15689541922461   -1.03114e-10   2.62769e-08 DIIS
   @RHF iter  11:  -499.15689541923120   -6.59384e-12   8.23798e-09 DIIS

  ==> Post-Iterations <==

    Orbital Energies (a.u.)
    -----------------------

    Doubly Occupied:                                                      

       1Ap  -104.824309     2Ap   -11.287667     3Ap   -10.549535  
       4Ap    -8.016506     5Ap    -8.015096     1App   -8.015096  
       6Ap    -1.129047     7Ap    -0.914734     8Ap    -0.618854  
       2App   -0.618854     9Ap    -0.547105     3App   -0.435498  
      10Ap    -0.435498  

    Virtual:                                                              

      11Ap     0.019055    12Ap     0.033077     4App    0.033077  
      13Ap     0.042644     5App    0.073528    14Ap     0.073528  
      15Ap     0.077647    16Ap     0.088966     6App    0.092286  
      17Ap     0.092286     7App    0.127283    18Ap     0.127283  
      19Ap     0.137354    20Ap     0.178160     8App    0.179220  
      21Ap     0.179220    22Ap     0.197867     9App    0.201877  
      23Ap     0.201877    10App    0.203620    24Ap     0.206074  
      11App    0.210830    25Ap     0.210830    26Ap     0.229258  
      12App    0.263901    27Ap     0.263901    13App    0.267586  
      28Ap     0.267586    29Ap     0.271756    30Ap     0.289369  
      14App    0.301127    31Ap     0.301127    15App    0.308261  
      32Ap     0.308261    16App    0.333196    33Ap     0.333196  
      34Ap     0.363306    35Ap     0.394680    17App    0.396378  
      36Ap     0.396378    37Ap     0.416146    18App    0.416146  
      38Ap     0.425291    19App    0.455557    39Ap     0.455557  
      20App    0.473392    40Ap     0.473392    21App    0.482961  
      41Ap     0.485641    22App    0.489135    23App    0.520732  
      42Ap     0.520732    43Ap     0.522853    44Ap     0.540639  
      45Ap     0.558174    24App    0.558174    46Ap     0.559147  
      25App    0.578451    47Ap     0.578451    26App    0.589824  
      48Ap     0.589824    49Ap     0.606350    27App    0.631807  
      50Ap     0.631807    28App    0.642359    51Ap     0.670150  
      29App    0.675007    52Ap     0.675007    53Ap     0.707795  
      30App    0.709839    54Ap     0.709839    31App    0.727991  
      55Ap     0.727991    56Ap     0.738504    32App    0.771135  
      57Ap     0.771135    33App    0.781341    58Ap     0.801906  
      34App    0.813646    59Ap     0.813646    60Ap     0.835931  
      61Ap     0.847743    35App    0.850334    62Ap     0.850334  
      36App    0.903725    63Ap     0.903725    37App    0.940963  
      38App    0.976289    64Ap     0.976289    65Ap     0.986194  
      66Ap     1.016731    39App    1.016785    67Ap     1.016785  
      68Ap     1.030332    40App    1.038256    69Ap     1.038256  
      41App    1.090124    70Ap     1.090124    42App    1.090963  
      71Ap     1.096458    72Ap     1.158063    43App    1.158063  
      73Ap     1.181395    44App    1.181395    45App    1.195874  
      74Ap     1.195874    75Ap     1.196043    46App    1.216496  
      76Ap     1.216496    47App    1.226153    77Ap     1.242637  
      48App    1.242637    78Ap     1.267697    49App    1.283479  
      79Ap     1.283479    80Ap     1.289974    50App    1.313916  
      81Ap     1.313916    51App    1.325443    82Ap     1.325443  
      83Ap     1.329944    84Ap     1.335308    52App    1.364702  
      85Ap     1.366412    53App    1.366412    54App    1.399718  
      86Ap     1.399718    87Ap     1.403846    55App    1.412996  
      88Ap     1.472308    56App    1.506406    89Ap     1.515386  
      90Ap     1.524771    57App    1.524771    91Ap     1.541054  
      58App    1.541054    92Ap     1.550257    93Ap     1.560279  
      59App    1.560279    60App    1.602286    94Ap     1.602286  
      95Ap     1.610122    61App    1.662254    96Ap     1.662254  
      62App    1.695299    97Ap     1.695299    63App    1.700313  
      98Ap     1.708730    64App    1.725311    99Ap     1.725311  
     100Ap     1.759540    65App    1.759540   101Ap     1.778698  
     102Ap     1.817545    66App    1.817545   103Ap     1.830580  
      67App    1.841102   104Ap     1.869401    68App    1.907003  
     105Ap     1.907003   106Ap     1.930091    69App    1.952664  
     107Ap     1.952664   108Ap     1.986107    70App    2.074459  
     109Ap     2.074459    71App    2.106233   110Ap     2.106233  
     111Ap     2.202934   112Ap     2.234321    72App    2.234321  
      73App    2.253077   113Ap     2.282182    74App    2.282182  
     114Ap     2.302293   115Ap     2.321899    75App    2.321899  
      76App    2.392585   116Ap     2.399129    77App    2.399129  
     117Ap     2.430815    78App    2.430815    79App    2.457295  
     118Ap     2.457295   119Ap     2.501612    80App    2.501612  
     120Ap     2.506568   121Ap     2.532936    81App    2.555212  
     122Ap     2.555212    82App    2.559161   123Ap     2.571055  
     124Ap     2.600154    83App    2.600154    84App    2.603102  
     125Ap     2.634723    85App    2.658820   126Ap     2.658820  
     127Ap     2.675271    86App    2.677068   128Ap     2.677068  
      87App    2.697239   129Ap     2.724116    88App    2.725582  
     130Ap     2.725582    89App    2.771890   131Ap     2.771890  
      90App    2.783172   132Ap     2.783172   133Ap     2.787680  
     134Ap     2.813628    91App    2.813628   135Ap     2.819937  
      92App    2.819937    93App    2.824797   136Ap     2.830609  
     137Ap     2.886235    94App    2.886235    95App    2.889729  
     138Ap     2.901142   139Ap     2.937648    96App    2.937648  
      97App    2.958397   140Ap     2.958397   141Ap     2.966512  
      98App    2.966512   142Ap     2.970174    99App    3.007632  
     143Ap     3.015436   100App    3.026316   144Ap     3.026316  
     145Ap     3.047207   101App    3.050903   146Ap     3.050903  
     147Ap     3.109066   102App    3.109066   148Ap     3.112645  
     103App    3.142744   104App    3.159934   149Ap     3.159934  
     150Ap     3.197808   105App    3.225494   151Ap     3.225494  
     106App    3.235241   152Ap     3.235241   153Ap     3.333140  
     107App    3.341851   154Ap     3.341851   155Ap     3.365624  
     156Ap     3.424308   108App    3.451993   157Ap     3.460673  
     109App    3.462359   158Ap     3.462359   159Ap     3.503981  
     110App    3.503981   160Ap     3.524319   111App    3.557695  
     161Ap     3.557695   162Ap     3.663087   112App    3.663087  
     163Ap     3.741156   113App    3.741156   164Ap     3.752105  
     114App    3.757120   165Ap     3.795352   115App    3.795352  
     166Ap     3.802542   116App    3.816085   167Ap     3.911561  
     117App    3.911561   168Ap     3.913637   169Ap     3.916802  
     118App    3.916802   119App    3.974628   170Ap     4.019773  
     120App    4.019773   121App    4.158120   171Ap     4.158120  
     172Ap     4.191557   122App    4.191557   173Ap     4.192880  
     174Ap     4.373248   175Ap     4.377555   123App    4.377555  
     124App    4.439211   125App    4.457995   176Ap     4.457995  
     177Ap     4.520553   178Ap     4.544944   126App    4.638643  
     179Ap     4.638643   127App    4.710225   180Ap     4.710225  
     128App    4.762810   181Ap     4.762810   182Ap     4.779830  
     129App    4.796376   183Ap     4.796376   184Ap     4.902020  
     130App    4.905943   185Ap     4.913048   131App    4.924228  
     186Ap     4.927451   132App    4.927451   187Ap     5.054224  
     133App    5.054224   188Ap     5.075313   189Ap     5.089964  
     134App    5.089964   190Ap     5.107258   135App    5.107258  
     191Ap     5.116449   136App    5.137759   192Ap     5.137759  
     193Ap     5.190051   137App    5.190051   138App    5.237230  
     139App    5.250044   194Ap     5.250044   195Ap     5.251557  
     196Ap     5.265817   140App    5.274941   141App    5.292151  
     197Ap     5.292151   198Ap     5.294101   142App    5.296322  
     199Ap     5.297702   143App    5.297702   200Ap     5.338268  
     201Ap     5.348747   144App    5.348747   145App    5.369169  
     202Ap     5.390449   146App    5.390449   203Ap     5.423654  
     147App    5.440156   204Ap     5.440156   205Ap     5.457726  
     148App    5.457726   149App    5.492657   206Ap     5.518575  
     207Ap     5.540882   150App    5.540882   208Ap     5.590500  
     151App    5.590500   209Ap     5.620615   152App    5.620615  
     210Ap     5.636883   153App    5.666903   211Ap     5.666903  
     154App    5.677354   212Ap     5.677354   155App    5.681164  
     213Ap     5.702403   214Ap     5.766822   156App    5.766822  
     215Ap     5.785888   157App    5.822240   216Ap     5.845701  
     158App    5.845701   217Ap     5.889576   218Ap     5.898207  
     159App    5.898207   160App    5.908334   219Ap     5.908334  
     220Ap     5.910443   161App    5.940554   221Ap     6.022766  
     162App    6.022766   163App    6.050472   222Ap     6.071119  
     223Ap     6.079719   164App    6.079719   224Ap     6.098855  
     165App    6.098855   225Ap     6.150166   226Ap     6.155156  
     166App    6.155156   167App    6.183698   227Ap     6.295723  
     228Ap     6.304039   168App    6.304039   229Ap     6.343376  
     169App    6.343376   230Ap     6.377657   170App    6.381809  
     231Ap     6.381809   232Ap     6.417711   171App    6.417711  
     233Ap     6.497841   234Ap     6.563529   172App    6.569191  
     235Ap     6.569191   236Ap     6.587161   173App    6.587161  
     174App    6.598480   237Ap     6.662117   175App    6.672425  
     238Ap     6.728799   239Ap     6.732089   176App    6.732089  
     177App    6.775310   240Ap     6.775310   241Ap     6.813185  
     178App    6.813185   242Ap     6.934800   179App    6.934800  
     243Ap     6.971017   180App    6.974535   244Ap     7.037680  
     181App    7.037680   245Ap     7.055780   182App    7.094155  
     183App    7.098773   246Ap     7.098773   247Ap     7.158139  
     248Ap     7.194993   184App    7.194993   249Ap     7.263578  
     250Ap     7.314384   185App    7.314384   251Ap     7.417860  
     252Ap     7.420264   186App    7.420264   253Ap     7.458677  
     254Ap     7.566046   187App    7.566046   188App    7.593831  
     189App    7.678804   255Ap     7.678804   256Ap     7.969035  
     190App    7.969035   257Ap     7.987573   191App    8.135150  
     258Ap     8.135150   192App    8.206544   193App    8.224398  
     259Ap     8.224398   194App    8.233546   260Ap     8.283141  
     261Ap     8.358437   195App    8.358437   196App    8.381560  
     262Ap     8.381560   263Ap     8.468174   264Ap     8.569231  
     265Ap     8.709918   197App    8.709918   198App    8.818479  
     266Ap     8.818479   199App    8.821623   267Ap     8.821732  
     200App    8.957876   268Ap     8.957876   201App    9.058242  
     269Ap     9.058242   270Ap     9.078990   271Ap     9.108755  
     202App    9.108755   272Ap     9.212780   203App    9.245797  
     204App    9.292488   273Ap     9.292488   274Ap     9.564550  
     275Ap     9.599390   205App    9.599390   276Ap     9.615276  
     277Ap     9.698354   206App    9.698354   207App    9.912458  
     278Ap     9.912458   279Ap     9.944232   208App   10.016469  
     280Ap    10.016469   209App   10.024685   281Ap    10.024685  
     282Ap    10.134990   283Ap    10.146554   210App   10.146554  
     211App   10.186710   284Ap    10.215638   212App   10.261724  
     285Ap    10.261724   286Ap    10.336536   213App   10.336536  
     214App   10.347126   215App   10.410852   287Ap    10.450378  
     216App   10.468801   288Ap    10.468801   289Ap    10.534077  
     217App   10.534077   290Ap    10.580196   291Ap    10.639646  
     218App   10.677978   292Ap    10.696155   219App   10.696155  
     293Ap    10.721326   294Ap    10.742571   220App   10.742571  
     295Ap    10.774468   221App   10.774468   296Ap    10.836416  
     297Ap    10.852577   222App   10.852577   223App   10.882231  
     298Ap    10.882231   299Ap    11.075133   224App   11.075915  
     300Ap    11.132286   225App   11.167459   301Ap    11.167459  
     226App   11.235023   302Ap    11.237486   227App   11.237486  
     228App   11.283339   303Ap    11.283339   304Ap    11.312008  
     305Ap    11.374894   229App   11.374894   230App   11.448658  
     306Ap    11.448658   307Ap    11.489472   308Ap    11.540243  
     231App   11.540243   232App   11.573995   309Ap    11.584095  
     233App   11.584095   310Ap    11.615016   234App   11.615016  
     311Ap    11.758108   235App   11.758108   312Ap    11.769922  
     236App   11.771400   313Ap    11.808599   314Ap    11.849113  
     237App   11.849113   238App   11.908037   315Ap    12.000367  
     316Ap    12.013283   239App   12.013283   317Ap    12.072393  
     240App   12.072393   318Ap    12.118704   241App   12.160745  
     319Ap    12.185114   242App   12.185114   320Ap    12.347287  
     321Ap    12.351150   243App   12.351150   244App   12.377054  
     245App   12.406150   322Ap    12.406150   323Ap    12.599508  
     324Ap    12.640426   246App   12.640426   325Ap    12.666986  
     326Ap    12.682487   247App   12.682487   248App   12.702388  
     327Ap    12.809602   249App   12.884989   328Ap    12.884989  
     329Ap    12.929319   330Ap    13.161638   250App   13.161638  
     331Ap    13.194230   251App   13.194230   332Ap    13.373532  
     252App   13.440465   253App   13.664502   333Ap    13.664502  
     254App   13.884377   334Ap    13.933243   335Ap    14.079145  
     255App   14.123516   336Ap    14.123516   256App   14.251342  
     337Ap    14.251342   338Ap    14.359010   257App   14.359010  
     339Ap    14.630944   340Ap    14.662065   258App   14.662065  
     259App   14.875964   260App   14.902103   341Ap    14.902103  
     342Ap    14.964373   343Ap    15.028481   261App   15.028481  
     344Ap    15.179793   345Ap    15.461452   262App   15.461452  
     263App   15.493046   346Ap    15.573954   264App   15.573954  
     347Ap    15.596743   265App   15.636363   266App   15.758899  
     348Ap    15.758899   349Ap    16.009911   267App   16.009911  
     350Ap    16.197652   268App   16.238059   351Ap    16.238059  
     352Ap    16.636201   269App   16.744068   353Ap    16.744068  
     354Ap    16.935992   270App   17.210434   355Ap    17.210434  
     356Ap    17.213778   357Ap    17.533596   271App   17.533596  
     358Ap    17.623904   272App   17.664806   359Ap    17.690475  
     273App   17.690475   274App   17.790641   360Ap    17.790641  
     361Ap    17.817714   275App   17.829214   362Ap    17.829214  
     276App   18.088586   363Ap    18.099553   364Ap    18.215620  
     277App   18.215620   365Ap    18.392812   278App   18.435785  
     279App   18.516594   366Ap    18.516594   367Ap    18.707546  
     280App   18.830880   368Ap    18.830880   281App   19.153705  
     369Ap    19.153705   282App   19.190605   370Ap    19.190605  
     283App   19.417373   371Ap    19.417373   284App   19.499659  
     372Ap    19.636151   373Ap    19.732484   285App   19.732484  
     374Ap    20.101606   375Ap    20.177530   376Ap    20.529977  
     286App   20.529977   287App   20.560813   377Ap    20.560813  
     288App   20.678394   378Ap    20.729321   289App   20.729321  
     379Ap    20.828854   290App   20.828854   291App   20.837169  
     380Ap    21.018399   381Ap    21.052899   292App   21.067871  
     382Ap    21.067871   293App   21.258998   383Ap    21.258998  
     294App   21.756655   384Ap    21.768324   295App   21.768324  
     385Ap    21.963935   296App   22.020836   386Ap    22.080138  
     297App   22.080138   298App   22.120232   387Ap    22.120232  
     299App   22.156277   388Ap    22.156277   389Ap    22.258484  
     300App   22.275961   390Ap    22.275961   301App   22.369392  
     391Ap    22.369392   302App   22.427291   392Ap    22.503313  
     393Ap    22.561542   303App   22.612665   394Ap    22.844019  
     304App   22.875958   395Ap    22.875958   396Ap    22.926986  
     305App   22.926986   397Ap    23.002813   306App   23.058723  
     398Ap    23.261380   307App   23.261380   399Ap    23.443059  
     308App   23.443059   400Ap    23.443552   309App   24.010373  
     401Ap    24.010373   402Ap    24.554589   310App   24.554589  
     403Ap    24.560704   311App   24.566978   312App   24.579379  
     404Ap    24.579379   405Ap    24.695329   313App   24.717307  
     406Ap    24.717307   407Ap    24.732570   314App   24.732570  
     315App   24.865229   408Ap    25.026845   409Ap    25.512581  
     316App   25.512581   410Ap    25.834406   317App   25.834406  
     411Ap    25.941202   318App   26.041161   412Ap    26.184063  
     319App   26.184063   413Ap    26.546657   320App   26.957028  
     321App   27.202572   414Ap    27.202572   415Ap    27.222154  
     322App   27.464425   416Ap    27.464425   323App   27.636722  
     417Ap    27.636722   418Ap    27.673380   324App   27.673380  
     325App   27.781063   419Ap    27.940627   326App   28.002674  
     420Ap    28.002674   421Ap    28.508086   422Ap    28.684798  
     327App   28.684798   328App   36.385583   423Ap    36.385583  
     424Ap    36.809116   425Ap    36.912778   329App   36.912778  
     330App   37.054890   426Ap    37.054890   331App   37.100572  
     427Ap    39.029334   332App   39.600199   428Ap    39.600199  
     429Ap    39.606324   430Ap    39.966744   333App   39.966744  
     431Ap    40.147331   334App   40.147331   432Ap    41.092502  
     433Ap    66.667733   434Ap   287.493829  

    Final Occupation by Irrep:
             Ap   App 
    DOCC [    10,    3 ]

  Energy converged.

  @RHF Final Energy:  -499.15689541923120

   => Energetics <=

    Nuclear Repulsion Energy =             51.5172752706991162
    One-Electron Energy =                -790.5327413726985242
    Two-Electron Energy =                 239.8585706827682316
    Total Energy =                       -499.1568954192312049



Properties will be evaluated at   0.000000,   0.000000,   0.000000 Bohr

Properties computed using the SCF density matrix

  Nuclear Dipole Moment: (a.u.)
     X:     0.0000      Y:     4.9084      Z:     0.0000

  Electronic Dipole Moment: (a.u.)
     X:     0.0000      Y:    -4.0833      Z:     0.0000

  Dipole Moment: (a.u.)
     X:     0.0000      Y:     0.8250      Z:     0.0000     Total:     0.8250

  Dipole Moment: (Debye)
     X:     0.0000      Y:     2.0970      Z:     0.0000     Total:     2.0970


*** tstop() called on n412-010.vsc4.prov at Fri Aug 14 01:40:24 2020
Module time:
	user time   =   17047.02 seconds =     284.12 minutes
	system time =   13694.44 seconds =     228.24 minutes
	total time  =      41354 seconds =     689.23 minutes
Total time:
	user time   =   17047.02 seconds =     284.12 minutes
	system time =   13694.44 seconds =     228.24 minutes
	total time  =      41354 seconds =     689.23 minutes

*** tstart() called on n412-010.vsc4.prov
*** at Fri Aug 14 01:40:24 2020


	Wfn Parameters:
	--------------------
	Wavefunction         = CCSD
	Number of irreps     = 2
	Number of MOs        = 768
	Number of active MOs = 762
	AO-Basis             = NONE
	Semicanonical        = false
	Reference            = RHF
	Print Level          = 1

	IRREP	# MOs	# FZDC	# DOCC	# SOCC	# VIRT	# FZVR
	-----	-----	------	------	------	------	------
	 Ap	   434	    5	    5	    0	    424	    0
	 App	   334	    1	    2	    0	    331	    0
	Transforming integrals...
	IWL integrals will be deleted.
	(OO|OO)...
	Presorting SO-basis two-electron integrals.
	Sorting File: SO Ints (nn|nn) nbuckets = 2
	Transforming the one-electron integrals and constructing Fock matrices
	Starting first half-transformation.
	Sorting half-transformed integrals.
	First half integral transformation complete.
	Starting second half-transformation.
	Two-electron integral transformation complete.
	(OO|OV)...
	Starting second half-transformation.
	Two-electron integral transformation complete.
	(OO|VV)...
	Starting second half-transformation.
	Two-electron integral transformation complete.
	(OV|OO)...
	Starting first half-transformation.
	Sorting half-transformed integrals.
	First half integral transformation complete.
	Starting second half-transformation.
	Two-electron integral transformation complete.
	(OV|OV)...
	Starting second half-transformation.
	Two-electron integral transformation complete.
	(OV|VV)...
	Starting second half-transformation.
	Two-electron integral transformation complete.
	(VV|OO)...
	Starting first half-transformation.
	Sorting half-transformed integrals.
	First half integral transformation complete.
	Starting second half-transformation.
	Two-electron integral transformation complete.
	(VV|OV)...
	Starting second half-transformation.
	Two-electron integral transformation complete.
	(VV|VV)...
	Starting second half-transformation.
	Two-electron integral transformation complete.
	Frozen core energy     =   -508.81891761030801

	Size of irrep 0 of <ab|cd> integrals:  83715.900 (MW) / 669727.197 (MB)
	Size of irrep 1 of <ab|cd> integrals:  78785.753 (MW) / 630286.027 (MB)
	Total:                                162501.653 (MW) / 1300013.223 (MB)

	Size of irrep 0 of <ia|bc> integrals:    804.936 (MW) /   6439.484 (MB)
	Size of irrep 1 of <ia|bc> integrals:    702.562 (MW) /   5620.497 (MB)
	Total:                                  1507.498 (MW) /  12059.981 (MB)

	Size of irrep 0 of tijab amplitudes:       8.391 (MW) /     67.126 (MB)
	Size of irrep 1 of tijab amplitudes:       5.614 (MW) /     44.910 (MB)
	Total:                                    14.005 (MW) /    112.036 (MB)

	Nuclear Rep. energy          =     51.51727527069912
	SCF energy                   =   -499.15689541923120
	One-electron energy          =    -74.31132376409386
	Two-electron energy          =     32.45607068447224
	Reference energy             =   -499.15689541923047

*** tstop() called on n412-010.vsc4.prov at Fri Aug 14 14:03:01 2020
Module time:
	user time   =   60555.09 seconds =    1009.25 minutes
	system time =   18296.25 seconds =     304.94 minutes
	total time  =      44557 seconds =     742.62 minutes
Total time:
	user time   =   77602.24 seconds =    1293.37 minutes
	system time =   31990.70 seconds =     533.18 minutes
	total time  =      85911 seconds =    1431.85 minutes

*** tstart() called on n412-010.vsc4.prov
*** at Fri Aug 14 14:03:01 2020

            **************************
            *                        *
            *        CCENERGY        *
            *                        *
            **************************

    Nuclear Rep. energy (wfn)     =   51.517275270699116
    SCF energy          (wfn)     = -499.156895419231205
    Reference energy    (file100) = -499.156895419230466

    Input parameters:
    -----------------
    Wave function   =     CCSD
    Reference wfn   =     RHF
    Brueckner       =     No
    Memory (Mbytes) =     250000.0
    Maxiter         =     50
    R_Convergence   =     1.0e-07
    E_Convergence   =     1.0e-06
    Restart         =     Yes
    DIIS            =     Yes
    AO Basis        =     NONE
    ABCD            =     NEW
    Cache Level     =     2
    Cache Type      =     LOW
    Print Level     =     1
    Num. of threads =     48
    # Amps to Print =     10
    Print MP2 Amps? =     No
    Analyze T2 Amps =     No
    Print Pair Ener =     No
    Local CC        =     No
    SCS-MP2         =     False
    SCSN-MP2        =     False
    SCS-CCSD        =     False

MP2 correlation energy -0.4241979750207769
                Solving CC Amplitude Equations
                ------------------------------
  Iter             Energy              RMS        T1Diag      D1Diag    New D1Diag    D2Diag
  ----     ---------------------    ---------   ----------  ----------  ----------   --------
     0        -0.424197975020443    0.000e+00    0.000000    0.000000    0.000000    0.142894
     1        -0.464000271508683    2.752e-01    0.013515    0.029711    0.029711    0.162357
     2        -0.451484954638282    3.846e-02    0.007620    0.017057    0.017057    0.157913
     3        -0.445643976076801    1.022e-02    0.008157    0.018870    0.018870    0.154619
     4        -0.445030780654509    2.212e-03    0.007934    0.018207    0.018207    0.154221
     5        -0.444964808478317    5.338e-04    0.007906    0.018181    0.018181    0.154068
     6        -0.444940659483872    1.511e-04    0.007899    0.018159    0.018159    0.154015
     7        -0.444941555308834    4.613e-05    0.007896    0.018150    0.018150    0.154005
     8        -0.444943430549136    1.367e-05    0.007896    0.018148    0.018148    0.154003
     9        -0.444943093613552    3.992e-06    0.007895    0.018147    0.018147    0.154002
    10        -0.444942934825655    1.270e-06    0.007895    0.018147    0.018147    0.154002
    11        -0.444942944627627    4.018e-07    0.007895    0.018147    0.018147    0.154002
    12        -0.444942955436319    1.275e-07    0.007895    0.018147    0.018147    0.154002
    13        -0.444942958155756    4.233e-08    0.007895    0.018147    0.018147    0.154002
    13        -0.444942958155756    4.233e-08    0.007895    0.018147    0.018147    0.154002

    Iterations converged.


    CCSD corr. energy   =   -0.444942958155756
    PPL corr. energy    =    0.121619441302623
    OS PPL corr. energy =    0.104285282288814
    SS PPL corr. energy =    0.017334159013804
    Largest TIA Amplitudes:
              2  25         0.0067954386
              5 437         0.0067954231
              3  54        -0.0067467000
              3   8        -0.0056254314
              3  18         0.0054366221
              3  19         0.0048119223
              3  38        -0.0045180967
              3  35        -0.0042900359
              3  50        -0.0042208784
              2  12        -0.0042119120

    Largest TIjAb Amplitudes:
      3   3  18  18        -0.0248528773
      3   3  13  13        -0.0196580513
      3   3  13  18        -0.0182688840
      3   3  18  13        -0.0182688840
      3   3  18  23         0.0158639522
      3   3  23  18         0.0158639522
      3   3  11  18         0.0157056946
      3   3  18  11         0.0157056946
      3   3  23  23        -0.0153508304
      3   3  11  13         0.0150789770

    SCF energy       (wfn)                    = -499.156895419231205
    Reference energy (file100)                = -499.156895419230466

    Opposite-spin MP2 correlation energy      =   -0.334646325298247
    Same-spin MP2 correlation energy          =   -0.089551649722196
    MP2 correlation energy                    =   -0.424197975020777
      * MP2 total energy                      = -499.581093394251241

    Opposite-spin CCSD correlation energy     =   -0.360497514215447
    Same-spin CCSD correlation energy         =   -0.084445443520006
    CCSD correlation energy                   =   -0.444942958155756
      * CCSD total energy                     = -499.601838377386230


*** tstop() called on n412-010.vsc4.prov at Fri Aug 14 17:35:14 2020
Module time:
	user time   =   49199.84 seconds =     820.00 minutes
	system time =    5785.81 seconds =      96.43 minutes
	total time  =      12733 seconds =     212.22 minutes
Total time:
	user time   =  126802.08 seconds =    2113.37 minutes
	system time =   37776.51 seconds =     629.61 minutes
	total time  =      98644 seconds =    1644.07 minutes

*** Psi4 exiting successfully. Buy a developer a beer!
