
    -----------------------------------------------------------------------
          Psi4: An Open-Source Ab Initio Electronic Structure Package
                               Psi4 1.4a3.dev88 

                         Git: Rev {master} 262e345 


    D. G. A. Smith, L. A. Burns, A. C. Simmonett, R. M. Parrish,
    M. C. Schieber, R. Galvelis, P. Kraus, H. Kruse, R. Di Remigio,
    A. Alenaizan, A. M. James, S. Lehtola, J. P. Misiewicz, M. Scheurer,
    R. A. Shaw, J. B. Schriber, Y. Xie, Z. L. Glick, D. A. Sirianni,
    J. S. O'Brien, J. M. Waldrop, A. Kumar, E. G. Hohenstein,
    B. P. Pritchard, B. R. Brooks, H. F. Schaefer III, A. Yu. Sokolov,
    K. Patkowski, A. E. DePrince III, U. Bozkaya, R. A. King,
    F. A. Evangelista, J. M. Turney, T. D. Crawford, C. D. Sherrill,
    J. Chem. Phys. 152(18) 184108 (2020). https://doi.org/10.1063/5.0006002

                            Additional Code Authors
    E. T. Seidl, C. L. Janssen, E. F. Valeev, M. L. Leininger,
    J. F. Gonthier, R. M. Richard, H. R. McAlexander, M. Saitow, X. Wang,
    P. Verma, and M. H. Lechner

             Previous Authors, Complete List of Code Contributors,
                       and Citations for Specific Modules
    https://github.com/psi4/psi4/blob/master/codemeta.json
    https://github.com/psi4/psi4/graphs/contributors
    http://psicode.org/psi4manual/master/introduction.html#citing-psifour

    -----------------------------------------------------------------------


    Psi4 started on: Tuesday, 26 January 2021 06:29PM

    Process ID: 410318
    Host:       n412-040.vsc4.prov
    PSIDATADIR: /home/fs71337/gallo4/psi4/eri-6/psi4/build/stage/share/psi4
    Memory:     500.0 MiB
    Threads:    48
    
  ==> Input File <==

--------------------------------------------------------------------------
# Any line starting with the # character is a comment line
memory 250000 mb
molecule molecule{
-1 2
S          0.0000000000        0.0000000000        1.0065241194
S          0.0000000000        0.0000000000       -1.0065241194
}

set {
  reference uhf
  basis aug-cc-pV(t+d)Z
  scf_type OUT_OF_CORE
  freeze_core true
}

energy('ccsd(t)')
--------------------------------------------------------------------------

  Memory set to 232.831 GiB by Python driver.

Scratch directory: /binfl/lv71337/airmler/temp/

*** tstart() called on n412-040.vsc4.prov
*** at Tue Jan 26 18:29:59 2021

   => Loading Basis Set <=

    Name: AUG-CC-PV(T+D)Z
    Role: ORBITAL
    Keyword: BASIS
    atoms 1-2 entry S          line   944 file /home/fs71337/gallo4/psi4/eri-6/psi4/build/stage/share/psi4/basis/aug-cc-pv_tpd_z.gbs 


         ---------------------------------------------------------
                                   SCF
               by Justin Turney, Rob Parrish, Andy Simmonett
                          and Daniel G. A. Smith
                              UHF Reference
                       48 Threads, 238418 MiB Core
         ---------------------------------------------------------

  ==> Geometry <==

    Molecular point group: d2h
    Full point group: D_inf_h

    Geometry (in Angstrom), charge = -1, multiplicity = 2:

       Center              X                  Y                   Z               Mass       
    ------------   -----------------  -----------------  -----------------  -----------------
         S            0.000000000000     0.000000000000     1.006524119400    31.972071174400
         S            0.000000000000     0.000000000000    -1.006524119400    31.972071174400

  Running in d2h symmetry.

  Rotational constants: A = ************  B =      0.26022  C =      0.26022 [cm^-1]
  Rotational constants: A = ************  B =   7801.31941  C =   7801.31941 [MHz]
  Nuclear repulsion =   67.295638187127992

  Charge       = -1
  Multiplicity = 2
  Electrons    = 33
  Nalpha       = 17
  Nbeta        = 16

  ==> Algorithm <==

  SCF Algorithm Type is OUT_OF_CORE.
  DIIS enabled.
  MOM disabled.
  Fractional occupation disabled.
  Guess Type is SAD.
  Energy threshold   = 1.00e-08
  Density threshold  = 1.00e-08
  Integral threshold = 1.00e-12

  ==> Primary Basis <==

  Basis Set: AUG-CC-PV(T+D)Z
    Blend: AUG-CC-PV(T+D)Z
    Number of shells: 34
    Number of basis function: 110
    Number of Cartesian functions: 130
    Spherical Harmonics?: true
    Max angular momentum: 3

  ==> Integral Setup <==

  ==> DiskJK: Disk-Based J/K Matrices <==

    J tasked:                  Yes
    K tasked:                  Yes
    wK tasked:                  No
    Memory [MiB]:           178813
    Schwarz Cutoff:          1E-12

  Minimum eigenvalue in the overlap matrix is 4.7933143927E-04.
  Reciprocal condition number of the overlap matrix is 1.0534067578E-04.
    Using symmetric orthogonalization.

  ==> Pre-Iterations <==

  SCF Guess: Superposition of Atomic Densities via on-the-fly atomic UHF (no occupation information).


 WARNING: Atomic UHF is not converging! Try casting from a smaller basis or call Rob at CCMST.
   -------------------------
    Irrep   Nso     Nmo    
   -------------------------
     Ag        23      23 
     B1g        6       6 
     B2g       13      13 
     B3g       13      13 
     Au         6       6 
     B1u       23      23 
     B2u       13      13 
     B3u       13      13 
   -------------------------
    Total     110     110
   -------------------------

  ==> Iterations <==

                        Total Energy        Delta E     RMS |[F,P]|

   @UHF iter SAD:  -766.73881950740270   -7.66739e+02   0.00000e+00 
   @UHF iter   1:  -794.28817539889803   -2.75494e+01   2.78416e-02 DIIS
   @UHF iter   2:  -794.84056558508871   -5.52390e-01   1.76133e-02 DIIS
   @UHF iter   3:  -795.12694383111352   -2.86378e-01   1.42683e-03 DIIS
   @UHF iter   4:  -795.13086552558218   -3.92169e-03   3.62089e-04 DIIS
   @UHF iter   5:  -795.13126866878451   -4.03143e-04   1.20177e-04 DIIS
   @UHF iter   6:  -795.13131678998866   -4.81212e-05   3.37273e-05 DIIS
   @UHF iter   7:  -795.13132104851184   -4.25852e-06   7.90099e-06 DIIS
   @UHF iter   8:  -795.13132127248207   -2.23970e-07   2.17435e-06 DIIS
   @UHF iter   9:  -795.13132128866846   -1.61864e-08   8.13983e-07 DIIS
   @UHF iter  10:  -795.13132129170822   -3.03976e-09   2.69859e-07 DIIS
   @UHF iter  11:  -795.13132129212454   -4.16321e-10   8.09562e-08 DIIS
   @UHF iter  12:  -795.13132129216103   -3.64935e-11   1.80779e-08 DIIS
   @UHF iter  13:  -795.13132129216262   -1.59162e-12   4.93985e-09 DIIS
  Energy and wave function converged.


  ==> Post-Iterations <==

   @Spin Contamination Metric:   3.467287020E-02
   @S^2 Expected:                7.500000000E-01
   @S^2 Observed:                7.846728702E-01
   @S   Expected:                5.000000000E-01
   @S   Observed:                5.000000000E-01

    Orbital Energies [Eh]
    ---------------------

    Alpha Occupied:                                                       

       1Ag   -91.746406     1B1u  -91.746404     2Ag    -8.744967  
       2B1u   -8.744754     1B3u   -6.433859     1B2g   -6.433833  
       3Ag    -6.424205     3B1u   -6.423687     1B2u   -6.422437  
       1B3g   -6.422408     4Ag    -0.803714     4B1u   -0.594006  
       2B3u   -0.264357     5Ag    -0.257263     2B2u   -0.229496  
       2B2g   -0.135292     2B3g   -0.092631  

    Alpha Virtual:                                                        

       5B1u    0.174815     6Ag     0.229431     3B3u    0.238425  
       3B2u    0.243550     3B2g    0.249502     3B3g    0.254448  
       7Ag     0.290447     6B1u    0.321952     7B1u    0.406949  
       1B1g    0.427896     8Ag     0.427921     4B3u    0.477463  
       4B2u    0.489965     9Ag     0.504095     1Au     0.520470  
       8B1u    0.520597     4B2g    0.571268     4B3g    0.581139  
       9B1u    0.588637     5B3u    0.728236     5B2u    0.744970  
      10Ag     0.826465    10B1u    0.827904     5B2g    0.831158  
       6B3u    0.837445     5B3g    0.848558     6B2u    0.857176  
      11Ag     0.868950     2B1g    0.883055    12Ag     0.884717  
       2Au     0.965303    11B1u    0.965357    13Ag     0.975381  
       7B3u    1.010262     7B2u    1.010270     6B2g    1.044013  
       6B3g    1.064168     3B1g    1.081585    14Ag     1.082329  
       7B2g    1.152248     7B3g    1.152257    12B1u    1.173494  
       8B3u    1.316675     8B2u    1.331912    13B1u    1.349362  
       3Au     1.351295    14B1u    1.380418     8B2g    1.514613  
       8B3g    1.531543    15Ag     1.618261    15B1u    1.788413  
       4B1g    2.135409    16Ag     2.135880     9B3u    2.191709  
      16B1u    2.204729     4Au     2.207324     9B2u    2.208765  
      17B1u    2.219718     9B2g    2.348578     9B3g    2.372263  
      17Ag     2.372362    10B3u    2.436579    10B2u    2.455956  
      18Ag     2.496670     5B1g    2.504039    19Ag     2.512810  
      11B3u    2.551410    11B2u    2.556458    12B3u    2.557500  
      12B2u    2.578445    10B2g    2.615918    10B3g    2.615948  
      11B2g    2.735917    18B1u    2.748847     5Au     2.750054  
      11B3g    2.757145    19B1u    2.866984    20Ag     2.964316  
      12B2g    3.066017    12B3g    3.087705    20B1u    4.183741  
      21Ag     4.965165    21B1u    5.774882    22Ag     7.542764  
       6B1g    7.542895    22B1u    7.575345     6Au     7.575402  
      13B3u    7.578607    13B2u    7.590811    13B2g    7.676087  
      13B3g    7.688356    23Ag     7.740453    23B1u    7.783526  

    Beta Occupied:                                                        

       1Ag   -91.741019     1B1u  -91.741016     2Ag    -8.739113  
       2B1u   -8.738860     3Ag    -6.421625     3B1u   -6.421092  
       1B2u   -6.419042     1B3g   -6.419013     1B3u   -6.410207  
       1B2g   -6.410157     4Ag    -0.766945     4B1u   -0.524223  
       5Ag    -0.240278     2B2u   -0.220965     2B3u   -0.144598  
       2B3g   -0.079471  

    Beta Virtual:                                                         

       5B1u    0.175515     2B2g    0.203216     6Ag     0.230437  
       3B3u    0.242705     3B2u    0.243676     3B3g    0.255232  
       3B2g    0.281161     7Ag     0.288371     6B1u    0.329772  
       7B1u    0.412940     1B1g    0.433771     8Ag     0.433963  
       4B2u    0.488448     4B3u    0.499700     9Ag     0.508223  
       1Au     0.533968     8B1u    0.534195     4B3g    0.582212  
       4B2g    0.589028     9B1u    0.595605     5B2u    0.747153  
       5B3u    0.750687    10B1u    0.833069    10Ag     0.833762  
       5B3g    0.851635     6B2u    0.858682     5B2g    0.862781  
      11Ag     0.873333     6B3u    0.876449    12Ag     0.904389  
       2B1g    0.904973    13Ag     0.985625     2Au     1.003514  
      11B1u    1.003727     7B2u    1.015507     7B3u    1.015519  
       6B3g    1.065148     6B2g    1.076237     3B1g    1.092463  
      14Ag     1.092683     7B3g    1.162284     7B2g    1.162290  
      12B1u    1.184265     8B3u    1.328983     8B2u    1.332149  
      13B1u    1.358002     3Au     1.358561    14B1u    1.384963  
       8B2g    1.531455     8B3g    1.533627    15Ag     1.631335  
      15B1u    1.802366    16Ag     2.152621     4B1g    2.152641  
       9B3u    2.203527     9B2u    2.209975    16B1u    2.218663  
       4Au     2.223238    17B1u    2.223964     9B2g    2.372746  
       9B3g    2.374779    17Ag     2.375242    10B3u    2.453388  
      10B2u    2.457875    18Ag     2.508568     5B1g    2.515639  
      19Ag     2.516606    11B2u    2.577625    11B3u    2.578013  
      12B2u    2.583933    12B3u    2.591728    10B2g    2.638271  
      10B3g    2.638272    11B2g    2.760388    11B3g    2.760621  
      18B1u    2.764315     5Au     2.764451    19B1u    2.873763  
      20Ag     2.969721    12B2g    3.086336    12B3g    3.089861  
      20B1u    4.186807    21Ag     4.976188    21B1u    5.784823  
      22Ag     7.549097     6B1g    7.549155    22B1u    7.581689  
       6Au     7.581719    13B3u    7.584153    13B2u    7.591581  
      13B2g    7.681901    13B3g    7.689155    23Ag     7.742304  
      23B1u    7.785791  

    Final Occupation by Irrep:
             Ag   B1g   B2g   B3g    Au   B1u   B2u   B3u 
    DOCC [     5,    0,    1,    2,    0,    4,    2,    2 ]
    SOCC [     0,    0,    1,    0,    0,    0,    0,    0 ]

  @UHF Final Energy:  -795.13132129216262

   => Energetics <=

    Nuclear Repulsion Energy =             67.2956381871279916
    One-Electron Energy =               -1241.4965709693049121
    Two-Electron Energy =                 379.0696114900144380
    Total Energy =                       -795.1313212921625109

  UHF NO Occupations:
  HONO-2 :    4B1u 1.9974855
  HONO-1 :    2B3u 1.9879196
  HONO-0 :    2B2g 1.0000000
  LUNO+0 :    3B3u 0.0120804
  LUNO+1 :    5B1u 0.0025145
  LUNO+2 :    6 Ag 0.0022571
  LUNO+3 :    3B3g 0.0003085


Computation Completed


Properties will be evaluated at   0.000000,   0.000000,   0.000000 [a0]

Properties computed using the SCF density matrix

  Nuclear Dipole Moment: [e a0]
     X:     0.0000      Y:     0.0000      Z:     0.0000

  Electronic Dipole Moment: [e a0]
     X:     0.0000      Y:     0.0000      Z:     0.0000

  Dipole Moment: [e a0]
     X:     0.0000      Y:     0.0000      Z:     0.0000     Total:     0.0000

  Dipole Moment: [D]
     X:     0.0000      Y:     0.0000      Z:     0.0000     Total:     0.0000


*** tstop() called on n412-040.vsc4.prov at Tue Jan 26 18:30:10 2021
Module time:
	user time   =      36.44 seconds =       0.61 minutes
	system time =       2.27 seconds =       0.04 minutes
	total time  =         11 seconds =       0.18 minutes
Total time:
	user time   =      36.44 seconds =       0.61 minutes
	system time =       2.27 seconds =       0.04 minutes
	total time  =         11 seconds =       0.18 minutes

*** tstart() called on n412-040.vsc4.prov
*** at Tue Jan 26 18:30:10 2021


	Wfn Parameters:
	--------------------
	Wavefunction         = CCSD_T
	Number of irreps     = 8
	Number of MOs        = 110
	Number of active MOs = 100
	AO-Basis             = NONE
	Semicanonical        = false
	Reference            = UHF
	Print Level          = 1

	IRREP	# MOs	# FZDC	# DOCC	# SOCC	# VIRT	# FZVR
	-----	-----	------	------	------	------	------
	 Ag	   23	    3	    2	    0	    18	    0
	 B1g	   6	    0	    0	    0	    6	    0
	 B2g	   13	    1	    0	    1	    11	    0
	 B3g	   13	    1	    1	    0	    11	    0
	 Au	   6	    0	    0	    0	    6	    0
	 B1u	   23	    3	    1	    0	    19	    0
	 B2u	   13	    1	    1	    0	    11	    0
	 B3u	   13	    1	    1	    0	    11	    0
	Transforming integrals...
	IWL integrals will be deleted.
	(OO|OO)...
	Presorting SO-basis two-electron integrals.
	Sorting File: SO Ints (nn|nn) nbuckets = 1
	Constructing frozen core operators
	Starting AA/AB first half-transformation.
	Sorting AA/AB half-transformed integrals.
	Starting BB first half-transformation.
	Sorting BB half-transformed integrals.
	First half integral transformation complete.
	Starting AA second half-transformation.
	Starting AB second half-transformation.
	Starting BB second half-transformation.
	Two-electron integral transformation complete.
	(OO|OV)...
	Starting AA second half-transformation.
	Starting AB second half-transformation.
	Starting BB second half-transformation.
	Two-electron integral transformation complete.
	(OO|VV)...
	Starting AA second half-transformation.
	Starting AB second half-transformation.
	Starting BB second half-transformation.
	Two-electron integral transformation complete.
	(OV|OO)...
	Starting AA/AB first half-transformation.
	Sorting AA/AB half-transformed integrals.
	Starting BB first half-transformation.
	Sorting BB half-transformed integrals.
	First half integral transformation complete.
	Starting AA second half-transformation.
	Starting AB second half-transformation.
	Starting BB second half-transformation.
	Two-electron integral transformation complete.
	(OV|OV)...
	Starting AA second half-transformation.
	Starting AB second half-transformation.
	Starting BB second half-transformation.
	Two-electron integral transformation complete.
	(OV|VV)...
	Starting AA second half-transformation.
	Starting AB second half-transformation.
	Starting BB second half-transformation.
	Two-electron integral transformation complete.
	(VV|OO)...
	Starting AA/AB first half-transformation.
	Sorting AA/AB half-transformed integrals.
	Starting BB first half-transformation.
	Sorting BB half-transformed integrals.
	First half integral transformation complete.
	Starting AA second half-transformation.
	Starting AB second half-transformation.
	Starting BB second half-transformation.
	Two-electron integral transformation complete.
	(VV|OV)...
	Starting AA second half-transformation.
	Starting AB second half-transformation.
	Starting BB second half-transformation.
	Two-electron integral transformation complete.
	(VV|VV)...
	Starting AA second half-transformation.
	Starting AB second half-transformation.
	Starting BB second half-transformation.
	Two-electron integral transformation complete.
	Frozen core energy     =   -832.93622956473405

	Size of irrep 0 of <AB|CD> integrals:      0.329 (MW) /      2.636 (MB)
	Size of irrep 1 of <AB|CD> integrals:      0.215 (MW) /      1.722 (MB)
	Size of irrep 2 of <AB|CD> integrals:      0.291 (MW) /      2.324 (MB)
	Size of irrep 3 of <AB|CD> integrals:      0.291 (MW) /      2.324 (MB)
	Size of irrep 4 of <AB|CD> integrals:      0.215 (MW) /      1.722 (MB)
	Size of irrep 5 of <AB|CD> integrals:      0.384 (MW) /      3.075 (MB)
	Size of irrep 6 of <AB|CD> integrals:      0.291 (MW) /      2.324 (MB)
	Size of irrep 7 of <AB|CD> integrals:      0.291 (MW) /      2.324 (MB)
	Total:                                     2.307 (MW) /     18.452 (MB)

	Size of irrep 0 of <ab|cd> integrals:      0.342 (MW) /      2.738 (MB)
	Size of irrep 1 of <ab|cd> integrals:      0.226 (MW) /      1.805 (MB)
	Size of irrep 2 of <ab|cd> integrals:      0.310 (MW) /      2.482 (MB)
	Size of irrep 3 of <ab|cd> integrals:      0.297 (MW) /      2.376 (MB)
	Size of irrep 4 of <ab|cd> integrals:      0.226 (MW) /      1.805 (MB)
	Size of irrep 5 of <ab|cd> integrals:      0.398 (MW) /      3.185 (MB)
	Size of irrep 6 of <ab|cd> integrals:      0.297 (MW) /      2.376 (MB)
	Size of irrep 7 of <ab|cd> integrals:      0.311 (MW) /      2.491 (MB)
	Total:                                     2.407 (MW) /     19.258 (MB)

	Size of irrep 0 of <Ab|Cd> integrals:      1.568 (MW) /     12.540 (MB)
	Size of irrep 1 of <Ab|Cd> integrals:      0.882 (MW) /      7.054 (MB)
	Size of irrep 2 of <Ab|Cd> integrals:      1.201 (MW) /      9.610 (MB)
	Size of irrep 3 of <Ab|Cd> integrals:      1.175 (MW) /      9.400 (MB)
	Size of irrep 4 of <Ab|Cd> integrals:      0.882 (MW) /      7.054 (MB)
	Size of irrep 5 of <Ab|Cd> integrals:      1.565 (MW) /     12.520 (MB)
	Size of irrep 6 of <Ab|Cd> integrals:      1.175 (MW) /      9.400 (MB)
	Size of irrep 7 of <Ab|Cd> integrals:      1.203 (MW) /      9.627 (MB)
	Total:                                     9.651 (MW) /     77.205 (MB)

	Size of irrep 0 of <IA|BC> integrals:      0.123 (MW) /      0.983 (MB)
	Size of irrep 1 of <IA|BC> integrals:      0.058 (MW) /      0.460 (MB)
	Size of irrep 2 of <IA|BC> integrals:      0.088 (MW) /      0.707 (MB)
	Size of irrep 3 of <IA|BC> integrals:      0.088 (MW) /      0.707 (MB)
	Size of irrep 4 of <IA|BC> integrals:      0.058 (MW) /      0.460 (MB)
	Size of irrep 5 of <IA|BC> integrals:      0.124 (MW) /      0.992 (MB)
	Size of irrep 6 of <IA|BC> integrals:      0.088 (MW) /      0.707 (MB)
	Size of irrep 7 of <IA|BC> integrals:      0.088 (MW) /      0.707 (MB)
	Total:                                     0.716 (MW) /      5.724 (MB)

	Size of irrep 0 of <ia|bc> integrals:      0.111 (MW) /      0.890 (MB)
	Size of irrep 1 of <ia|bc> integrals:      0.049 (MW) /      0.395 (MB)
	Size of irrep 2 of <ia|bc> integrals:      0.074 (MW) /      0.588 (MB)
	Size of irrep 3 of <ia|bc> integrals:      0.083 (MW) /      0.663 (MB)
	Size of irrep 4 of <ia|bc> integrals:      0.049 (MW) /      0.395 (MB)
	Size of irrep 5 of <ia|bc> integrals:      0.114 (MW) /      0.909 (MB)
	Size of irrep 6 of <ia|bc> integrals:      0.083 (MW) /      0.663 (MB)
	Size of irrep 7 of <ia|bc> integrals:      0.071 (MW) /      0.571 (MB)
	Total:                                     0.634 (MW) /      5.074 (MB)

	Size of irrep 0 of <Ia|Bc> integrals:      0.125 (MW) /      1.002 (MB)
	Size of irrep 1 of <Ia|Bc> integrals:      0.059 (MW) /      0.473 (MB)
	Size of irrep 2 of <Ia|Bc> integrals:      0.092 (MW) /      0.737 (MB)
	Size of irrep 3 of <Ia|Bc> integrals:      0.089 (MW) /      0.711 (MB)
	Size of irrep 4 of <Ia|Bc> integrals:      0.059 (MW) /      0.473 (MB)
	Size of irrep 5 of <Ia|Bc> integrals:      0.126 (MW) /      1.011 (MB)
	Size of irrep 6 of <Ia|Bc> integrals:      0.089 (MW) /      0.711 (MB)
	Size of irrep 7 of <Ia|Bc> integrals:      0.091 (MW) /      0.728 (MB)
	Total:                                     0.731 (MW) /      5.846 (MB)

	Size of irrep 0 of <iA|bC> integrals:      0.110 (MW) /      0.881 (MB)
	Size of irrep 1 of <iA|bC> integrals:      0.048 (MW) /      0.383 (MB)
	Size of irrep 2 of <iA|bC> integrals:      0.070 (MW) /      0.561 (MB)
	Size of irrep 3 of <iA|bC> integrals:      0.082 (MW) /      0.659 (MB)
	Size of irrep 4 of <iA|bC> integrals:      0.048 (MW) /      0.383 (MB)
	Size of irrep 5 of <iA|bC> integrals:      0.111 (MW) /      0.891 (MB)
	Size of irrep 6 of <iA|bC> integrals:      0.082 (MW) /      0.659 (MB)
	Size of irrep 7 of <iA|bC> integrals:      0.069 (MW) /      0.553 (MB)
	Total:                                     0.621 (MW) /      4.971 (MB)

	Size of irrep 0 of tIjAb amplitudes:       0.010 (MW) /      0.080 (MB)
	Size of irrep 1 of tIjAb amplitudes:       0.003 (MW) /      0.023 (MB)
	Size of irrep 2 of tIjAb amplitudes:       0.004 (MW) /      0.035 (MB)
	Size of irrep 3 of tIjAb amplitudes:       0.007 (MW) /      0.052 (MB)
	Size of irrep 4 of tIjAb amplitudes:       0.003 (MW) /      0.023 (MB)
	Size of irrep 5 of tIjAb amplitudes:       0.009 (MW) /      0.070 (MB)
	Size of irrep 6 of tIjAb amplitudes:       0.007 (MW) /      0.052 (MB)
	Size of irrep 7 of tIjAb amplitudes:       0.005 (MW) /      0.044 (MB)
	Total:                                     0.047 (MW) /      0.378 (MB)

	Nuclear Rep. energy          =     67.29563818712799
	SCF energy                   =   -795.13132129216262
	One-electron energy          =    -54.62821886963199
	Two-electron (AA) energy     =      6.18353425718655
	Two-electron (BB) energy     =      4.40355343524070
	Two-electron (AB) energy     =     14.55040126264933
	Two-electron energy          =     25.13748895507657
	Reference energy             =   -795.13132129216149

*** tstop() called on n412-040.vsc4.prov at Tue Jan 26 18:30:20 2021
Module time:
	user time   =       2.00 seconds =       0.03 minutes
	system time =       1.32 seconds =       0.02 minutes
	total time  =         10 seconds =       0.17 minutes
Total time:
	user time   =      38.45 seconds =       0.64 minutes
	system time =       3.59 seconds =       0.06 minutes
	total time  =         21 seconds =       0.35 minutes
            **************************
            *                        *
            *        CCENERGY        *
            *                        *
            **************************

    Nuclear Rep. energy (wfn)     =   67.295638187127992
    SCF energy          (wfn)     = -795.131321292162625
    Reference energy    (file100) = -795.131321292161488

    Input parameters:
    -----------------
    Wave function   =     CCSD_T
    Reference wfn   =     UHF
    Brueckner       =     No
    Memory (Mbytes) =     250000.0
    Maxiter         =     50
    R_Convergence   =     1.0e-07
    E_Convergence   =     1.0e-06
    Restart         =     Yes
    DIIS            =     Yes
    AO Basis        =     NONE
    ABCD            =     NEW
    Cache Level     =     2
    Cache Type      =     LRU
    Print Level     =     1
    Num. of threads =     48
    # Amps to Print =     10
    Print MP2 Amps? =     No
    Analyze T2 Amps =     No
    Print Pair Ener =     No
    Local CC        =     No
    SCS-MP2         =     False
    SCSN-MP2        =     False
    SCS-CCSD        =     False

MP2 correlation energy -0.3460999581680944
                Solving CC Amplitude Equations
                ------------------------------
  Iter             Energy              RMS        T1Diag      D1Diag    New D1Diag    D2Diag
  ----     ---------------------    ---------   ----------  ----------  ----------   --------
     0        -0.346099958168094    0.000e+00    0.000000    0.000000    0.000000    0.000000
     1        -0.360638528290811    8.065e-02    0.015321    0.000000    0.000000    0.000000
     2        -0.371185232705336    2.526e-02    0.017960    0.000000    0.000000    0.000000
     3        -0.373299324691816    1.181e-02    0.021315    0.000000    0.000000    0.000000
     4        -0.373166304515356    3.279e-03    0.022394    0.000000    0.000000    0.000000
     5        -0.373139676518317    1.055e-03    0.022653    0.000000    0.000000    0.000000
     6        -0.373132794984935    3.669e-04    0.022717    0.000000    0.000000    0.000000
     7        -0.373131599682360    1.314e-04    0.022723    0.000000    0.000000    0.000000
     8        -0.373133321250594    5.004e-05    0.022722    0.000000    0.000000    0.000000
     9        -0.373133799686994    1.669e-05    0.022722    0.000000    0.000000    0.000000
    10        -0.373133511710057    5.885e-06    0.022721    0.000000    0.000000    0.000000
    11        -0.373133572371924    2.017e-06    0.022721    0.000000    0.000000    0.000000
    12        -0.373133551067357    5.763e-07    0.022721    0.000000    0.000000    0.000000
    13        -0.373133568452896    2.203e-07    0.022721    0.000000    0.000000    0.000000
    14        -0.373133570842837    7.442e-08    0.022721    0.000000    0.000000    0.000000

    Iterations converged.


    Largest TIA Amplitudes:
              6  83        -0.0271888047
              2  24         0.0183064609
              5  72        -0.0172422349
              1   7         0.0157121740
              6  85         0.0150844300
              1   3        -0.0144025713
              6  82        -0.0120959767
              1   5        -0.0083129170
              4  59        -0.0082802039
              5  74         0.0079274021

    Largest Tia Amplitudes:
              5  84         0.0245976990
              5  86        -0.0239269891
              5  83         0.0206783186
              5  85        -0.0191591699
              4  73        -0.0183616108
              3  54        -0.0139797688
              3  59        -0.0121214135
              1   2         0.0120210405
              3  56        -0.0110401087
              3  57         0.0104330984

    Largest TIJAB Amplitudes:
      2   1  83  54        -0.0175874698
      3   1  72  54         0.0174999691
      3   1  72  53        -0.0156550177
      3   1  74  54        -0.0155329382
      6   5  18   2        -0.0153890724
      2   1  85  54         0.0152320819
      2   1  83  53         0.0151988060
      3   2  58  47         0.0145463348
      6   5  19   6         0.0138008737
      3   2  55  46        -0.0130063921

    Largest Tijab Amplitudes:
      5   1  55  24         0.0290516472
      5   1  54  24        -0.0262764734
      5   1  55  25        -0.0243330917
      5   2  73  24        -0.0223406925
      5   1  54  25         0.0210938357
      2   1  73  55         0.0186863800
      5   2  73  25         0.0173286275
      5   4  18   2        -0.0163319014
      5   1  57  24         0.0162278724
      2   1  75  55        -0.0161531861

    Largest TIjAb Amplitudes:
      1   1  54  55        -0.0350836517
      1   5  53  24         0.0308517760
      1   1  53  55         0.0298640678
      1   5  54  24        -0.0296600256
      2   5  83  24        -0.0285604743
      1   1  53  54        -0.0277526775
      1   1  54  54         0.0265315097
      1   5  54  25         0.0256532247
      1   5  53  25        -0.0246364089
      3   2  72  73        -0.0232967582

    SCF energy       (wfn)                    = -795.131321292162625
    Reference energy (file100)                = -795.131321292161488

    Opposite-spin MP2 correlation energy      =   -0.258287301929779
    Same-spin MP2 correlation energy          =   -0.087812656238315
    Singles MP2 correlation energy            =   -0.000000000000000
    MP2 correlation energy                    =   -0.346099958168094
      * MP2 total energy                      = -795.477421250329598

    Opposite-spin CCSD correlation energy     =   -0.291174541845521
    Same-spin CCSD correlation energy         =   -0.081959028997315
    Singles CCSD correlation energy           =    0.000000000000000
    CCSD correlation energy                   =   -0.373133570842837
      * CCSD total energy                     = -795.504454863004298

            **************************
            *                        *
            *        CCTRIPLES       *
            *                        *
            **************************


    Wave function   =    CCSD_T
    Reference wfn   =      UHF

    Nuclear Rep. energy (wfn)                =   67.295638187127992
    SCF energy          (wfn)                = -795.131321292162625
    Reference energy    (file100)            = -795.131321292161488
    CCSD energy         (file100)            =   -0.373133570842837
    Total CCSD energy   (file100)            = -795.504454863004298

    Number of ijk index combinations:
    Spin Case AAA:                                  35
    Spin Case BBB:                                  20
    Spin Case AAB:                                 126
    Spin Case ABB:                                 105
    AAA (T) energy                             =   -0.000580584309449
    BBB (T) energy                             =   -0.000637015865355
    AAB (T) energy                             =   -0.010502426235956
    ABB (T) energy                             =   -0.010054425428548
    (T) energy                                   =   -0.021774451839308
      * CCSD(T) total energy                     = -795.526229314843590


    Psi4 stopped on: Tuesday, 26 January 2021 06:30PM
    Psi4 wall time for execution: 0:00:41.03

*** Psi4 exiting successfully. Buy a developer a beer!
