
    -----------------------------------------------------------------------
          Psi4: An Open-Source Ab Initio Electronic Structure Package
                               Psi4 1.4a3.dev88 

                         Git: Rev {master} 262e345 


    D. G. A. Smith, L. A. Burns, A. C. Simmonett, R. M. Parrish,
    M. C. Schieber, R. Galvelis, P. Kraus, H. Kruse, R. Di Remigio,
    A. Alenaizan, A. M. James, S. Lehtola, J. P. Misiewicz, M. Scheurer,
    R. A. Shaw, J. B. Schriber, Y. Xie, Z. L. Glick, D. A. Sirianni,
    J. S. O'Brien, J. M. Waldrop, A. Kumar, E. G. Hohenstein,
    B. P. Pritchard, B. R. Brooks, H. F. Schaefer III, A. Yu. Sokolov,
    K. Patkowski, A. E. DePrince III, U. Bozkaya, R. A. King,
    F. A. Evangelista, J. M. Turney, T. D. Crawford, C. D. Sherrill,
    J. Chem. Phys. 152(18) 184108 (2020). https://doi.org/10.1063/5.0006002

                            Additional Code Authors
    E. T. Seidl, C. L. Janssen, E. F. Valeev, M. L. Leininger,
    J. F. Gonthier, R. M. Richard, H. R. McAlexander, M. Saitow, X. Wang,
    P. Verma, and M. H. Lechner

             Previous Authors, Complete List of Code Contributors,
                       and Citations for Specific Modules
    https://github.com/psi4/psi4/blob/master/codemeta.json
    https://github.com/psi4/psi4/graphs/contributors
    http://psicode.org/psi4manual/master/introduction.html#citing-psifour

    -----------------------------------------------------------------------


    Psi4 started on: Tuesday, 26 January 2021 06:20PM

    Process ID: 407177
    Host:       n412-040.vsc4.prov
    PSIDATADIR: /home/fs71337/gallo4/psi4/eri-6/psi4/build/stage/share/psi4
    Memory:     500.0 MiB
    Threads:    48
    
  ==> Input File <==

--------------------------------------------------------------------------
# Any line starting with the # character is a comment line
memory 250000 mb
molecule molecule{
-1 1
N          0.0000000000        0.0000000000        0.0812547326
H          0.0000000000        0.8002632301       -0.5645726249
H          0.0000000000       -0.8002632301       -0.5645726249
}

set {
  reference rhf
  basis aug-cc-pV(t+d)Z
  scf_type OUT_OF_CORE
  freeze_core true
}

energy('ccsd(t)')
--------------------------------------------------------------------------

  Memory set to 232.831 GiB by Python driver.

Scratch directory: /binfl/lv71337/airmler/temp/

*** tstart() called on n412-040.vsc4.prov
*** at Tue Jan 26 18:20:52 2021

   => Loading Basis Set <=

    Name: AUG-CC-PV(T+D)Z
    Role: ORBITAL
    Keyword: BASIS
    atoms 1   entry N          line   313 file /home/fs71337/gallo4/psi4/eri-6/psi4/build/stage/share/psi4/basis/aug-cc-pv_tpd_z.gbs 
    atoms 2-3 entry H          line    68 file /home/fs71337/gallo4/psi4/eri-6/psi4/build/stage/share/psi4/basis/aug-cc-pv_tpd_z.gbs 


         ---------------------------------------------------------
                                   SCF
               by Justin Turney, Rob Parrish, Andy Simmonett
                          and Daniel G. A. Smith
                              RHF Reference
                       48 Threads, 238418 MiB Core
         ---------------------------------------------------------

  ==> Geometry <==

    Molecular point group: c2v
    Full point group: C2v

    Geometry (in Angstrom), charge = -1, multiplicity = 1:

       Center              X                  Y                   Z               Mass       
    ------------   -----------------  -----------------  -----------------  -----------------
         N           -0.000000000000     0.000000000000     0.081265021432    14.003074004430
         H           -0.000000000000     0.800263230100    -0.564562336068     1.007825032230
         H            0.000000000000    -0.800263230100    -0.564562336068     1.007825032230

  Running in c2v symmetry.

  Rotational constants: A =     22.93787  B =     13.05917  C =      8.32151 [cm^-1]
  Rotational constants: A = 687659.93702  B = 391504.12038  C = 249472.44760 [MHz]
  Nuclear repulsion =    7.534831959308845

  Charge       = -1
  Multiplicity = 1
  Electrons    = 10
  Nalpha       = 5
  Nbeta        = 5

  ==> Algorithm <==

  SCF Algorithm Type is OUT_OF_CORE.
  DIIS enabled.
  MOM disabled.
  Fractional occupation disabled.
  Guess Type is SAD.
  Energy threshold   = 1.00e-08
  Density threshold  = 1.00e-08
  Integral threshold = 1.00e-12

  ==> Primary Basis <==

  Basis Set: AUG-CC-PV(T+D)Z
    Blend: AUG-CC-PV(T+D)Z
    Number of shells: 32
    Number of basis function: 92
    Number of Cartesian functions: 105
    Spherical Harmonics?: true
    Max angular momentum: 3

  ==> Integral Setup <==

  ==> DiskJK: Disk-Based J/K Matrices <==

    J tasked:                  Yes
    K tasked:                  Yes
    wK tasked:                  No
    Memory [MiB]:           178813
    Schwarz Cutoff:          1E-12

  Minimum eigenvalue in the overlap matrix is 3.3917414893E-04.
  Reciprocal condition number of the overlap matrix is 5.9028591987E-05.
    Using symmetric orthogonalization.

  ==> Pre-Iterations <==

  SCF Guess: Superposition of Atomic Densities via on-the-fly atomic UHF (no occupation information).


 WARNING: Atomic UHF is not converging! Try casting from a smaller basis or call Rob at CCMST.

 WARNING: Atomic UHF is not converging! Try casting from a smaller basis or call Rob at CCMST.
   -------------------------
    Irrep   Nso     Nmo    
   -------------------------
     A1        35      35 
     A2        12      12 
     B1        18      18 
     B2        27      27 
   -------------------------
    Total      92      92
   -------------------------

  ==> Iterations <==

                        Total Energy        Delta E     RMS |[F,P]|

   @RHF iter SAD:   -54.73510863555509   -5.47351e+01   0.00000e+00 
    Occupation by irrep:
             A1    A2    B1    B2 
    DOCC [     4,    0,    0,    1 ]

   @RHF iter   1:   -55.25015201612973   -5.15043e-01   1.62237e-02 DIIS
    Occupation by irrep:
             A1    A2    B1    B2 
    DOCC [     3,    0,    1,    1 ]

   @RHF iter   2:   -54.50705041836988    7.43102e-01   2.17793e-02 DIIS
   @RHF iter   3:   -55.49600504699265   -9.88955e-01   6.01268e-03 DIIS
   @RHF iter   4:   -55.54521881421979   -4.92138e-02   1.23494e-03 DIIS
   @RHF iter   5:   -55.54832124806569   -3.10243e-03   1.17529e-04 DIIS
   @RHF iter   6:   -55.54838842203466   -6.71740e-05   7.95394e-05 DIIS
   @RHF iter   7:   -55.54839855284597   -1.01308e-05   4.45058e-05 DIIS
   @RHF iter   8:   -55.54840182465634   -3.27181e-06   1.74641e-05 DIIS
   @RHF iter   9:   -55.54840243026476   -6.05608e-07   4.62516e-06 DIIS
   @RHF iter  10:   -55.54840248346865   -5.32039e-08   7.28138e-07 DIIS
   @RHF iter  11:   -55.54840248518622   -1.71757e-09   8.59688e-08 DIIS
   @RHF iter  12:   -55.54840248521078   -2.45564e-11   6.58545e-09 DIIS
  Energy and wave function converged.


  ==> Post-Iterations <==

    Orbital Energies [Eh]
    ---------------------

    Doubly Occupied:                                                      

       1A1   -15.226187     2A1    -0.760045     1B2    -0.290367  
       3A1    -0.142200     1B1    -0.049090  

    Virtual:                                                              

       4A1     0.165383     2B2     0.167765     5A1     0.294597  
       2B1     0.312083     3B2     0.328248     6A1     0.342551  
       4B2     0.417235     7A1     0.431512     1A2     0.454845  
       8A1     0.498082     3B1     0.503757     5B2     0.550271  
       9A1     0.647659     6B2     0.673011     7B2     0.726248  
      10A1     0.760411     4B1     0.796900    11A1     0.821029  
       2A2     0.828945    12A1     1.009656     5B1     1.067842  
       8B2     1.074422    13A1     1.083329     6B1     1.117729  
       9B2     1.144717     3A2     1.160237    14A1     1.161277  
      10B2     1.263062    15A1     1.272037     7B1     1.294313  
      11B2     1.312556    12B2     1.361670     4A2     1.392547  
      16A1     1.398405    17A1     1.583533     5A2     1.612828  
       8B1     1.699275    18A1     1.722667    19A1     1.979932  
       9B1     1.994659    13B2     2.027435    14B2     2.049944  
       6A2     2.060033    20A1     2.142420    10B1     2.211633  
      15B2     2.306635    21A1     2.358357    16B2     2.419783  
      11B1     2.444352    22A1     2.534554    17B2     2.634186  
       7A2     2.690504    23A1     2.768206    24A1     3.610791  
      18B2     3.650069    12B1     3.957672     8A2     4.260903  
      25A1     4.303363    26A1     4.330808    13B1     4.331353  
      19B2     4.393729     9A2     4.478191    14B1     4.517707  
      20B2     4.554530    27A1     4.618683    21B2     4.743192  
      28A1     4.864535    22B2     4.974693    10A2     5.011644  
      15B1     5.159660    29A1     5.237450    23B2     5.274125  
      30A1     5.424205    24B2     5.491522    16B1     5.608991  
      17B1     5.628298    11A2     5.764626    31A1     5.818254  
      18B1     6.251409    32A1     6.267654    25B2     6.306933  
      12A2     6.429794    33A1     6.436026    26B2     6.820724  
      34A1     6.844373    27B2     7.904050    35A1    14.965418  

    Final Occupation by Irrep:
             A1    A2    B1    B2 
    DOCC [     3,    0,    1,    1 ]

  @RHF Final Energy:   -55.54840248521078

   => Energetics <=

    Nuclear Repulsion Energy =              7.5348319593088453
    One-Electron Energy =                 -93.2306925500214021
    Two-Electron Energy =                  30.1474581055017765
    Total Energy =                        -55.5484024852107794

Computation Completed


Properties will be evaluated at   0.000000,   0.000000,   0.000000 [a0]

Properties computed using the SCF density matrix

  Nuclear Dipole Moment: [e a0]
     X:     0.0000      Y:     0.0000      Z:    -1.0588

  Electronic Dipole Moment: [e a0]
     X:     0.0000      Y:     0.0000      Z:     0.4698

  Dipole Moment: [e a0]
     X:     0.0000      Y:     0.0000      Z:    -0.5890     Total:     0.5890

  Dipole Moment: [D]
     X:     0.0000      Y:     0.0000      Z:    -1.4970     Total:     1.4970


*** tstop() called on n412-040.vsc4.prov at Tue Jan 26 18:20:55 2021
Module time:
	user time   =      26.27 seconds =       0.44 minutes
	system time =       1.21 seconds =       0.02 minutes
	total time  =          3 seconds =       0.05 minutes
Total time:
	user time   =      26.27 seconds =       0.44 minutes
	system time =       1.21 seconds =       0.02 minutes
	total time  =          3 seconds =       0.05 minutes

*** tstart() called on n412-040.vsc4.prov
*** at Tue Jan 26 18:20:55 2021


	Wfn Parameters:
	--------------------
	Wavefunction         = CCSD_T
	Number of irreps     = 4
	Number of MOs        = 92
	Number of active MOs = 91
	AO-Basis             = NONE
	Semicanonical        = false
	Reference            = RHF
	Print Level          = 1

	IRREP	# MOs	# FZDC	# DOCC	# SOCC	# VIRT	# FZVR
	-----	-----	------	------	------	------	------
	 A1	   35	    1	    2	    0	    32	    0
	 A2	   12	    0	    0	    0	    12	    0
	 B1	   18	    0	    1	    0	    17	    0
	 B2	   27	    0	    1	    0	    26	    0
	Transforming integrals...
	IWL integrals will be deleted.
	(OO|OO)...
	Presorting SO-basis two-electron integrals.
	Sorting File: SO Ints (nn|nn) nbuckets = 1
	Constructing frozen core operators
	Starting first half-transformation.
	Sorting half-transformed integrals.
	First half integral transformation complete.
	Starting second half-transformation.
	Two-electron integral transformation complete.
	(OO|OV)...
	Starting second half-transformation.
	Two-electron integral transformation complete.
	(OO|VV)...
	Starting second half-transformation.
	Two-electron integral transformation complete.
	(OV|OO)...
	Starting first half-transformation.
	Sorting half-transformed integrals.
	First half integral transformation complete.
	Starting second half-transformation.
	Two-electron integral transformation complete.
	(OV|OV)...
	Starting second half-transformation.
	Two-electron integral transformation complete.
	(OV|VV)...
	Starting second half-transformation.
	Two-electron integral transformation complete.
	(VV|OO)...
	Starting first half-transformation.
	Sorting half-transformed integrals.
	First half integral transformation complete.
	Starting second half-transformation.
	Two-electron integral transformation complete.
	(VV|OV)...
	Starting second half-transformation.
	Two-electron integral transformation complete.
	(VV|VV)...
	Starting second half-transformation.
	Two-electron integral transformation complete.
	Frozen core energy     =    -46.79102747823630

	Size of irrep 0 of <ab|cd> integrals:      4.550 (MW) /     36.398 (MB)
	Size of irrep 1 of <ab|cd> integrals:      2.729 (MW) /     21.833 (MB)
	Size of irrep 2 of <ab|cd> integrals:      2.931 (MW) /     23.448 (MB)
	Size of irrep 3 of <ab|cd> integrals:      4.293 (MW) /     34.345 (MB)
	Total:                                    14.503 (MW) /    116.023 (MB)

	Size of irrep 0 of <ia|bc> integrals:      0.228 (MW) /      1.826 (MB)
	Size of irrep 1 of <ia|bc> integrals:      0.111 (MW) /      0.885 (MB)
	Size of irrep 2 of <ia|bc> integrals:      0.134 (MW) /      1.068 (MB)
	Size of irrep 3 of <ia|bc> integrals:      0.199 (MW) /      1.591 (MB)
	Total:                                     0.671 (MW) /      5.371 (MB)

	Size of irrep 0 of tijab amplitudes:       0.013 (MW) /      0.102 (MB)
	Size of irrep 1 of tijab amplitudes:       0.003 (MW) /      0.026 (MB)
	Size of irrep 2 of tijab amplitudes:       0.007 (MW) /      0.055 (MB)
	Size of irrep 3 of tijab amplitudes:       0.008 (MW) /      0.066 (MB)
	Total:                                     0.031 (MW) /      0.250 (MB)

	Nuclear Rep. energy          =      7.53483195930885
	SCF energy                   =    -55.54840248521078
	One-electron energy          =    -30.10101121686634
	Two-electron energy          =     13.80880425058266
	Reference energy             =    -55.54840248521113

*** tstop() called on n412-040.vsc4.prov at Tue Jan 26 18:21:00 2021
Module time:
	user time   =       1.04 seconds =       0.02 minutes
	system time =       0.65 seconds =       0.01 minutes
	total time  =          5 seconds =       0.08 minutes
Total time:
	user time   =      27.31 seconds =       0.46 minutes
	system time =       1.86 seconds =       0.03 minutes
	total time  =          8 seconds =       0.13 minutes
            **************************
            *                        *
            *        CCENERGY        *
            *                        *
            **************************

    Nuclear Rep. energy (wfn)     =    7.534831959308845
    SCF energy          (wfn)     =  -55.548402485210779
    Reference energy    (file100) =  -55.548402485211128

    Input parameters:
    -----------------
    Wave function   =     CCSD_T
    Reference wfn   =     RHF
    Brueckner       =     No
    Memory (Mbytes) =     250000.0
    Maxiter         =     50
    R_Convergence   =     1.0e-07
    E_Convergence   =     1.0e-06
    Restart         =     Yes
    DIIS            =     Yes
    AO Basis        =     NONE
    ABCD            =     NEW
    Cache Level     =     2
    Cache Type      =     LOW
    Print Level     =     1
    Num. of threads =     48
    # Amps to Print =     10
    Print MP2 Amps? =     No
    Analyze T2 Amps =     No
    Print Pair Ener =     No
    Local CC        =     No
    SCS-MP2         =     False
    SCSN-MP2        =     False
    SCS-CCSD        =     False

MP2 correlation energy -0.2610459543200205
                Solving CC Amplitude Equations
                ------------------------------
  Iter             Energy              RMS        T1Diag      D1Diag    New D1Diag    D2Diag
  ----     ---------------------    ---------   ----------  ----------  ----------   --------
     0        -0.261045954320021    0.000e+00    0.000000    0.000000    0.000000    0.152531
     1        -0.255044690145736    5.721e-02    0.014449    0.029413    0.029413    0.145800
     2        -0.261267655142747    2.561e-02    0.012926    0.026047    0.026047    0.154454
     3        -0.263766434601710    9.713e-03    0.015573    0.032328    0.032328    0.158703
     4        -0.263687389672289    3.191e-03    0.016423    0.034421    0.034421    0.160014
     5        -0.263666774190085    1.514e-03    0.016803    0.035520    0.035520    0.160533
     6        -0.263692712528252    7.112e-04    0.017013    0.036178    0.036178    0.160763
     7        -0.263689887201253    2.398e-04    0.017066    0.036398    0.036398    0.160784
     8        -0.263684356839476    1.018e-04    0.017077    0.036469    0.036469    0.160783
     9        -0.263684740783519    4.344e-05    0.017084    0.036511    0.036511    0.160789
    10        -0.263684815817822    1.588e-05    0.017085    0.036523    0.036523    0.160791
    11        -0.263684461739412    7.238e-06    0.017084    0.036524    0.036524    0.160791
    12        -0.263684363887404    3.366e-06    0.017084    0.036526    0.036526    0.160791
    13        -0.263684331845350    1.440e-06    0.017084    0.036525    0.036525    0.160792
    14        -0.263684317348097    6.946e-07    0.017084    0.036525    0.036525    0.160792
    15        -0.263684321175993    3.638e-07    0.017084    0.036525    0.036525    0.160791
    16        -0.263684322613429    1.937e-07    0.017084    0.036525    0.036525    0.160791
    17        -0.263684320922454    7.403e-08    0.017084    0.036525    0.036525    0.160791

    Iterations converged.


    Largest TIA Amplitudes:
              2  44        -0.0304738361
              1   1         0.0196328846
              2  45        -0.0165572100
              1   4        -0.0118697435
              1   3         0.0074210573
              2  49         0.0062574587
              3  69         0.0058996862
              2  54         0.0057546142
              3  74         0.0055457424
              1   7        -0.0051562967

    Largest TIjAb Amplitudes:
      2   2  44  44        -0.0444490768
      2   2  44  45        -0.0296342803
      2   2  45  44        -0.0296342803
      2   2  45  45        -0.0265001164
      1   1   9   9        -0.0235437108
      2   2  44  47        -0.0231572478
      2   2  47  44        -0.0231572478
      1   1  66  66        -0.0213572120
      2   2  47  47        -0.0211304588
      1   1   4   4        -0.0202393580

    SCF energy       (wfn)                    =  -55.548402485210779
    Reference energy (file100)                =  -55.548402485211128

    Opposite-spin MP2 correlation energy      =   -0.198796416384363
    Same-spin MP2 correlation energy          =   -0.062249537935658
    Singles MP2 correlation energy            =   -0.000000000000000
    MP2 correlation energy                    =   -0.261045954320021
      * MP2 total energy                      =  -55.809448439531145

    Opposite-spin CCSD correlation energy     =   -0.210556634559873
    Same-spin CCSD correlation energy         =   -0.053127686362581
    Singles CCSD correlation energy           =    0.000000000000000
    CCSD correlation energy                   =   -0.263684320922454
      * CCSD total energy                     =  -55.812086806133578

            **************************
            *                        *
            *        CCTRIPLES       *
            *                        *
            **************************


    Wave function   =    CCSD_T
    Reference wfn   =      RHF

    Nuclear Rep. energy (wfn)                =    7.534831959308845
    SCF energy          (wfn)                =  -55.548402485210779
    Reference energy    (file100)            =  -55.548402485211128
    CCSD energy         (file100)            =   -0.263684320922454
    Total CCSD energy   (file100)            =  -55.812086806133578

    Number of ijk index combinations:               20
    Memory available in words        :     31250000000
    ~Words needed per explicit thread:          131072
    Number of threads for explicit ijk threading:   48

    (T) energy                                =   -0.012210210865445
      * CCSD(T) total energy                  =  -55.824297016999026


    Psi4 stopped on: Tuesday, 26 January 2021 06:21PM
    Psi4 wall time for execution: 0:00:14.08

*** Psi4 exiting successfully. Buy a developer a beer!
