
    -----------------------------------------------------------------------
          Psi4: An Open-Source Ab Initio Electronic Structure Package
                               Psi4 1.4a3.dev88 

                         Git: Rev {master} 262e345 


    D. G. A. Smith, L. A. Burns, A. C. Simmonett, R. M. Parrish,
    M. C. Schieber, R. Galvelis, P. Kraus, H. Kruse, R. Di Remigio,
    A. Alenaizan, A. M. James, S. Lehtola, J. P. Misiewicz, M. Scheurer,
    R. A. Shaw, J. B. Schriber, Y. Xie, Z. L. Glick, D. A. Sirianni,
    J. S. O'Brien, J. M. Waldrop, A. Kumar, E. G. Hohenstein,
    B. P. Pritchard, B. R. Brooks, H. F. Schaefer III, A. Yu. Sokolov,
    K. Patkowski, A. E. DePrince III, U. Bozkaya, R. A. King,
    F. A. Evangelista, J. M. Turney, T. D. Crawford, C. D. Sherrill,
    J. Chem. Phys. 152(18) 184108 (2020). https://doi.org/10.1063/5.0006002

                            Additional Code Authors
    E. T. Seidl, C. L. Janssen, E. F. Valeev, M. L. Leininger,
    J. F. Gonthier, R. M. Richard, H. R. McAlexander, M. Saitow, X. Wang,
    P. Verma, and M. H. Lechner

             Previous Authors, Complete List of Code Contributors,
                       and Citations for Specific Modules
    https://github.com/psi4/psi4/blob/master/codemeta.json
    https://github.com/psi4/psi4/graphs/contributors
    http://psicode.org/psi4manual/master/introduction.html#citing-psifour

    -----------------------------------------------------------------------


    Psi4 started on: Wednesday, 20 January 2021 09:52PM

    Process ID: 8531
    Host:       l43
    PSIDATADIR: /home/fs71337/gallo4/psi4/psi4/build/stage/share/psi4
    Memory:     500.0 MiB
    Threads:    48
    
  ==> Input File <==

--------------------------------------------------------------------------
# Any line starting with the # character is a comment line
memory 250000 mb
molecule molecule{
0 1
S          0.0000000000        0.0000000000        0.3640837090
O          0.0000000000       -1.2543541245       -0.3647800452
O          0.0000000000        1.2543541245       -0.3647800452
}

set {
  reference rhf
  basis aug-cc-pV(Q+d)Z
  scf_type OUT_OF_CORE
  freeze_core true
}

energy('ccsd(t)')
--------------------------------------------------------------------------

  Memory set to 232.831 GiB by Python driver.

Scratch directory: /tmp/

*** tstart() called on l43
*** at Wed Jan 20 21:52:58 2021

   => Loading Basis Set <=

    Name: AUG-CC-PV(Q+D)Z
    Role: ORBITAL
    Keyword: BASIS
    atoms 1   entry S          line  1164 file /home/fs71337/gallo4/psi4/psi4/build/stage/share/psi4/basis/aug-cc-pv_qpd_z.gbs 
    atoms 2-3 entry O          line   451 file /home/fs71337/gallo4/psi4/psi4/build/stage/share/psi4/basis/aug-cc-pv_qpd_z.gbs 


         ---------------------------------------------------------
                                   SCF
               by Justin Turney, Rob Parrish, Andy Simmonett
                          and Daniel G. A. Smith
                              RHF Reference
                       48 Threads, 238418 MiB Core
         ---------------------------------------------------------

  ==> Geometry <==

    Molecular point group: c2v
    Full point group: C2v

    Geometry (in Angstrom), charge = 0, multiplicity = 1:

       Center              X                  Y                   Z               Mass       
    ------------   -----------------  -----------------  -----------------  -----------------
         S            0.000000000000     0.000000000000     0.364533056159    31.972071174400
         O            0.000000000000    -1.254354124500    -0.364330698041    15.994914619570
         O           -0.000000000000     1.254354124500    -0.364330698041    15.994914619570

  Running in c2v symmetry.

  Rotational constants: A =      1.98446  B =      0.33492  C =      0.28656 [cm^-1]
  Rotational constants: A =  59492.62859  B =  10040.72224  C =   8590.82659 [MHz]
  Nuclear repulsion =  106.879403440235549

  Charge       = 0
  Multiplicity = 1
  Electrons    = 32
  Nalpha       = 16
  Nbeta        = 16

  ==> Algorithm <==

  SCF Algorithm Type is OUT_OF_CORE.
  DIIS enabled.
  MOM disabled.
  Fractional occupation disabled.
  Guess Type is SAD.
  Energy threshold   = 1.00e-08
  Density threshold  = 1.00e-08
  Integral threshold = 1.00e-12

  ==> Primary Basis <==

  Basis Set: AUG-CC-PV(Q+D)Z
    Blend: AUG-CC-PV(Q+D)Z
    Number of shells: 63
    Number of basis function: 249
    Number of Cartesian functions: 325
    Spherical Harmonics?: true
    Max angular momentum: 4

  ==> Integral Setup <==

  ==> DiskJK: Disk-Based J/K Matrices <==

    J tasked:                  Yes
    K tasked:                  Yes
    wK tasked:                  No
    Memory [MiB]:           178813
    Schwarz Cutoff:          1E-12

  Minimum eigenvalue in the overlap matrix is 8.5741886443E-05.
  Reciprocal condition number of the overlap matrix is 1.2964653998E-05.
    Using symmetric orthogonalization.

  ==> Pre-Iterations <==

  SCF Guess: Superposition of Atomic Densities via on-the-fly atomic UHF (no occupation information).


 WARNING: Atomic UHF is not converging! Try casting from a smaller basis or call Rob at CCMST.

 WARNING: Atomic UHF is not converging! Try casting from a smaller basis or call Rob at CCMST.
   -------------------------
    Irrep   Nso     Nmo    
   -------------------------
     A1        85      85 
     A2        42      42 
     B1        51      51 
     B2        71      71 
   -------------------------
    Total     249     249
   -------------------------

  ==> Iterations <==

                        Total Energy        Delta E     RMS |[F,P]|

   @RHF iter SAD:  -504.71629840937396   -5.04716e+02   0.00000e+00 
    Occupation by irrep:
             A1    A2    B1    B2 
    DOCC [     8,    0,    3,    5 ]

   @RHF iter   1:  -539.78382750202582   -3.50675e+01   3.95350e-02 DIIS
    Occupation by irrep:
             A1    A2    B1    B2 
    DOCC [     8,    1,    2,    5 ]

   @RHF iter   2:  -530.26330169127243    9.52053e+00   3.38670e-02 DIIS
   @RHF iter   3:  -545.15765795143784   -1.48944e+01   1.71978e-02 DIIS
   @RHF iter   4:  -547.16423240327811   -2.00657e+00   3.88558e-03 DIIS
   @RHF iter   5:  -547.30892523441446   -1.44693e-01   6.63111e-04 DIIS
   @RHF iter   6:  -547.31536378367537   -6.43855e-03   2.49572e-04 DIIS
   @RHF iter   7:  -547.31673677441518   -1.37299e-03   7.94243e-05 DIIS
   @RHF iter   8:  -547.31691412751877   -1.77353e-04   2.38213e-05 DIIS
   @RHF iter   9:  -547.31692482785377   -1.07003e-05   1.08577e-05 DIIS
   @RHF iter  10:  -547.31692666292895   -1.83508e-06   1.60348e-06 DIIS
   @RHF iter  11:  -547.31692669959068   -3.66617e-08   4.17753e-07 DIIS
   @RHF iter  12:  -547.31692670160874   -2.01806e-09   5.93209e-08 DIIS
   @RHF iter  13:  -547.31692670168377   -7.50333e-11   1.27163e-08 DIIS
   @RHF iter  14:  -547.31692670168684   -3.06954e-12   3.42218e-09 DIIS
  Energy and wave function converged.


  ==> Post-Iterations <==

    Orbital Energies [Eh]
    ---------------------

    Doubly Occupied:                                                      

       1A1   -92.179744     1B2   -20.628832     2A1   -20.628805  
       3A1    -9.156985     1B1    -6.839179     2B2    -6.837750  
       4A1    -6.836531     5A1    -1.492960     3B2    -1.394412  
       6A1    -0.873635     4B2    -0.698473     7A1    -0.688934  
       2B1    -0.658597     5B2    -0.544374     1A2    -0.520611  
       8A1    -0.498453  

    Virtual:                                                              

       3B1     0.000567     9A1     0.051228     6B2     0.063230  
      10A1     0.063966     4B1     0.067533     7B2     0.135039  
      11A1     0.143599    12A1     0.147430     2A2     0.151090  
       5B1     0.173155     8B2     0.185239    13A1     0.186543  
       9B2     0.204220     6B1     0.230155    14A1     0.250959  
      15A1     0.279056     3A2     0.283957    10B2     0.308094  
      11B2     0.326687    16A1     0.342787     7B1     0.346242  
      17A1     0.384764    12B2     0.472753     8B1     0.478312  
      18A1     0.482721     4A2     0.491939    19A1     0.507068  
       9B1     0.520647    20A1     0.523732    13B2     0.572799  
      14B2     0.594355    21A1     0.608176     5A2     0.609210  
      10B1     0.633734    11B1     0.649110     6A2     0.656972  
      15B2     0.657663    16B2     0.678099    22A1     0.678584  
       7A2     0.698212    23A1     0.723146    24A1     0.745625  
      12B1     0.762923    17B2     0.797764    25A1     0.820036  
      18B2     0.821531    13B1     0.917357     8A2     0.922118  
      26A1     0.942646    27A1     1.064546    19B2     1.076656  
      20B2     1.158800    21B2     1.188281    28A1     1.211271  
      14B1     1.246439    29A1     1.247837    15B1     1.305431  
      30A1     1.312183     9A2     1.353436    31A1     1.372326  
      16B1     1.374586    10A2     1.400268    22B2     1.422955  
      17B1     1.438564    23B2     1.442917    24B2     1.490153  
      11A2     1.492663    32A1     1.492723    12A2     1.510261  
      25B2     1.516390    33A1     1.529750    18B1     1.554846  
      34A1     1.601236    19B1     1.621708    26B2     1.627222  
      35A1     1.638058    13A2     1.651498    27B2     1.692778  
      20B1     1.699512    36A1     1.724140    14A2     1.755458  
      21B1     1.778619    28B2     1.782790    37A1     1.792523  
      38A1     1.806147    29B2     1.962617    30B2     2.022764  
      15A2     2.032309    39A1     2.090061    22B1     2.092379  
      40A1     2.163556    31B2     2.234267    23B1     2.255112  
      24B1     2.271612    41A1     2.278633    32B2     2.295671  
      42A1     2.299885    16A2     2.303252    17A2     2.370267  
      33B2     2.382988    43A1     2.584411    34B2     2.788800  
      44A1     2.811358    25B1     2.934018    18A2     2.946340  
      45A1     3.037014    35B2     3.236200    46A1     3.262225  
      36B2     3.403659    19A2     3.428577    26B1     3.433895  
      47A1     3.450233    27B1     3.454128    20A2     3.506538  
      28B1     3.511653    48A1     3.522945    37B2     3.566190  
      49A1     3.568840    38B2     3.592743    29B1     3.651973  
      21A2     3.661014    50A1     3.662707    51A1     3.702508  
      39B2     3.716758    30B1     3.733473    22A2     3.746888  
      40B2     3.853618    52A1     3.856021    23A2     3.871828  
      41B2     3.950412    31B1     3.976676    53A1     4.063417  
      24A2     4.086181    42B2     4.108746    43B2     4.122332  
      54A1     4.149246    32B1     4.156535    25A2     4.172521  
      44B2     4.200653    55A1     4.218123    33B1     4.219782  
      56A1     4.235479    57A1     4.292394    45B2     4.323447  
      34B1     4.323515    26A2     4.336997    35B1     4.483181  
      58A1     4.525166    46B2     4.552051    36B1     4.564819  
      27A2     4.570608    47B2     4.608821    59A1     4.617656  
      48B2     4.778043    60A1     4.784969    61A1     4.820501  
      28A2     4.880074    49B2     4.917056    50B2     4.985309  
      37B1     5.005119    62A1     5.150414    38B1     5.172806  
      29A2     5.187348    39B1     5.348465    63A1     5.382053  
      30A2     5.411831    51B2     5.467317    52B2     5.588324  
      64A1     5.681645    31A2     5.821477    65A1     5.930754  
      53B2     5.992716    54B2     6.367097    66A1     6.443923  
      40B1     6.739608    67A1     7.636436    55B2     8.494121  
      41B1     9.254584    68A1     9.269812    32A2     9.438604  
      69A1     9.620372    56B2    10.300700    42B1    10.616532  
      70A1    10.624781    33A2    10.632303    57B2    10.640793  
      58B2    10.723382    34A2    10.774665    43B1    10.785196  
      71A1    10.800949    35A2    10.898965    44B1    10.903585  
      72A1    10.930025    36A2    10.939749    59B2    10.942799  
      60B2    10.958616    45B1    10.978674    73A1    11.059128  
      37A2    11.070376    74A1    11.102023    61B2    11.125213  
      46B1    11.138042    75A1    11.186195    62B2    11.514944  
      76A1    11.802695    63B2    11.850176    47B1    11.897611  
      77A1    11.902385    64B2    11.903490    38A2    11.910457  
      48B1    12.053714    65B2    12.088011    39A2    12.125965  
      78A1    12.164309    49B1    12.533065    40A2    12.579670  
      79A1    12.630731    66B2    12.705307    80A1    12.806289  
      67B2    12.890957    50B1    12.914893    41A2    12.997641  
      81A1    13.088993    51B1    13.260299    42A2    13.269158  
      68B2    13.328962    69B2    13.383318    82A1    13.407568  
      83A1    13.915481    70B2    14.158161    84A1    23.966164  
      71B2    43.095280    85A1    43.390193  

    Final Occupation by Irrep:
             A1    A2    B1    B2 
    DOCC [     8,    1,    2,    5 ]

  @RHF Final Energy:  -547.31692670168684

   => Energetics <=

    Nuclear Repulsion Energy =            106.8794034402355493
    One-Electron Energy =                -967.4361093477416489
    Two-Electron Energy =                 313.2397792058191612
    Total Energy =                       -547.3169267016869526

Computation Completed


Properties will be evaluated at   0.000000,   0.000000,   0.000000 [a0]

Properties computed using the SCF density matrix

  Nuclear Dipole Moment: [e a0]
     X:     0.0000      Y:     0.0000      Z:     0.0061

  Electronic Dipole Moment: [e a0]
     X:     0.0000      Y:     0.0000      Z:     0.8059

  Dipole Moment: [e a0]
     X:     0.0000      Y:     0.0000      Z:     0.8120     Total:     0.8120

  Dipole Moment: [D]
     X:     0.0000      Y:     0.0000      Z:     2.0639     Total:     2.0639


*** tstop() called on l43 at Wed Jan 20 21:54:26 2021
Module time:
	user time   =      82.50 seconds =       1.38 minutes
	system time =      15.31 seconds =       0.26 minutes
	total time  =         88 seconds =       1.47 minutes
Total time:
	user time   =      82.50 seconds =       1.38 minutes
	system time =      15.31 seconds =       0.26 minutes
	total time  =         88 seconds =       1.47 minutes

*** tstart() called on l43
*** at Wed Jan 20 21:54:26 2021


	Wfn Parameters:
	--------------------
	Wavefunction         = CCSD_T
	Number of irreps     = 4
	Number of MOs        = 249
	Number of active MOs = 242
	AO-Basis             = NONE
	Semicanonical        = false
	Reference            = RHF
	Print Level          = 1

	IRREP	# MOs	# FZDC	# DOCC	# SOCC	# VIRT	# FZVR
	-----	-----	------	------	------	------	------
	 A1	   85	    4	    4	    0	    77	    0
	 A2	   42	    0	    1	    0	    41	    0
	 B1	   51	    1	    1	    0	    49	    0
	 B2	   71	    2	    3	    0	    66	    0
	Transforming integrals...
	IWL integrals will be deleted.
	(OO|OO)...
	Presorting SO-basis two-electron integrals.
	Sorting File: SO Ints (nn|nn) nbuckets = 1
	Constructing frozen core operators
	Starting first half-transformation.
	Sorting half-transformed integrals.
	First half integral transformation complete.
	Starting second half-transformation.
	Two-electron integral transformation complete.
	(OO|OV)...
	Starting second half-transformation.
	Two-electron integral transformation complete.
	(OO|VV)...
	Starting second half-transformation.
	Two-electron integral transformation complete.
	(OV|OO)...
	Starting first half-transformation.
	Sorting half-transformed integrals.
	First half integral transformation complete.
	Starting second half-transformation.
	Two-electron integral transformation complete.
	(OV|OV)...
	Starting second half-transformation.
	Two-electron integral transformation complete.
	(OV|VV)...
	Starting second half-transformation.
	Two-electron integral transformation complete.
	(VV|OO)...
	Starting first half-transformation.
	Sorting half-transformed integrals.
	First half integral transformation complete.
	Starting second half-transformation.
	Two-electron integral transformation complete.
	(VV|OV)...
	Starting second half-transformation.
	Two-electron integral transformation complete.
	(VV|VV)...
	Starting second half-transformation.
	Two-electron integral transformation complete.
	Frozen core energy     =   -578.79459474656369

	Size of irrep 0 of <ab|cd> integrals:    206.411 (MW) /   1651.286 (MB)
	Size of irrep 1 of <ab|cd> integrals:    163.380 (MW) /   1307.036 (MB)
	Size of irrep 2 of <ab|cd> integrals:    167.910 (MW) /   1343.278 (MB)
	Size of irrep 3 of <ab|cd> integrals:    201.129 (MW) /   1609.033 (MB)
	Total:                                   738.829 (MW) /   5910.633 (MB)

	Size of irrep 0 of <ia|bc> integrals:      8.563 (MW) /     68.502 (MB)
	Size of irrep 1 of <ia|bc> integrals:      5.803 (MW) /     46.424 (MB)
	Size of irrep 2 of <ia|bc> integrals:      5.987 (MW) /     47.893 (MB)
	Size of irrep 3 of <ia|bc> integrals:      8.296 (MW) /     66.372 (MB)
	Total:                                    28.649 (MW) /    229.191 (MB)

	Size of irrep 0 of tijab amplitudes:       0.388 (MW) /      3.103 (MB)
	Size of irrep 1 of tijab amplitudes:       0.179 (MW) /      1.432 (MB)
	Size of irrep 2 of tijab amplitudes:       0.181 (MW) /      1.451 (MB)
	Size of irrep 3 of tijab amplitudes:       0.369 (MW) /      2.950 (MB)
	Total:                                     1.117 (MW) /      8.936 (MB)

	Nuclear Rep. energy          =    106.87940344023555
	SCF energy                   =   -547.31692670168684
	One-electron energy          =   -136.06257325487894
	Two-electron energy          =     60.66083785952579
	Reference energy             =   -547.31692670168127

*** tstop() called on l43 at Wed Jan 20 21:55:42 2021
Module time:
	user time   =      45.75 seconds =       0.76 minutes
	system time =      29.87 seconds =       0.50 minutes
	total time  =         76 seconds =       1.27 minutes
Total time:
	user time   =     128.25 seconds =       2.14 minutes
	system time =      45.18 seconds =       0.75 minutes
	total time  =        164 seconds =       2.73 minutes
            **************************
            *                        *
            *        CCENERGY        *
            *                        *
            **************************

    Nuclear Rep. energy (wfn)     =  106.879403440235549
    SCF energy          (wfn)     = -547.316926701686839
    Reference energy    (file100) = -547.316926701681268

    Input parameters:
    -----------------
    Wave function   =     CCSD_T
    Reference wfn   =     RHF
    Brueckner       =     No
    Memory (Mbytes) =     250000.0
    Maxiter         =     50
    R_Convergence   =     1.0e-07
    E_Convergence   =     1.0e-06
    Restart         =     Yes
    DIIS            =     Yes
    AO Basis        =     NONE
    ABCD            =     NEW
    Cache Level     =     2
    Cache Type      =     LOW
    Print Level     =     1
    Num. of threads =     48
    # Amps to Print =     10
    Print MP2 Amps? =     No
    Analyze T2 Amps =     No
    Print Pair Ener =     No
    Local CC        =     No
    SCS-MP2         =     False
    SCSN-MP2        =     False
    SCS-CCSD        =     False

MP2 correlation energy -0.7227004788736333
                Solving CC Amplitude Equations
                ------------------------------
  Iter             Energy              RMS        T1Diag      D1Diag    New D1Diag    D2Diag
  ----     ---------------------    ---------   ----------  ----------  ----------   --------
     0        -0.722700478873633    0.000e+00    0.000000    0.000000    0.000000    0.188223
     1        -0.675685014199085    1.068e-01    0.018608    0.049145    0.049145    0.165217
     2        -0.700120913103781    5.145e-02    0.015981    0.039959    0.039959    0.184799
     3        -0.706798545516628    1.606e-02    0.019559    0.049987    0.049987    0.192075
     4        -0.706134487685964    4.876e-03    0.020551    0.052013    0.052013    0.194133
     5        -0.706241473479463    2.228e-03    0.021172    0.053640    0.053640    0.194976
     6        -0.706267894516892    6.757e-04    0.021307    0.053960    0.053960    0.195013
     7        -0.706235322242735    2.613e-04    0.021328    0.054011    0.054011    0.194930
     8        -0.706234072548919    8.133e-05    0.021336    0.054037    0.054037    0.194925
     9        -0.706236812337512    3.115e-05    0.021338    0.054037    0.054037    0.194925
    10        -0.706234255191098    1.410e-05    0.021337    0.054035    0.054035    0.194923
    11        -0.706235124628061    5.089e-06    0.021337    0.054032    0.054032    0.194925
    12        -0.706234785869350    1.809e-06    0.021337    0.054032    0.054032    0.194924
    13        -0.706234830773531    7.610e-07    0.021337    0.054032    0.054032    0.194925
    14        -0.706234842899003    2.605e-07    0.021337    0.054032    0.054032    0.194924
    15        -0.706234840008236    1.161e-07    0.021337    0.054031    0.054031    0.194924
    16        -0.706234840486051    3.651e-08    0.021337    0.054031    0.054031    0.194924

    Iterations converged.


    Largest TIA Amplitudes:
              5 118        -0.0492012060
              8 169        -0.0227272673
              8 172         0.0207687602
              2   7         0.0162529650
              3   4        -0.0160099795
              3   3         0.0150038862
              3   1         0.0146174891
              3   7         0.0139026502
              7 172        -0.0137678380
              3   5        -0.0137333881

    Largest TIjAb Amplitudes:
      4   4 118 118        -0.0786868564
      5   5 118 118        -0.0512307930
      3   3 118 118        -0.0393807971
      1   1 118 118        -0.0268018054
      4   5  82 118         0.0243793553
      5   4 118  82         0.0243793553
      4   4 118 125        -0.0242714401
      4   4 125 118        -0.0242714401
      4   8 118   7        -0.0219375047
      8   4   7 118        -0.0219375047

    SCF energy       (wfn)                    = -547.316926701686839
    Reference energy (file100)                = -547.316926701681268

    Opposite-spin MP2 correlation energy      =   -0.536049545900969
    Same-spin MP2 correlation energy          =   -0.186650932972664
    Singles MP2 correlation energy            =   -0.000000000000000
    MP2 correlation energy                    =   -0.722700478873633
      * MP2 total energy                      = -548.039627180554930

    Opposite-spin CCSD correlation energy     =   -0.546916288874947
    Same-spin CCSD correlation energy         =   -0.159318551611094
    Singles CCSD correlation energy           =    0.000000000000000
    CCSD correlation energy                   =   -0.706234840486051
      * CCSD total energy                     = -548.023161542167372

            **************************
            *                        *
            *        CCTRIPLES       *
            *                        *
            **************************


    Wave function   =    CCSD_T
    Reference wfn   =      RHF

    Nuclear Rep. energy (wfn)                =  106.879403440235549
    SCF energy          (wfn)                = -547.316926701686839
    Reference energy    (file100)            = -547.316926701681268
    CCSD energy         (file100)            =   -0.706234840486051
    Total CCSD energy   (file100)            = -548.023161542167372

    Number of ijk index combinations:              165
    Memory available in words        :     31250000000
    ~Words needed per explicit thread:         1826132
    Number of threads for explicit ijk threading:   48

    (T) energy                                =   -0.039496987990170
      * CCSD(T) total energy                  = -548.062658530157478


    Psi4 stopped on: Wednesday, 20 January 2021 09:57PM
    Psi4 wall time for execution: 0:04:06.29

*** Psi4 exiting successfully. Buy a developer a beer!
