
    -----------------------------------------------------------------------
          Psi4: An Open-Source Ab Initio Electronic Structure Package
                               Psi4 1.4a3.dev88 

                         Git: Rev {master} 262e345 


    D. G. A. Smith, L. A. Burns, A. C. Simmonett, R. M. Parrish,
    M. C. Schieber, R. Galvelis, P. Kraus, H. Kruse, R. Di Remigio,
    A. Alenaizan, A. M. James, S. Lehtola, J. P. Misiewicz, M. Scheurer,
    R. A. Shaw, J. B. Schriber, Y. Xie, Z. L. Glick, D. A. Sirianni,
    J. S. O'Brien, J. M. Waldrop, A. Kumar, E. G. Hohenstein,
    B. P. Pritchard, B. R. Brooks, H. F. Schaefer III, A. Yu. Sokolov,
    K. Patkowski, A. E. DePrince III, U. Bozkaya, R. A. King,
    F. A. Evangelista, J. M. Turney, T. D. Crawford, C. D. Sherrill,
    J. Chem. Phys. 152(18) 184108 (2020). https://doi.org/10.1063/5.0006002

                            Additional Code Authors
    E. T. Seidl, C. L. Janssen, E. F. Valeev, M. L. Leininger,
    J. F. Gonthier, R. M. Richard, H. R. McAlexander, M. Saitow, X. Wang,
    P. Verma, and M. H. Lechner

             Previous Authors, Complete List of Code Contributors,
                       and Citations for Specific Modules
    https://github.com/psi4/psi4/blob/master/codemeta.json
    https://github.com/psi4/psi4/graphs/contributors
    http://psicode.org/psi4manual/master/introduction.html#citing-psifour

    -----------------------------------------------------------------------


    Psi4 started on: Thursday, 21 January 2021 02:14PM

    Process ID: 234306
    Host:       n411-011.vsc4.prov
    PSIDATADIR: /home/fs71337/gallo4/psi4/eri-6/psi4/build/stage/share/psi4
    Memory:     500.0 MiB
    Threads:    48
    
  ==> Input File <==

--------------------------------------------------------------------------
# Any line starting with the # character is a comment line
memory 250000 mb
molecule molecule{
0 3
O          0.0000000000        0.0000000000        0.0000000000
}

set {
  reference uhf
  basis aug-cc-pV(6+d)Z
  scf_type OUT_OF_CORE
  freeze_core true
}

energy('ccsd(t)')
--------------------------------------------------------------------------

  Memory set to 232.831 GiB by Python driver.

Scratch directory: /binfl/lv71337/airmler/temp/

*** tstart() called on n411-011.vsc4.prov
*** at Thu Jan 21 14:14:25 2021

   => Loading Basis Set <=

    Name: AUG-CC-PV(6+D)Z
    Role: ORBITAL
    Keyword: BASIS
    atoms 1 entry O          line   459 file /home/fs71337/gallo4/psi4/eri-6/psi4/build/stage/share/psi4/basis/aug-cc-pv_6pd_z.gbs 


         ---------------------------------------------------------
                                   SCF
               by Justin Turney, Rob Parrish, Andy Simmonett
                          and Daniel G. A. Smith
                              UHF Reference
                       48 Threads, 238418 MiB Core
         ---------------------------------------------------------

  ==> Geometry <==

    Molecular point group: d2h
    Geometry (in Angstrom), charge = 0, multiplicity = 3:

       Center              X                  Y                   Z               Mass       
    ------------   -----------------  -----------------  -----------------  -----------------
         O            0.000000000000     0.000000000000     0.000000000000    15.994914619570

  Running in d2h symmetry.

  Rotational constants: A = ************  B = ************  C = ************ [cm^-1]
  Rotational constants: A = ************  B = ************  C = ************ [MHz]
  Nuclear repulsion =    0.000000000000000

  Charge       = 0
  Multiplicity = 3
  Electrons    = 8
  Nalpha       = 5
  Nbeta        = 3

  ==> Algorithm <==

  SCF Algorithm Type is OUT_OF_CORE.
  DIIS enabled.
  MOM disabled.
  Fractional occupation disabled.
  Guess Type is CORE.
  Energy threshold   = 1.00e-08
  Density threshold  = 1.00e-08
  Integral threshold = 1.00e-12

  ==> Primary Basis <==

  Basis Set: AUG-CC-PV(6+D)Z
    Blend: AUG-CC-PV(6+D)Z
    Number of shells: 35
    Number of basis function: 189
    Number of Cartesian functions: 294
    Spherical Harmonics?: true
    Max angular momentum: 6

  ==> Integral Setup <==

  ==> DiskJK: Disk-Based J/K Matrices <==

    J tasked:                  Yes
    K tasked:                  Yes
    wK tasked:                  No
    Memory [MiB]:           178813
    Schwarz Cutoff:          1E-12

  Minimum eigenvalue in the overlap matrix is 6.3360062388E-04.
  Reciprocal condition number of the overlap matrix is 1.4430161294E-04.
    Using symmetric orthogonalization.

  ==> Pre-Iterations <==

  SCF Guess: Core (One-Electron) Hamiltonian.

   -------------------------------------------------------
    Irrep   Nso     Nmo     Nalpha   Nbeta   Ndocc  Nsocc
   -------------------------------------------------------
     Ag        40      40       2       2       2       0
     B1g       20      20       0       0       0       0
     B2g       20      20       0       0       0       0
     B3g       20      20       0       0       0       0
     Au        11      11       0       0       0       0
     B1u       26      26       1       1       1       0
     B2u       26      26       1       0       0       1
     B3u       26      26       1       0       0       1
   -------------------------------------------------------
    Total     189     189       5       3       3       2
   -------------------------------------------------------

  ==> Iterations <==

                        Total Energy        Delta E     RMS |[F,P]|

   @UHF iter   1:   -66.71322377077830   -6.67132e+01   1.08495e-01 DIIS
   @UHF iter   2:   -68.38923523847198   -1.67601e+00   3.04447e-02 DIIS
   @UHF iter   3:   -73.88721017131152   -5.49797e+00   2.49765e-02 DIIS
   @UHF iter   4:   -74.69183087079338   -8.04621e-01   7.84852e-03 DIIS
   @UHF iter   5:   -74.81745466473242   -1.25624e-01   5.95286e-04 DIIS
   @UHF iter   6:   -74.81891555866491   -1.46089e-03   1.43889e-04 DIIS
   @UHF iter   7:   -74.81895829651175   -4.27378e-05   3.11008e-05 DIIS
   @UHF iter   8:   -74.81896115815566   -2.86164e-06   5.34469e-06 DIIS
   @UHF iter   9:   -74.81896135033806   -1.92182e-07   1.88724e-06 DIIS
   @UHF iter  10:   -74.81896136909963   -1.87616e-08   1.22090e-07 DIIS
   @UHF iter  11:   -74.81896136914916   -4.95390e-11   1.78634e-08 DIIS
   @UHF iter  12:   -74.81896136915017   -1.00897e-12   3.25845e-09 DIIS
  Energy and wave function converged.


  ==> Post-Iterations <==

   @Spin Contamination Metric:   9.376518573E-03
   @S^2 Expected:                2.000000000E+00
   @S^2 Observed:                2.009376519E+00
   @S   Expected:                1.000000000E+00
   @S   Observed:                1.000000000E+00

    Orbital Energies [Eh]
    ---------------------

    Alpha Occupied:                                                       

       1Ag   -20.707503     2Ag    -1.418291     1B2u   -0.711064  
       1B3u   -0.711064     1B1u   -0.611621  

    Alpha Virtual:                                                        

       2B2u    0.077642     2B3u    0.077642     2B1u    0.081342  
       3Ag     0.103152     1B1g    0.341863     4Ag     0.341863  
       3B2u    0.343186     3B3u    0.343186     1B2g    0.349267  
       1B3g    0.349267     5Ag     0.351835     3B1u    0.359091  
       6Ag     0.575171     4B3u    0.781428     4B2u    0.781428  
       1Au     0.789066     4B1u    0.789066     5B2u    0.793710  
       5B3u    0.793710     5B1u    0.795275     2B1g    1.031534  
       7Ag     1.031534     2B2g    1.056068     2B3g    1.056068  
       8Ag     1.064830     6B2u    1.089678     6B3u    1.089678  
       6B1u    1.127075     3B1g    2.014230     9Ag     2.014230  
       3B3g    2.025771     3B2g    2.025771    10Ag     2.034162  
       4B1g    2.034162     4B3g    2.039261     4B2g    2.039261  
      11Ag     2.040968    12Ag     2.048966     7B2u    2.238034  
       7B3u    2.238034     2Au     2.259341     7B1u    2.259341  
       8B2u    2.272250     8B3u    2.272250     8B1u    2.276592  
       5B1g    2.524058    13Ag     2.524058     5B2g    2.568812  
       5B3g    2.568812    14Ag     2.584672     9B3u    2.971037  
       9B2u    2.971037     9B1u    3.031233    10B2u    4.379444  
      10B3u    4.379444    10B1u    4.394396     3Au     4.394396  
      11B3u    4.406136    11B2u    4.406136    11B1u    4.414584  
       4Au     4.414584    12B3u    4.419678    12B2u    4.419678  
      12B1u    4.421380    13B3u    5.313113    13B2u    5.313113  
       5Au     5.351027    13B1u    5.351027     6B1g    5.358065  
      15Ag     5.358065    14B3u    5.374023    14B2u    5.374023  
      14B1u    5.381740     6B3g    5.383504     6B2g    5.383504  
       7B1g    5.401890    16Ag     5.401890     7B3g    5.413020  
       7B2g    5.413020    17Ag     5.416748     8B1g    5.941761  
      18Ag     5.941761     8B3g    5.999448     8B2g    5.999448  
      19Ag     6.019472    20Ag     6.274490    15B3u    7.612430  
      15B2u    7.612430    15B1u    7.687673     9B1g    9.295959  
      21Ag     9.295959     9B2g    9.314899     9B3g    9.314899  
      10B1g    9.330506    22Ag     9.330506    10B3g    9.342714  
      10B2g    9.342714    23Ag     9.351473    11B1g    9.351473  
      11B2g    9.356743    11B3g    9.356743    24Ag     9.358503  
      16B3u   10.706932    16B2u   10.706932     6Au    10.733803  
      16B1u   10.733803    17B3u   10.754874    17B2u   10.754874  
      17B1u   10.770018     7Au    10.770018    18B3u   10.779142  
      18B2u   10.779142    18B1u   10.782190    19B3u   12.130485  
      19B2u   12.130485    19B1u   12.179560     8Au    12.179560  
      20B3u   12.209283    20B2u   12.209283    20B1u   12.219241  
      12B1g   12.863780    25Ag    12.863780    12B3g   12.902364  
      12B2g   12.902364    26Ag    12.930093    13B1g   12.930093  
      13B3g   12.946805    13B2g   12.946805    27Ag    12.952390  
      14B1g   14.127859    28Ag    14.127859    14B3g   14.189712  
      14B2g   14.189712    29Ag    14.210847    30Ag    19.668674  
      21B3u   22.333330    21B2u   22.333330    21B1u   22.395940  
      15B1g   22.609327    31Ag    22.609327    15B2g   22.637882  
      15B3g   22.637882    16B1g   22.661370    32Ag    22.661370  
      16B3g   22.679718    16B2g   22.679718    33Ag    22.692866  
      17B1g   22.692866    17B2g   22.700772    17B3g   22.700772  
      34Ag    22.703410    22B2u   26.670189    22B3u   26.670189  
      22B1u   26.706037     9Au    26.706037    23B2u   26.734047  
      23B3u   26.734047    10Au    26.754123    23B1u   26.754123  
      24B2u   26.766196    24B3u   26.766196    24B1u   26.770225  
      25B3u   28.317992    25B2u   28.317992    25B1u   28.366265  
      11Au    28.366265    26B3u   28.395413    26B2u   28.395413  
      26B1u   28.405162    35Ag    31.333436    18B1g   31.333436  
      18B2g   31.375308    18B3g   31.375308    36Ag    31.405345  
      19B1g   31.405345    19B2g   31.423419    19B3g   31.423419  
      37Ag    31.429453    20B1g   34.377623    38Ag    34.377623  
      20B3g   34.429911    20B2g   34.429911    39Ag    34.447577  
      40Ag    99.373997  

    Beta Occupied:                                                        

       1Ag   -20.629211     2Ag    -1.075548     1B1u   -0.521685  

    Beta Virtual:                                                         

       1B3u    0.050753     1B2u    0.050753     2B1u    0.082443  
       3Ag     0.110176     2B2u    0.126234     2B3u    0.126234  
       4Ag     0.349383     1B1g    0.349383     1B3g    0.352024  
       1B2g    0.352024     5Ag     0.353068     3B1u    0.367717  
       3B2u    0.420156     3B3u    0.420156     6Ag     0.607319  
       4B2u    0.786121     4B3u    0.786121     1Au     0.791633  
       4B1u    0.791633     5B3u    0.794956     5B2u    0.794956  
       5B1u    0.796065     7Ag     1.084976     2B3g    1.086328  
       2B2g    1.086328     2B1g    1.092486     8Ag     1.092486  
       6B1u    1.148688     6B2u    1.200151     6B3u    1.200151  
       3B1g    2.023095     9Ag     2.023095     3B3g    2.031876  
       3B2g    2.031876    10Ag     2.038171     4B1g    2.038171  
       4B3g    2.041952     4B2g    2.041952    11Ag     2.043212  
      12Ag     2.113191     7B2u    2.271039     7B3u    2.271039  
       2Au     2.280763     7B1u    2.280763     8B2u    2.286534  
       8B3u    2.286534     8B1u    2.288447    13Ag     2.638757  
       5B2g    2.641971     5B3g    2.641971     5B1g    2.654572  
      14Ag     2.654572     9B1u    3.062704     9B3u    3.091083  
       9B2u    3.091083    10B2u    4.392728    10B3u    4.392728  
      10B1u    4.404599     3Au     4.404599    11B3u    4.413876  
      11B2u    4.413876    11B1u    4.420527     4Au     4.420527  
      12B2u    4.424527    12B3u    4.424527    12B1u    4.425862  
      13B3u    5.389072    13B2u    5.389072     6B1g    5.394882  
      15Ag     5.394882     5Au     5.403935    13B1u    5.403935  
       6B2g    5.411061     6B3g    5.411061    14B3u    5.412788  
      14B2u    5.412788    14B1u    5.415729     7B1g    5.422588  
      16Ag     5.422588     7B3g    5.429483     7B2g    5.429483  
      17Ag     5.431778    18Ag     6.084307     8B1g    6.084533  
      19Ag     6.084533     8B3g    6.084579     8B2g    6.084579  
      20Ag     6.352374    15B3u    7.721173    15B2u    7.721173  
      15B1u    7.723329     9B1g    9.315571    21Ag     9.315571  
       9B2g    9.330998     9B3g    9.330998    10B1g    9.343678  
      22Ag     9.343678    10B3g    9.353578    10B2g    9.353578  
      23Ag     9.360670    11B1g    9.360670    11B2g    9.364933  
      11B3g    9.364933    24Ag     9.366356    16B3u   10.743212  
      16B2u   10.743212     6Au    10.762976    16B1u   10.762976  
      17B3u   10.778421    17B2u   10.778421     7Au    10.789493  
      17B1u   10.789493    18B3u   10.796151    18B2u   10.796151  
      18B1u   10.798374    19B3u   12.224448    19B2u   12.224448  
      19B1u   12.247396     8Au    12.247396    20B3u   12.261191  
      20B2u   12.261191    20B1u   12.265794    25Ag    12.929554  
      12B1g   12.929554    12B3g   12.953482    12B2g   12.953482  
      26Ag    12.970569    13B1g   12.970569    13B2g   12.980818  
      13B3g   12.980818    27Ag    12.984234    14B1g   14.239543  
      28Ag    14.239543    14B3g   14.258689    14B2g   14.258689  
      29Ag    14.265187    30Ag    19.726848    21B3u   22.405223  
      21B2u   22.405223    21B1u   22.422311    15B1g   22.647236  
      31Ag    22.647236    15B2g   22.669871    15B3g   22.669871  
      16B1g   22.688468    32Ag    22.688468    16B3g   22.702982  
      16B2g   22.702982    33Ag    22.713375    17B1g   22.713375  
      17B2g   22.719621    17B3g   22.719621    34Ag    22.721705  
      22B2u   26.724874    22B3u   26.724874    22B1u   26.751098  
       9Au    26.751098    23B2u   26.771569    23B3u   26.771569  
      10Au    26.786231    23B1u   26.786231    24B2u   26.795044  
      24B3u   26.795044    24B1u   26.797984    25B3u   28.395534  
      25B2u   28.395534    25B1u   28.423211    11Au    28.423211  
      26B3u   28.439886    26B2u   28.439886    26B1u   28.445455  
      35Ag    31.399727    18B1g   31.399727    18B2g   31.427809  
      18B3g   31.427809    36Ag    31.447921    19B1g   31.447921  
      19B2g   31.460010    19B3g   31.460010    37Ag    31.464043  
      20B1g   34.445647    38Ag    34.445647    20B3g   34.472756  
      20B2g   34.472756    39Ag    34.481886    40Ag    99.394407  

    Final Occupation by Irrep:
             Ag   B1g   B2g   B3g    Au   B1u   B2u   B3u 
    DOCC [     2,    0,    0,    0,    0,    1,    0,    0 ]
    SOCC [     0,    0,    0,    0,    0,    0,    1,    1 ]

  @UHF Final Energy:   -74.81896136915017

   => Energetics <=

    Nuclear Repulsion Energy =              0.0000000000000000
    One-Electron Energy =                -103.2519331333057835
    Two-Electron Energy =                  28.4329717641556101
    Total Energy =                        -74.8189613691501734

  UHF NO Occupations:
  HONO-2 :    2 Ag 1.9970253
  HONO-1 :    1B2u 1.0000000
  HONO-0 :    1B3u 1.0000000
  LUNO+0 :    3 Ag 0.0029747
  LUNO+1 :    2B1u 0.0017167
  LUNO+2 :    4 Ag 0.0000027
  LUNO+3 :    5 Ag 0.0000000


Computation Completed


Properties will be evaluated at   0.000000,   0.000000,   0.000000 [a0]

Properties computed using the SCF density matrix

  Nuclear Dipole Moment: [e a0]
     X:     0.0000      Y:     0.0000      Z:     0.0000

  Electronic Dipole Moment: [e a0]
     X:     0.0000      Y:     0.0000      Z:     0.0000

  Dipole Moment: [e a0]
     X:     0.0000      Y:     0.0000      Z:     0.0000     Total:     0.0000

  Dipole Moment: [D]
     X:     0.0000      Y:     0.0000      Z:     0.0000     Total:     0.0000


*** tstop() called on n411-011.vsc4.prov at Thu Jan 21 14:16:09 2021
Module time:
	user time   =     113.03 seconds =       1.88 minutes
	system time =       3.20 seconds =       0.05 minutes
	total time  =        104 seconds =       1.73 minutes
Total time:
	user time   =     113.03 seconds =       1.88 minutes
	system time =       3.20 seconds =       0.05 minutes
	total time  =        104 seconds =       1.73 minutes

*** tstart() called on n411-011.vsc4.prov
*** at Thu Jan 21 14:16:09 2021


	Wfn Parameters:
	--------------------
	Wavefunction         = CCSD_T
	Number of irreps     = 8
	Number of MOs        = 189
	Number of active MOs = 188
	AO-Basis             = NONE
	Semicanonical        = false
	Reference            = UHF
	Print Level          = 1

	IRREP	# MOs	# FZDC	# DOCC	# SOCC	# VIRT	# FZVR
	-----	-----	------	------	------	------	------
	 Ag	   40	    1	    1	    0	    38	    0
	 B1g	   20	    0	    0	    0	    20	    0
	 B2g	   20	    0	    0	    0	    20	    0
	 B3g	   20	    0	    0	    0	    20	    0
	 Au	   11	    0	    0	    0	    11	    0
	 B1u	   26	    0	    1	    0	    25	    0
	 B2u	   26	    0	    0	    1	    25	    0
	 B3u	   26	    0	    0	    1	    25	    0
	Transforming integrals...
	IWL integrals will be deleted.
	(OO|OO)...
	Presorting SO-basis two-electron integrals.
	Sorting File: SO Ints (nn|nn) nbuckets = 1
	Constructing frozen core operators
	Starting AA/AB first half-transformation.
	Sorting AA/AB half-transformed integrals.
	Starting BB first half-transformation.
	Sorting BB half-transformed integrals.
	First half integral transformation complete.
	Starting AA second half-transformation.
	Starting AB second half-transformation.
	Starting BB second half-transformation.
	Two-electron integral transformation complete.
	(OO|OV)...
	Starting AA second half-transformation.
	Starting AB second half-transformation.
	Starting BB second half-transformation.
	Two-electron integral transformation complete.
	(OO|VV)...
	Starting AA second half-transformation.
	Starting AB second half-transformation.
	Starting BB second half-transformation.
	Two-electron integral transformation complete.
	(OV|OO)...
	Starting AA/AB first half-transformation.
	Sorting AA/AB half-transformed integrals.
	Starting BB first half-transformation.
	Sorting BB half-transformed integrals.
	First half integral transformation complete.
	Starting AA second half-transformation.
	Starting AB second half-transformation.
	Starting BB second half-transformation.
	Two-electron integral transformation complete.
	(OV|OV)...
	Starting AA second half-transformation.
	Starting AB second half-transformation.
	Starting BB second half-transformation.
	Two-electron integral transformation complete.
	(OV|VV)...
	Starting AA second half-transformation.
	Starting AB second half-transformation.
	Starting BB second half-transformation.
	Two-electron integral transformation complete.
	(VV|OO)...
	Starting AA/AB first half-transformation.
	Sorting AA/AB half-transformed integrals.
	Starting BB first half-transformation.
	Sorting BB half-transformed integrals.
	First half integral transformation complete.
	Starting AA second half-transformation.
	Starting AB second half-transformation.
	Starting BB second half-transformation.
	Two-electron integral transformation complete.
	(VV|OV)...
	Starting AA second half-transformation.
	Starting AB second half-transformation.
	Starting BB second half-transformation.
	Two-electron integral transformation complete.
	(VV|VV)...
	Starting AA second half-transformation.
	Starting AB second half-transformation.
	Starting BB second half-transformation.
	Two-electron integral transformation complete.
	Frozen core energy     =    -59.10680706481853

	Size of irrep 0 of <AB|CD> integrals:      4.964 (MW) /     39.712 (MB)
	Size of irrep 1 of <AB|CD> integrals:      4.244 (MW) /     33.949 (MB)
	Size of irrep 2 of <AB|CD> integrals:      4.244 (MW) /     33.949 (MB)
	Size of irrep 3 of <AB|CD> integrals:      4.244 (MW) /     33.949 (MB)
	Size of irrep 4 of <AB|CD> integrals:      3.679 (MW) /     29.430 (MB)
	Size of irrep 5 of <AB|CD> integrals:      4.709 (MW) /     37.671 (MB)
	Size of irrep 6 of <AB|CD> integrals:      4.709 (MW) /     37.671 (MB)
	Size of irrep 7 of <AB|CD> integrals:      4.709 (MW) /     37.671 (MB)
	Total:                                    35.500 (MW) /    284.002 (MB)

	Size of irrep 0 of <ab|cd> integrals:      5.189 (MW) /     41.514 (MB)
	Size of irrep 1 of <ab|cd> integrals:      4.456 (MW) /     35.651 (MB)
	Size of irrep 2 of <ab|cd> integrals:      4.393 (MW) /     35.146 (MB)
	Size of irrep 3 of <ab|cd> integrals:      4.393 (MW) /     35.146 (MB)
	Size of irrep 4 of <ab|cd> integrals:      3.834 (MW) /     30.670 (MB)
	Size of irrep 5 of <ab|cd> integrals:      4.884 (MW) /     39.073 (MB)
	Size of irrep 6 of <ab|cd> integrals:      4.964 (MW) /     39.712 (MB)
	Size of irrep 7 of <ab|cd> integrals:      4.964 (MW) /     39.712 (MB)
	Total:                                    37.078 (MW) /    296.623 (MB)

	Size of irrep 0 of <Ab|Cd> integrals:     21.996 (MW) /    175.969 (MB)
	Size of irrep 1 of <Ab|Cd> integrals:     17.389 (MW) /    139.111 (MB)
	Size of irrep 2 of <Ab|Cd> integrals:     17.272 (MW) /    138.179 (MB)
	Size of irrep 3 of <Ab|Cd> integrals:     17.272 (MW) /    138.179 (MB)
	Size of irrep 4 of <Ab|Cd> integrals:     15.023 (MW) /    120.187 (MB)
	Size of irrep 5 of <Ab|Cd> integrals:     19.184 (MW) /    153.475 (MB)
	Size of irrep 6 of <Ab|Cd> integrals:     19.342 (MW) /    154.739 (MB)
	Size of irrep 7 of <Ab|Cd> integrals:     19.342 (MW) /    154.739 (MB)
	Total:                                   146.822 (MW) /   1174.578 (MB)

	Size of irrep 0 of <IA|BC> integrals:      0.524 (MW) /      4.195 (MB)
	Size of irrep 1 of <IA|BC> integrals:      0.334 (MW) /      2.670 (MB)
	Size of irrep 2 of <IA|BC> integrals:      0.334 (MW) /      2.670 (MB)
	Size of irrep 3 of <IA|BC> integrals:      0.334 (MW) /      2.670 (MB)
	Size of irrep 4 of <IA|BC> integrals:      0.272 (MW) /      2.179 (MB)
	Size of irrep 5 of <IA|BC> integrals:      0.447 (MW) /      3.576 (MB)
	Size of irrep 6 of <IA|BC> integrals:      0.447 (MW) /      3.576 (MB)
	Size of irrep 7 of <IA|BC> integrals:      0.447 (MW) /      3.576 (MB)
	Total:                                     3.139 (MW) /     25.111 (MB)

	Size of irrep 0 of <ia|bc> integrals:      0.299 (MW) /      2.390 (MB)
	Size of irrep 1 of <ia|bc> integrals:      0.131 (MW) /      1.047 (MB)
	Size of irrep 2 of <ia|bc> integrals:      0.193 (MW) /      1.543 (MB)
	Size of irrep 3 of <ia|bc> integrals:      0.193 (MW) /      1.543 (MB)
	Size of irrep 4 of <ia|bc> integrals:      0.121 (MW) /      0.971 (MB)
	Size of irrep 5 of <ia|bc> integrals:      0.278 (MW) /      2.228 (MB)
	Size of irrep 6 of <ia|bc> integrals:      0.205 (MW) /      1.640 (MB)
	Size of irrep 7 of <ia|bc> integrals:      0.205 (MW) /      1.640 (MB)
	Total:                                     1.625 (MW) /     13.001 (MB)

	Size of irrep 0 of <Ia|Bc> integrals:      0.539 (MW) /      4.315 (MB)
	Size of irrep 1 of <Ia|Bc> integrals:      0.346 (MW) /      2.769 (MB)
	Size of irrep 2 of <Ia|Bc> integrals:      0.341 (MW) /      2.726 (MB)
	Size of irrep 3 of <Ia|Bc> integrals:      0.341 (MW) /      2.726 (MB)
	Size of irrep 4 of <Ia|Bc> integrals:      0.275 (MW) /      2.202 (MB)
	Size of irrep 5 of <Ia|Bc> integrals:      0.451 (MW) /      3.609 (MB)
	Size of irrep 6 of <Ia|Bc> integrals:      0.457 (MW) /      3.659 (MB)
	Size of irrep 7 of <Ia|Bc> integrals:      0.457 (MW) /      3.659 (MB)
	Total:                                     3.208 (MW) /     25.665 (MB)

	Size of irrep 0 of <iA|bC> integrals:      0.295 (MW) /      2.364 (MB)
	Size of irrep 1 of <iA|bC> integrals:      0.129 (MW) /      1.034 (MB)
	Size of irrep 2 of <iA|bC> integrals:      0.187 (MW) /      1.496 (MB)
	Size of irrep 3 of <iA|bC> integrals:      0.187 (MW) /      1.496 (MB)
	Size of irrep 4 of <iA|bC> integrals:      0.120 (MW) /      0.961 (MB)
	Size of irrep 5 of <iA|bC> integrals:      0.276 (MW) /      2.208 (MB)
	Size of irrep 6 of <iA|bC> integrals:      0.198 (MW) /      1.583 (MB)
	Size of irrep 7 of <iA|bC> integrals:      0.198 (MW) /      1.583 (MB)
	Total:                                     1.591 (MW) /     12.726 (MB)

	Size of irrep 0 of tIjAb amplitudes:       0.009 (MW) /      0.075 (MB)
	Size of irrep 1 of tIjAb amplitudes:       0.000 (MW) /      0.000 (MB)
	Size of irrep 2 of tIjAb amplitudes:       0.004 (MW) /      0.033 (MB)
	Size of irrep 3 of tIjAb amplitudes:       0.004 (MW) /      0.033 (MB)
	Size of irrep 4 of tIjAb amplitudes:       0.000 (MW) /      0.000 (MB)
	Size of irrep 5 of tIjAb amplitudes:       0.009 (MW) /      0.070 (MB)
	Size of irrep 6 of tIjAb amplitudes:       0.004 (MW) /      0.035 (MB)
	Size of irrep 7 of tIjAb amplitudes:       0.004 (MW) /      0.035 (MB)
	Total:                                     0.035 (MW) /      0.282 (MB)

	Nuclear Rep. energy          =      0.00000000000000
	SCF energy                   =    -74.81896136915017
	One-electron energy          =    -26.37503314831308
	Two-electron (AA) energy     =      3.99042380246522
	Two-electron (BB) energy     =      0.58787559592485
	Two-electron (AB) energy     =      6.08457944559139
	Two-electron energy          =     10.66287884398145
	Reference energy             =    -74.81896136915016

*** tstop() called on n411-011.vsc4.prov at Thu Jan 21 14:17:13 2021
Module time:
	user time   =      16.86 seconds =       0.28 minutes
	system time =      12.17 seconds =       0.20 minutes
	total time  =         64 seconds =       1.07 minutes
Total time:
	user time   =     129.89 seconds =       2.16 minutes
	system time =      15.37 seconds =       0.26 minutes
	total time  =        168 seconds =       2.80 minutes
            **************************
            *                        *
            *        CCENERGY        *
            *                        *
            **************************

    Nuclear Rep. energy (wfn)     =    0.000000000000000
    SCF energy          (wfn)     =  -74.818961369150173
    Reference energy    (file100) =  -74.818961369150159

    Input parameters:
    -----------------
    Wave function   =     CCSD_T
    Reference wfn   =     UHF
    Brueckner       =     No
    Memory (Mbytes) =     250000.0
    Maxiter         =     50
    R_Convergence   =     1.0e-07
    E_Convergence   =     1.0e-06
    Restart         =     Yes
    DIIS            =     Yes
    AO Basis        =     NONE
    ABCD            =     NEW
    Cache Level     =     2
    Cache Type      =     LRU
    Print Level     =     1
    Num. of threads =     48
    # Amps to Print =     10
    Print MP2 Amps? =     No
    Analyze T2 Amps =     No
    Print Pair Ener =     No
    Local CC        =     No
    SCS-MP2         =     False
    SCSN-MP2        =     False
    SCS-CCSD        =     False

MP2 correlation energy -0.1668743679147607
                Solving CC Amplitude Equations
                ------------------------------
  Iter             Energy              RMS        T1Diag      D1Diag    New D1Diag    D2Diag
  ----     ---------------------    ---------   ----------  ----------  ----------   --------
     0        -0.166874367914761    0.000e+00    0.000000    0.000000    0.000000    0.000000
     1        -0.175790154401694    2.726e-02    0.006384    0.000000    0.000000    0.000000
     2        -0.179221129308108    1.008e-02    0.008803    0.000000    0.000000    0.000000
     3        -0.179504531646213    3.772e-03    0.009876    0.000000    0.000000    0.000000
     4        -0.179455842744722    1.669e-03    0.010126    0.000000    0.000000    0.000000
     5        -0.179486142202676    6.775e-04    0.010160    0.000000    0.000000    0.000000
     6        -0.179493400893147    2.342e-04    0.010141    0.000000    0.000000    0.000000
     7        -0.179493167730482    7.873e-05    0.010133    0.000000    0.000000    0.000000
     8        -0.179493566140764    2.629e-05    0.010134    0.000000    0.000000    0.000000
     9        -0.179493116057590    9.869e-06    0.010135    0.000000    0.000000    0.000000
    10        -0.179493162492501    3.581e-06    0.010135    0.000000    0.000000    0.000000
    11        -0.179493225078427    1.050e-06    0.010136    0.000000    0.000000    0.000000
    12        -0.179493251452984    3.867e-07    0.010136    0.000000    0.000000    0.000000
    13        -0.179493257599126    1.188e-07    0.010136    0.000000    0.000000    0.000000
    14        -0.179493257778831    4.377e-08    0.010136    0.000000    0.000000    0.000000

    Iterations converged.


    Largest TIA Amplitudes:
              2 135        -0.0084510001
              3 160        -0.0084510001
              1 110        -0.0083643704
              1 109        -0.0058901399
              2 134        -0.0054913121
              3 159        -0.0054913121
              0   0         0.0047838194
              0   3        -0.0044579208
              0   5        -0.0034436629
              1 116         0.0023875881

    Largest Tia Amplitudes:
              0   4        -0.0073786223
              0  10         0.0057509383
              1 116         0.0050345208
              0   9         0.0044463687
              0   3        -0.0039200047
              0   2         0.0037285917
              1 113         0.0037173325
              1 109        -0.0031874186
              1 110        -0.0022746153
              0  17        -0.0022489158

    Largest TIJAB Amplitudes:
      3   2 163 138        -0.0137009107
      3   1 163 113        -0.0136880538
      2   1 138 113        -0.0136880538
      3   1 163 110        -0.0115141099
      2   1 138 110        -0.0115141099
      3   1 160 113        -0.0110258463
      2   1 135 113        -0.0110258463
      3   2 160 138        -0.0109608169
      3   2 163 135        -0.0109608169
      3   1 160 110        -0.0104689988

    Largest Tijab Amplitudes:
      1   0 135  79         0.0090096010
      1   0 161  59         0.0090096010
      1   0 113   3         0.0071081606
      1   0 110   3         0.0070789499
      1   0 134  79         0.0069254006
      1   0 160  59         0.0069254006
      1   0 135  82        -0.0069077161
      1   0 161  62        -0.0069077161
      1   0 113   9        -0.0063535495
      1   0 136  79         0.0059631833

    Largest TIjAb Amplitudes:
      1   1 113 113        -0.0250974218
      1   1 113 110        -0.0210794288
      1   1 110 113        -0.0204506615
      1   1 110 110        -0.0201314919
      3   1 163 113        -0.0177387811
      2   1 138 113        -0.0177387811
      2   0   4 135         0.0163614629
      2   0  39 161        -0.0163614629
      3   0   4 161        -0.0163614629
      3   0  39 135        -0.0163614629

    SCF energy       (wfn)                    =  -74.818961369150173
    Reference energy (file100)                =  -74.818961369150159

    Opposite-spin MP2 correlation energy      =   -0.128070675279624
    Same-spin MP2 correlation energy          =   -0.038803692635136
    Singles MP2 correlation energy            =   -0.000000000000000
    MP2 correlation energy                    =   -0.166874367914761
      * MP2 total energy                      =  -74.985835737064917

    Opposite-spin CCSD correlation energy     =   -0.140463196518713
    Same-spin CCSD correlation energy         =   -0.039030061260119
    Singles CCSD correlation energy           =    0.000000000000000
    CCSD correlation energy                   =   -0.179493257778831
      * CCSD total energy                     =  -74.998454626928989

            **************************
            *                        *
            *        CCTRIPLES       *
            *                        *
            **************************


    Wave function   =    CCSD_T
    Reference wfn   =      UHF

    Nuclear Rep. energy (wfn)                =    0.000000000000000
    SCF energy          (wfn)                =  -74.818961369150173
    Reference energy    (file100)            =  -74.818961369150159
    CCSD energy         (file100)            =   -0.179493257778831
    Total CCSD energy   (file100)            =  -74.998454626928989

    Number of ijk index combinations:
    Spin Case AAA:                                   4
    Spin Case BBB:                                   0
    Spin Case AAB:                                  12
    Spin Case ABB:                                   4
    AAA (T) energy                             =   -0.000229895367222
    BBB (T) energy                             =    0.000000000000000
    AAB (T) energy                             =   -0.003011486912667
    ABB (T) energy                             =   -0.000872925132116
    (T) energy                                   =   -0.004114307412004
      * CCSD(T) total energy                     =  -75.002568934340999


    Psi4 stopped on: Thursday, 21 January 2021 02:18PM
    Psi4 wall time for execution: 0:03:47.67

*** Psi4 exiting successfully. Buy a developer a beer!
