
    -----------------------------------------------------------------------
          Psi4: An Open-Source Ab Initio Electronic Structure Package
                               Psi4 1.2a1.dev938 

                         Git: Rev {HEAD} fc51d9a dirty


    R. M. Parrish, L. A. Burns, D. G. A. Smith, A. C. Simmonett,
    A. E. DePrince III, E. G. Hohenstein, U. Bozkaya, A. Yu. Sokolov,
    R. Di Remigio, R. M. Richard, J. F. Gonthier, A. M. James,
    H. R. McAlexander, A. Kumar, M. Saitow, X. Wang, B. P. Pritchard,
    P. Verma, H. F. Schaefer III, K. Patkowski, R. A. King, E. F. Valeev,
    F. A. Evangelista, J. M. Turney, T. D. Crawford, and C. D. Sherrill,
    J. Chem. Theory Comput. 13(7) pp 3185--3197 (2017).
    (doi: 10.1021/acs.jctc.7b00174)

    -----------------------------------------------------------------------


    Psi4 started on: Thursday, 20 August 2020 10:42PM

    Process ID: 425515
    PSIDATADIR: /home/irmler/Programs/psi4/beforeGrueneis3/stage/usr/local/psi4/share/psi4
    Memory:     500.0 MiB
    Threads:    4
    
  ==> Input File <==

--------------------------------------------------------------------------
# Any line starting with the # character is a comment line
memory 250000 mb
molecule molecule{
-1 2
O          0.0000000000        0.0000000000        0.0000000000
}

set {
  reference uhf
  basis aug-cc-pv(q+d)z
  scf_type OUT_OF_CORE
  freeze_core true
}

energy('ccsd')
--------------------------------------------------------------------------

  Memory set to 232.831 GiB by Python driver.

*** tstart() called on cqc05
*** at Thu Aug 20 22:42:04 2020

   => Loading Basis Set <=

    Name: AUG-CC-PV(Q+D)Z
    Role: ORBITAL
    Keyword: BASIS
    atoms 1 entry O          line   439 file /home/irmler/Programs/psi4/beforeGrueneis3/stage/usr/local/psi4/share/psi4/basis/aug-cc-pv_qpd_z.gbs 


         ---------------------------------------------------------
                                   SCF
            by Justin Turney, Rob Parrish, Andy Simmonett
                             and Daniel Smith
                              UHF Reference
                        4 Threads, 238418 MiB Core
         ---------------------------------------------------------

  ==> Geometry <==

    Molecular point group: d2h
    Geometry (in Angstrom), charge = -1, multiplicity = 2:

       Center              X                  Y                   Z               Mass       
    ------------   -----------------  -----------------  -----------------  -----------------
           O          0.000000000000     0.000000000000     0.000000000000    15.994914619560

  Running in d2h symmetry.

  Rotational constants: A = ************  B = ************  C = ************ [cm^-1]
  Rotational constants: A = ************  B = ************  C = ************ [MHz]
  Nuclear repulsion =    0.000000000000000

  Charge       = -1
  Multiplicity = 2
  Electrons    = 9
  Nalpha       = 5
  Nbeta        = 4

  ==> Algorithm <==

  SCF Algorithm Type is OUT_OF_CORE.
  DIIS enabled.
  MOM disabled.
  Fractional occupation disabled.
  Guess Type is GWH.
  Energy threshold   = 1.00e-08
  Density threshold  = 1.00e-08
  Integral threshold = 0.00e+00

  ==> Primary Basis <==

  Basis Set: AUG-CC-PV(Q+D)Z
    Blend: AUG-CC-PV(Q+D)Z
    Number of shells: 20
    Number of basis function: 80
    Number of Cartesian functions: 105
    Spherical Harmonics?: true
    Max angular momentum: 4

  ==> Pre-Iterations <==

   -------------------------------------------------------
    Irrep   Nso     Nmo     Nalpha   Nbeta   Ndocc  Nsocc
   -------------------------------------------------------
     Ag        20      20       0       0       0       0
     B1g        8       8       0       0       0       0
     B2g        8       8       0       0       0       0
     B3g        8       8       0       0       0       0
     Au         3       3       0       0       0       0
     B1u       11      11       0       0       0       0
     B2u       11      11       0       0       0       0
     B3u       11      11       0       0       0       0
   -------------------------------------------------------
    Total      80      80       5       4       4       1
   -------------------------------------------------------

  ==> Integral Setup <==

  ==> DiskJK: Disk-Based J/K Matrices <==

    J tasked:                  Yes
    K tasked:                  Yes
    wK tasked:                  No
    Memory (MB):            178813
    Schwarz Cutoff:          1E-12

  Minimum eigenvalue in the overlap matrix is 3.6101200079E-03.
  Using Symmetric Orthogonalization.

  SCF Guess: Generalized Wolfsberg-Helmholtz.

  ==> Iterations <==

                        Total Energy        Delta E     RMS |[F,P]|

    Occupation by irrep:
             Ag   B1g   B2g   B3g    Au   B1u   B2u   B3u 
    DOCC [     2,    0,    0,    0,    0,    0,    1,    1 ]
    SOCC [     0,    0,    0,    0,    0,    1,    0,    0 ]

   @UHF iter   1:   -67.85359913993710   -6.78536e+01   3.17806e-01 
    Occupation by irrep:
             Ag   B1g   B2g   B3g    Au   B1u   B2u   B3u 
    DOCC [     2,    0,    0,    0,    0,    1,    0,    1 ]
    SOCC [     0,    0,    0,    0,    0,    0,    1,    0 ]

   @UHF iter   2:   -67.17311912357169    6.80480e-01   1.06423e-01 DIIS
   @UHF iter   3:   -72.43832639527628   -5.26521e+00   1.26380e-01 DIIS
   @UHF iter   4:   -74.05690360684582   -1.61858e+00   6.15683e-02 DIIS
   @UHF iter   5:   -74.77020652031453   -7.13303e-01   7.90626e-03 DIIS
   @UHF iter   6:   -74.79529208088059   -2.50856e-02   2.12853e-03 DIIS
   @UHF iter   7:   -74.79617620995754   -8.84129e-04   9.11884e-04 DIIS
   @UHF iter   8:   -74.79646167806838   -2.85468e-04   2.32571e-04 DIIS
   @UHF iter   9:   -74.79655644288039   -9.47648e-05   1.13713e-04 DIIS
   @UHF iter  10:   -74.79658685204853   -3.04092e-05   2.61674e-05 DIIS
   @UHF iter  11:   -74.79658798559538   -1.13355e-06   8.32863e-06 DIIS
   @UHF iter  12:   -74.79658805950018   -7.39048e-08   2.42313e-06 DIIS
   @UHF iter  13:   -74.79658806552084   -6.02066e-09   1.26110e-06 DIIS
   @UHF iter  14:   -74.79658806887558   -3.35474e-09   2.59838e-07 DIIS
   @UHF iter  15:   -74.79658806893949   -6.39062e-11   4.55034e-08 DIIS
   @UHF iter  16:   -74.79658806894074   -1.25056e-12   6.36549e-09 DIIS

  ==> Post-Iterations <==

   @Spin Contamination Metric:   2.099021955E-02
   @S^2 Expected:                7.500000000E-01
   @S^2 Observed:                7.709902196E-01
   @S   Expected:                5.000000000E-01
   @S   Observed:                5.000000000E-01

    Orbital Energies (a.u.)
    -----------------------

    Alpha Occupied:                                                       

       1Ag   -20.224132     2Ag    -0.909197     1B2u   -0.237925  
       1B1u   -0.144912     1B3u   -0.144911  

    Alpha Virtual:                                                        

       2B2u    0.332789     2B1u    0.344076     2B3u    0.344076  
       3Ag     0.379602     4Ag     0.737417     1B1g    0.741396  
       1B3g    0.741396     1B2g    0.754189     5Ag     0.754189  
       3B2u    1.004254     3B1u    1.044239     3B3u    1.044239  
       6Ag     1.227999     4B2u    1.644260     4B1u    1.647351  
       4B3u    1.647351     1Au     1.656749     5B2u    1.656749  
       5B1u    1.672992     5B3u    1.672992     7Ag     1.857576  
       2B1g    1.869067     2B3g    1.869067     2B2g    1.906203  
       8Ag     1.906203     6B2u    3.087990     6B1u    3.152591  
       6B3u    3.152591     9Ag     3.997662     3B1g    4.000590  
       3B3g    4.000590     3B2g    4.009418    10Ag     4.009418  
       4B1g    4.024282     4B3g    4.024282    11Ag     4.045437  
       4B2g    4.045437    12Ag     4.337636     7B2u    4.403480  
       7B3u    4.410010     7B1u    4.410010     2Au     4.429809  
       8B2u    4.429809     8B1u    4.463723     8B3u    4.463723  
      13Ag     4.692903     5B1g    4.710236     5B3g    4.710236  
       5B2g    4.764812    14Ag     4.764812     9B2u   10.737459  
       9B3u   10.798884     9B1u   10.798884    15Ag    10.974520  
       6B1g   10.979236     6B3g   10.979236     6B2g   10.993425  
      16Ag    10.993425     7B3g   11.017220     7B1g   11.017220  
       7B2g   11.050848    17Ag    11.050848    10B2u   12.202751  
      10B3u   12.211403    10B1u   12.211403     3Au    12.237537  
      11B2u   12.237537    11B3u   12.281879    11B1u   12.281879  
      18Ag    13.021996     8B1g   13.039460     8B3g   13.039460  
       8B2g   13.092879    19Ag    13.092879    20Ag    40.876611  

    Beta Occupied:                                                        

       1Ag   -20.183143     2Ag    -0.729308     1B1u   -0.079956  
       1B3u   -0.079956  

    Beta Virtual:                                                         

       1B2u    0.307817     2B1u    0.349471     2B3u    0.349471  
       3Ag     0.382249     2B2u    0.523042     4Ag     0.747594  
       1B2g    0.747594     1B1g    0.748571     1B3g    0.748571  
       5Ag     0.749151     3B1u    1.064066     3B3u    1.064066  
       3B2u    1.141033     6Ag     1.258360     4B2u    1.655243  
       4B1u    1.656751     4B3u    1.656751     5B2u    1.661341  
       1Au     1.661341     5B1u    1.668982     5B3u    1.668982  
       7Ag     1.912500     2B2g    1.912500     2B3g    1.926086  
       2B1g    1.926086     8Ag     1.931391     6B1u    3.182543  
       6B3u    3.182543     6B2u    3.222511     9Ag     4.014378  
       3B3g    4.016230     3B1g    4.016230    10Ag     4.021788  
       3B2g    4.021788     4B1g    4.031057     4B3g    4.031057  
       4B2g    4.044024    11Ag     4.044024    12Ag     4.388922  
       7B2u    4.448474     7B3u    4.450747     7B1u    4.450747  
       8B2u    4.457562     2Au     4.457562     8B1u    4.468873  
       8B3u    4.468873     5B2g    4.789748    13Ag     4.789748  
       5B1g    4.799982     5B3g    4.799982    14Ag     4.804045  
       9B3u   10.824504     9B1u   10.824504     9B2u   10.831696  
      15Ag    11.014288     6B1g   11.016999     6B3g   11.016999  
       6B2g   11.025140    16Ag    11.025140     7B3g   11.038734  
       7B1g   11.038734     7B2g   11.057815    17Ag    11.057815  
      10B2u   12.268724    10B3u   12.271946    10B1u   12.271946  
       3Au    12.281639    11B2u   12.281639    11B3u   12.297879  
      11B1u   12.297879    18Ag    13.106255     8B1g   13.108737  
       8B3g   13.108737     8B2g   13.116393    19Ag    13.116393  
      20Ag    40.902293  

    Final Occupation by Irrep:
             Ag   B1g   B2g   B3g    Au   B1u   B2u   B3u 
    DOCC [     2,    0,    0,    0,    0,    1,    0,    1 ]
    SOCC [     0,    0,    0,    0,    0,    0,    1,    0 ]

  Energy converged.

  @UHF Final Energy:   -74.79658806894074

   => Energetics <=

    Nuclear Repulsion Energy =              0.0000000000000000
    One-Electron Energy =                -106.8597375314568012
    Two-Electron Energy =                  32.0631494625160514
    Total Energy =                        -74.7965880689407498


  UHF NO Occupations:
  HONO-2 :    1B1u 1.9957923
  HONO-1 :    1B3u 1.9957923
  HONO-0 :    1B2u 1.0000000
  LUNO+0 :    2B3u 0.0042077
  LUNO+1 :    2B1u 0.0042077
  LUNO+2 :    3 Ag 0.0020986
  LUNO+3 :    4 Ag 0.0000011



Properties will be evaluated at   0.000000,   0.000000,   0.000000 Bohr

Properties computed using the SCF density matrix

  Nuclear Dipole Moment: (a.u.)
     X:     0.0000      Y:     0.0000      Z:     0.0000

  Electronic Dipole Moment: (a.u.)
     X:     0.0000      Y:     0.0000      Z:     0.0000

  Dipole Moment: (a.u.)
     X:     0.0000      Y:     0.0000      Z:     0.0000     Total:     0.0000

  Dipole Moment: (Debye)
     X:     0.0000      Y:     0.0000      Z:     0.0000     Total:     0.0000


*** tstop() called on cqc05 at Thu Aug 20 22:42:05 2020
Module time:
	user time   =       1.60 seconds =       0.03 minutes
	system time =       0.03 seconds =       0.00 minutes
	total time  =          1 seconds =       0.02 minutes
Total time:
	user time   =       1.60 seconds =       0.03 minutes
	system time =       0.03 seconds =       0.00 minutes
	total time  =          1 seconds =       0.02 minutes

*** tstart() called on cqc05
*** at Thu Aug 20 22:42:05 2020


	Wfn Parameters:
	--------------------
	Wavefunction         = CCSD
	Number of irreps     = 8
	Number of MOs        = 80
	Number of active MOs = 79
	AO-Basis             = NONE
	Semicanonical        = false
	Reference            = UHF
	Print Level          = 1

	IRREP	# MOs	# FZDC	# DOCC	# SOCC	# VIRT	# FZVR
	-----	-----	------	------	------	------	------
	 Ag	   20	    1	    1	    0	    18	    0
	 B1g	   8	    0	    0	    0	    8	    0
	 B2g	   8	    0	    0	    0	    8	    0
	 B3g	   8	    0	    0	    0	    8	    0
	 Au	   3	    0	    0	    0	    3	    0
	 B1u	   11	    0	    1	    0	    10	    0
	 B2u	   11	    0	    0	    1	    10	    0
	 B3u	   11	    0	    1	    0	    10	    0
	Transforming integrals...
	IWL integrals will be deleted.
	(OO|OO)...
	Presorting SO-basis two-electron integrals.
	Sorting File: SO Ints (nn|nn) nbuckets = 1
	Transforming the one-electron integrals and constructing Fock matrices
	Starting AA/AB first half-transformation.
	Sorting AA/AB half-transformed integrals.
	Starting BB first half-transformation.
	Sorting BB half-transformed integrals.
	First half integral transformation complete.
	Starting AA second half-transformation.
	Starting AB second half-transformation.
	Starting BB second half-transformation.
	Two-electron integral transformation complete.
	(OO|OV)...
	Starting AA second half-transformation.
	Starting AB second half-transformation.
	Starting BB second half-transformation.
	Two-electron integral transformation complete.
	(OO|VV)...
	Starting AA second half-transformation.
	Starting AB second half-transformation.
	Starting BB second half-transformation.
	Two-electron integral transformation complete.
	(OV|OO)...
	Starting AA/AB first half-transformation.
	Sorting AA/AB half-transformed integrals.
	Starting BB first half-transformation.
	Sorting BB half-transformed integrals.
	First half integral transformation complete.
	Starting AA second half-transformation.
	Starting AB second half-transformation.
	Starting BB second half-transformation.
	Two-electron integral transformation complete.
	(OV|OV)...
	Starting AA second half-transformation.
	Starting AB second half-transformation.
	Starting BB second half-transformation.
	Two-electron integral transformation complete.
	(OV|VV)...
	Starting AA second half-transformation.
	Starting AB second half-transformation.
	Starting BB second half-transformation.
	Two-electron integral transformation complete.
	(VV|OO)...
	Starting AA/AB first half-transformation.
	Sorting AA/AB half-transformed integrals.
	Starting BB first half-transformation.
	Sorting BB half-transformed integrals.
	First half integral transformation complete.
	Starting AA second half-transformation.
	Starting AB second half-transformation.
	Starting BB second half-transformation.
	Two-electron integral transformation complete.
	(VV|OV)...
	Starting AA second half-transformation.
	Starting AB second half-transformation.
	Starting BB second half-transformation.
	Two-electron integral transformation complete.
	(VV|VV)...
	Starting AA second half-transformation.
	Starting AB second half-transformation.
	Starting BB second half-transformation.
	Two-electron integral transformation complete.
	Frozen core energy     =    -59.10679686822485

	Size of irrep 0 of <AB|CD> integrals:      0.141 (MW) /      1.125 (MB)
	Size of irrep 1 of <AB|CD> integrals:      0.114 (MW) /      0.914 (MB)
	Size of irrep 2 of <AB|CD> integrals:      0.114 (MW) /      0.914 (MB)
	Size of irrep 3 of <AB|CD> integrals:      0.114 (MW) /      0.914 (MB)
	Size of irrep 4 of <AB|CD> integrals:      0.086 (MW) /      0.691 (MB)
	Size of irrep 5 of <AB|CD> integrals:      0.132 (MW) /      1.060 (MB)
	Size of irrep 6 of <AB|CD> integrals:      0.132 (MW) /      1.060 (MB)
	Size of irrep 7 of <AB|CD> integrals:      0.132 (MW) /      1.060 (MB)
	Total:                                     0.967 (MW) /      7.738 (MB)

	Size of irrep 0 of <ab|cd> integrals:      0.148 (MW) /      1.186 (MB)
	Size of irrep 1 of <ab|cd> integrals:      0.121 (MW) /      0.969 (MB)
	Size of irrep 2 of <ab|cd> integrals:      0.116 (MW) /      0.930 (MB)
	Size of irrep 3 of <ab|cd> integrals:      0.121 (MW) /      0.969 (MB)
	Size of irrep 4 of <ab|cd> integrals:      0.091 (MW) /      0.730 (MB)
	Size of irrep 5 of <ab|cd> integrals:      0.138 (MW) /      1.107 (MB)
	Size of irrep 6 of <ab|cd> integrals:      0.146 (MW) /      1.167 (MB)
	Size of irrep 7 of <ab|cd> integrals:      0.138 (MW) /      1.107 (MB)
	Total:                                     1.021 (MW) /      8.165 (MB)

	Size of irrep 0 of <Ab|Cd> integrals:      0.697 (MW) /      5.578 (MB)
	Size of irrep 1 of <Ab|Cd> integrals:      0.471 (MW) /      3.765 (MB)
	Size of irrep 2 of <Ab|Cd> integrals:      0.461 (MW) /      3.688 (MB)
	Size of irrep 3 of <Ab|Cd> integrals:      0.471 (MW) /      3.765 (MB)
	Size of irrep 4 of <Ab|Cd> integrals:      0.355 (MW) /      2.842 (MB)
	Size of irrep 5 of <Ab|Cd> integrals:      0.542 (MW) /      4.334 (MB)
	Size of irrep 6 of <Ab|Cd> integrals:      0.557 (MW) /      4.452 (MB)
	Size of irrep 7 of <Ab|Cd> integrals:      0.542 (MW) /      4.334 (MB)
	Total:                                     4.095 (MW) /     32.757 (MB)

	Size of irrep 0 of <IA|BC> integrals:      0.040 (MW) /      0.317 (MB)
	Size of irrep 1 of <IA|BC> integrals:      0.021 (MW) /      0.168 (MB)
	Size of irrep 2 of <IA|BC> integrals:      0.021 (MW) /      0.168 (MB)
	Size of irrep 3 of <IA|BC> integrals:      0.021 (MW) /      0.168 (MB)
	Size of irrep 4 of <IA|BC> integrals:      0.016 (MW) /      0.127 (MB)
	Size of irrep 5 of <IA|BC> integrals:      0.032 (MW) /      0.256 (MB)
	Size of irrep 6 of <IA|BC> integrals:      0.032 (MW) /      0.256 (MB)
	Size of irrep 7 of <IA|BC> integrals:      0.032 (MW) /      0.256 (MB)
	Total:                                     0.214 (MW) /      1.716 (MB)

	Size of irrep 0 of <ia|bc> integrals:      0.032 (MW) /      0.257 (MB)
	Size of irrep 1 of <ia|bc> integrals:      0.015 (MW) /      0.122 (MB)
	Size of irrep 2 of <ia|bc> integrals:      0.019 (MW) /      0.153 (MB)
	Size of irrep 3 of <ia|bc> integrals:      0.015 (MW) /      0.122 (MB)
	Size of irrep 4 of <ia|bc> integrals:      0.011 (MW) /      0.092 (MB)
	Size of irrep 5 of <ia|bc> integrals:      0.027 (MW) /      0.214 (MB)
	Size of irrep 6 of <ia|bc> integrals:      0.021 (MW) /      0.165 (MB)
	Size of irrep 7 of <ia|bc> integrals:      0.027 (MW) /      0.214 (MB)
	Total:                                     0.168 (MW) /      1.340 (MB)

	Size of irrep 0 of <Ia|Bc> integrals:      0.041 (MW) /      0.327 (MB)
	Size of irrep 1 of <Ia|Bc> integrals:      0.022 (MW) /      0.176 (MB)
	Size of irrep 2 of <Ia|Bc> integrals:      0.021 (MW) /      0.168 (MB)
	Size of irrep 3 of <Ia|Bc> integrals:      0.022 (MW) /      0.176 (MB)
	Size of irrep 4 of <Ia|Bc> integrals:      0.016 (MW) /      0.129 (MB)
	Size of irrep 5 of <Ia|Bc> integrals:      0.032 (MW) /      0.259 (MB)
	Size of irrep 6 of <Ia|Bc> integrals:      0.034 (MW) /      0.269 (MB)
	Size of irrep 7 of <Ia|Bc> integrals:      0.032 (MW) /      0.259 (MB)
	Total:                                     0.220 (MW) /      1.762 (MB)

	Size of irrep 0 of <iA|bC> integrals:      0.032 (MW) /      0.254 (MB)
	Size of irrep 1 of <iA|bC> integrals:      0.014 (MW) /      0.115 (MB)
	Size of irrep 2 of <iA|bC> integrals:      0.019 (MW) /      0.152 (MB)
	Size of irrep 3 of <iA|bC> integrals:      0.014 (MW) /      0.115 (MB)
	Size of irrep 4 of <iA|bC> integrals:      0.011 (MW) /      0.091 (MB)
	Size of irrep 5 of <iA|bC> integrals:      0.026 (MW) /      0.212 (MB)
	Size of irrep 6 of <iA|bC> integrals:      0.019 (MW) /      0.155 (MB)
	Size of irrep 7 of <iA|bC> integrals:      0.026 (MW) /      0.212 (MB)
	Total:                                     0.163 (MW) /      1.306 (MB)

	Size of irrep 0 of tIjAb amplitudes:       0.003 (MW) /      0.020 (MB)
	Size of irrep 1 of tIjAb amplitudes:       0.001 (MW) /      0.005 (MB)
	Size of irrep 2 of tIjAb amplitudes:       0.001 (MW) /      0.011 (MB)
	Size of irrep 3 of tIjAb amplitudes:       0.001 (MW) /      0.005 (MB)
	Size of irrep 4 of tIjAb amplitudes:       0.000 (MW) /      0.000 (MB)
	Size of irrep 5 of tIjAb amplitudes:       0.001 (MW) /      0.012 (MB)
	Size of irrep 6 of tIjAb amplitudes:       0.001 (MW) /      0.006 (MB)
	Size of irrep 7 of tIjAb amplitudes:       0.001 (MW) /      0.012 (MB)
	Total:                                     0.009 (MW) /      0.071 (MB)

	Nuclear Rep. energy          =      0.00000000000000
	SCF energy                   =    -74.79658806894074
	One-electron energy          =    -29.05341860122170
	Two-electron (AA) energy     =      3.60814247236995
	Two-electron (BB) energy     =      1.63298364028795
	Two-electron (AB) energy     =      8.12250128784787
	Two-electron energy          =     13.36362740050577
	Reference energy             =    -74.79658806894078

*** tstop() called on cqc05 at Thu Aug 20 22:42:06 2020
Module time:
	user time   =       0.47 seconds =       0.01 minutes
	system time =       0.28 seconds =       0.00 minutes
	total time  =          1 seconds =       0.02 minutes
Total time:
	user time   =       2.07 seconds =       0.03 minutes
	system time =       0.31 seconds =       0.01 minutes
	total time  =          2 seconds =       0.03 minutes

*** tstart() called on cqc05
*** at Thu Aug 20 22:42:06 2020

            **************************
            *                        *
            *        CCENERGY        *
            *                        *
            **************************

    Nuclear Rep. energy (wfn)     =    0.000000000000000
    SCF energy          (wfn)     =  -74.796588068940736
    Reference energy    (file100) =  -74.796588068940778

    Input parameters:
    -----------------
    Wave function   =     CCSD
    Reference wfn   =     UHF
    Brueckner       =     No
    Memory (Mbytes) =     250000.0
    Maxiter         =     50
    R_Convergence   =     1.0e-07
    E_Convergence   =     1.0e-06
    Restart         =     Yes
    DIIS            =     Yes
    AO Basis        =     NONE
    ABCD            =     NEW
    Cache Level     =     2
    Cache Type      =     LRU
    Print Level     =     1
    Num. of threads =     4
    # Amps to Print =     10
    Print MP2 Amps? =     No
    Analyze T2 Amps =     No
    Print Pair Ener =     No
    Local CC        =     No
    SCS-MP2         =     False
    SCSN-MP2        =     False
    SCS-CCSD        =     False

MP2 correlation energy -0.2349301882303111
                Solving CC Amplitude Equations
                ------------------------------
  Iter             Energy              RMS        T1Diag      D1Diag    New D1Diag    D2Diag
  ----     ---------------------    ---------   ----------  ----------  ----------   --------
     0        -0.234930188230322    0.000e+00    0.000000    0.000000    0.000000    0.000000
     1        -0.233201162004043    7.705e-02    0.024754    0.000000    0.000000    0.000000
     2        -0.238050688971978    3.151e-02    0.021722    0.000000    0.000000    0.000000
     3        -0.240454760065417    1.612e-02    0.027869    0.000000    0.000000    0.000000
     4        -0.240351124324195    5.990e-03    0.030381    0.000000    0.000000    0.000000
     5        -0.240332869988516    3.053e-03    0.031362    0.000000    0.000000    0.000000
     6        -0.240414720172453    1.281e-03    0.031546    0.000000    0.000000    0.000000
     7        -0.240429193850109    5.915e-04    0.031464    0.000000    0.000000    0.000000
     8        -0.240436910313282    1.719e-04    0.031445    0.000000    0.000000    0.000000
     9        -0.240437145148472    7.273e-05    0.031442    0.000000    0.000000    0.000000
    10        -0.240435893057531    3.071e-05    0.031443    0.000000    0.000000    0.000000
    11        -0.240436545803887    1.382e-05    0.031443    0.000000    0.000000    0.000000
    12        -0.240436300597294    5.159e-06    0.031445    0.000000    0.000000    0.000000
    13        -0.240436439936911    1.475e-06    0.031445    0.000000    0.000000    0.000000
    14        -0.240436481393453    4.299e-07    0.031445    0.000000    0.000000    0.000000
    15        -0.240436480831736    1.561e-07    0.031445    0.000000    0.000000    0.000000
    16        -0.240436482913777    8.100e-08    0.031445    0.000000    0.000000    0.000000
    16        -0.240436482913777    8.100e-08    0.031445    0.000000    0.000000    0.000000

    Iterations converged.


    CCSD corr. energy   =   -0.240436482913777
    PPL corr. energy    =    0.051731925101135
    OS PPL corr. energy =    0.043138031746262
    SS PPL corr. energy =    0.008593893354872
    Largest TIA Amplitudes:
              3  65        -0.0432970680
              1  45        -0.0432969529
              2  55        -0.0352607258
              2  56        -0.0104324607
              0   0        -0.0100514110
              3  66        -0.0084061323
              1  46        -0.0084060980
              1  49         0.0064985582
              3  69         0.0064985525
              2  59         0.0054803232

    Largest Tia Amplitudes:
              2  66        -0.0222003694
              1  45        -0.0222002332
              1  49         0.0100962198
              2  70         0.0100962189
              0   5         0.0071732711
              1  46         0.0069262060
              2  67         0.0069261836
              0   2        -0.0049275185
              0   9        -0.0043635570
              0   3         0.0036344028

    Largest TIJAB Amplitudes:
      3   2  66  56        -0.0241153238
      2   1  56  46        -0.0241153217
      3   1  66  46        -0.0238886655
      3   1  65  45        -0.0185727062
      3   2  65  56        -0.0181712488
      2   1  56  45        -0.0181712343
      3   1  65  46        -0.0180294239
      3   1  66  45        -0.0180294116
      3   1  27   5        -0.0170559462
      3   2  66  55        -0.0153874884

    Largest Tijab Amplitudes:
      2   1  66  45        -0.0314653680
      2   1  67  46        -0.0255863333
      2   1  66  46        -0.0236152671
      2   1  67  45        -0.0236152501
      2   1  27   4        -0.0165910614
      2   1  26   1        -0.0143672817
      1   0  56  35        -0.0133135975
      2   0  56  19        -0.0133135964
      2   0  67   3        -0.0115984612
      1   0  46   3        -0.0115984605

    Largest TIjAb Amplitudes:
      3   2  66  67        -0.0540474086
      1   1  46  46        -0.0540473968
      3   2  65  66        -0.0441616890
      1   1  45  45        -0.0441616049
      3   2  66  66        -0.0419307002
      1   1  46  45        -0.0419306588
      3   2  65  67        -0.0391334121
      1   1  45  46        -0.0391333744
      3   1  66  46        -0.0354292971
      1   2  46  67        -0.0354292950

    SCF energy       (wfn)                    =  -74.796588068940736
    Reference energy (file100)                =  -74.796588068940778

    Opposite-spin MP2 correlation energy      =   -0.178545894960733
    Same-spin MP2 correlation energy          =   -0.056384293269450
    MP2 correlation energy                    =   -0.234930188230311
      * MP2 total energy                      =  -75.031518257171086

    Opposite-spin CCSD correlation energy     =   -0.189709400710807
    Same-spin CCSD correlation energy         =   -0.050727090539620
    CCSD correlation energy                   =   -0.240436482913777
      * CCSD total energy                     =  -75.037024551854557


*** tstop() called on cqc05 at Thu Aug 20 22:42:08 2020
Module time:
	user time   =       0.72 seconds =       0.01 minutes
	system time =       0.43 seconds =       0.01 minutes
	total time  =          2 seconds =       0.03 minutes
Total time:
	user time   =       2.79 seconds =       0.05 minutes
	system time =       0.74 seconds =       0.01 minutes
	total time  =          4 seconds =       0.07 minutes

*** Psi4 exiting successfully. Buy a developer a beer!
