
    -----------------------------------------------------------------------
          Psi4: An Open-Source Ab Initio Electronic Structure Package
                               Psi4 1.2a1.dev938 

                         Git: Rev {HEAD} fc51d9a dirty


    R. M. Parrish, L. A. Burns, D. G. A. Smith, A. C. Simmonett,
    A. E. DePrince III, E. G. Hohenstein, U. Bozkaya, A. Yu. Sokolov,
    R. Di Remigio, R. M. Richard, J. F. Gonthier, A. M. James,
    H. R. McAlexander, A. Kumar, M. Saitow, X. Wang, B. P. Pritchard,
    P. Verma, H. F. Schaefer III, K. Patkowski, R. A. King, E. F. Valeev,
    F. A. Evangelista, J. M. Turney, T. D. Crawford, and C. D. Sherrill,
    J. Chem. Theory Comput. 13(7) pp 3185--3197 (2017).
    (doi: 10.1021/acs.jctc.7b00174)

    -----------------------------------------------------------------------


    Psi4 started on: Thursday, 20 August 2020 08:11PM

    Process ID: 424192
    PSIDATADIR: /home/irmler/Programs/psi4/beforeGrueneis3/stage/usr/local/psi4/share/psi4
    Memory:     500.0 MiB
    Threads:    4
    
  ==> Input File <==

--------------------------------------------------------------------------
# Any line starting with the # character is a comment line
memory 250000 mb
molecule molecule{
-1 2
O          0.0000000000        0.0000000000        0.0000000000
}

set {
  reference uhf
  basis aug-cc-pv(t+d)z
  scf_type OUT_OF_CORE
  freeze_core true
}

energy('ccsd')
--------------------------------------------------------------------------

  Memory set to 232.831 GiB by Python driver.

*** tstart() called on cqc05
*** at Thu Aug 20 20:11:17 2020

   => Loading Basis Set <=

    Name: AUG-CC-PV(T+D)Z
    Role: ORBITAL
    Keyword: BASIS
    atoms 1 entry O          line   347 file /home/irmler/Programs/psi4/beforeGrueneis3/stage/usr/local/psi4/share/psi4/basis/aug-cc-pv_tpd_z.gbs 


         ---------------------------------------------------------
                                   SCF
            by Justin Turney, Rob Parrish, Andy Simmonett
                             and Daniel Smith
                              UHF Reference
                        4 Threads, 238418 MiB Core
         ---------------------------------------------------------

  ==> Geometry <==

    Molecular point group: d2h
    Geometry (in Angstrom), charge = -1, multiplicity = 2:

       Center              X                  Y                   Z               Mass       
    ------------   -----------------  -----------------  -----------------  -----------------
           O          0.000000000000     0.000000000000     0.000000000000    15.994914619560

  Running in d2h symmetry.

  Rotational constants: A = ************  B = ************  C = ************ [cm^-1]
  Rotational constants: A = ************  B = ************  C = ************ [MHz]
  Nuclear repulsion =    0.000000000000000

  Charge       = -1
  Multiplicity = 2
  Electrons    = 9
  Nalpha       = 5
  Nbeta        = 4

  ==> Algorithm <==

  SCF Algorithm Type is OUT_OF_CORE.
  DIIS enabled.
  MOM disabled.
  Fractional occupation disabled.
  Guess Type is GWH.
  Energy threshold   = 1.00e-08
  Density threshold  = 1.00e-08
  Integral threshold = 0.00e+00

  ==> Primary Basis <==

  Basis Set: AUG-CC-PV(T+D)Z
    Blend: AUG-CC-PV(T+D)Z
    Number of shells: 14
    Number of basis function: 46
    Number of Cartesian functions: 55
    Spherical Harmonics?: true
    Max angular momentum: 3

  ==> Pre-Iterations <==

   -------------------------------------------------------
    Irrep   Nso     Nmo     Nalpha   Nbeta   Ndocc  Nsocc
   -------------------------------------------------------
     Ag        11      11       0       0       0       0
     B1g        3       3       0       0       0       0
     B2g        3       3       0       0       0       0
     B3g        3       3       0       0       0       0
     Au         2       2       0       0       0       0
     B1u        8       8       0       0       0       0
     B2u        8       8       0       0       0       0
     B3u        8       8       0       0       0       0
   -------------------------------------------------------
    Total      46      46       5       4       4       1
   -------------------------------------------------------

  ==> Integral Setup <==

  ==> DiskJK: Disk-Based J/K Matrices <==

    J tasked:                  Yes
    K tasked:                  Yes
    wK tasked:                  No
    Memory (MB):            178813
    Schwarz Cutoff:          1E-12

  Minimum eigenvalue in the overlap matrix is 2.7888226115E-02.
  Using Symmetric Orthogonalization.

  SCF Guess: Generalized Wolfsberg-Helmholtz.

  ==> Iterations <==

                        Total Energy        Delta E     RMS |[F,P]|

    Occupation by irrep:
             Ag   B1g   B2g   B3g    Au   B1u   B2u   B3u 
    DOCC [     2,    0,    0,    0,    0,    1,    1,    0 ]
    SOCC [     0,    0,    0,    0,    0,    0,    0,    1 ]

   @UHF iter   1:   -69.63248940261080   -6.96325e+01   3.58337e-01 
    Occupation by irrep:
             Ag   B1g   B2g   B3g    Au   B1u   B2u   B3u 
    DOCC [     2,    0,    0,    0,    0,    1,    0,    1 ]
    SOCC [     0,    0,    0,    0,    0,    0,    1,    0 ]

   @UHF iter   2:   -68.05544003131357    1.57705e+00   1.62068e-01 DIIS
   @UHF iter   3:   -73.03896538292386   -4.98353e+00   1.74496e-01 DIIS
   @UHF iter   4:   -74.21719227703369   -1.17823e+00   9.06950e-02 DIIS
   @UHF iter   5:   -74.77022543047531   -5.53033e-01   1.27734e-02 DIIS
   @UHF iter   6:   -74.79119420343594   -2.09688e-02   2.84751e-03 DIIS
   @UHF iter   7:   -74.79189409761317   -6.99894e-04   1.15163e-03 DIIS
   @UHF iter   8:   -74.79210181191100   -2.07714e-04   3.85329e-04 DIIS
   @UHF iter   9:   -74.79220050195211   -9.86900e-05   1.83104e-04 DIIS
   @UHF iter  10:   -74.79221706293983   -1.65610e-05   5.14660e-05 DIIS
   @UHF iter  11:   -74.79221776914322   -7.06203e-07   1.74349e-05 DIIS
   @UHF iter  12:   -74.79221786224655   -9.31033e-08   6.89414e-06 DIIS
   @UHF iter  13:   -74.79221787411855   -1.18720e-08   2.26370e-06 DIIS
   @UHF iter  14:   -74.79221787767057   -3.55202e-09   4.64311e-07 DIIS
   @UHF iter  15:   -74.79221787771085   -4.02878e-11   3.49508e-08 DIIS
   @UHF iter  16:   -74.79221787771142   -5.68434e-13   1.01111e-08 DIIS
   @UHF iter  17:   -74.79221787771151   -8.52651e-14   2.90402e-09 DIIS

  ==> Post-Iterations <==

   @Spin Contamination Metric:   1.994282268E-02
   @S^2 Expected:                7.500000000E-01
   @S^2 Observed:                7.699428227E-01
   @S   Expected:                5.000000000E-01
   @S   Observed:                5.000000000E-01

    Orbital Energies (a.u.)
    -----------------------

    Alpha Occupied:                                                       

       1Ag   -20.225665     2Ag    -0.909144     1B2u   -0.237066  
       1B3u   -0.144097     1B1u   -0.144097  

    Alpha Virtual:                                                        

       2B2u    0.368657     2B3u    0.382800     2B1u    0.382800  
       3Ag     0.413189     4Ag     0.937977     1B3g    0.943921  
       1B1g    0.943921     5Ag     0.962617     1B2g    0.962617  
       3B2u    1.224897     3B3u    1.273580     3B1u    1.273580  
       6Ag     1.654746     4B2u    2.382465     4B3u    2.387082  
       4B1u    2.387082     5B2u    2.401069     1Au     2.401069  
       5B3u    2.424953     5B1u    2.424953     7Ag     2.473334  
       2B1g    2.487851     2B3g    2.487851     2B2g    2.534414  
       8Ag     2.534414     6B2u    4.511765     6B3u    4.578737  
       6B1u    4.578737     7B2u    6.811490     7B3u    6.819585  
       7B1u    6.819585     8B2u    6.844046     2Au     6.844046  
       8B1u    6.885483     8B3u    6.885483     9Ag     7.326167  
       3B1g    7.345072     3B3g    7.345072     3B2g    7.402847  
      10Ag     7.402847    11Ag     8.721216  

    Beta Occupied:                                                        

       1Ag   -20.184961     2Ag    -0.730009     1B1u   -0.079949  
       1B3u   -0.079949  

    Beta Virtual:                                                         

       1B2u    0.330192     2B1u    0.389788     2B3u    0.389788  
       3Ag     0.417961     2B2u    0.554847     1B2g    0.956060  
       4Ag     0.956060     1B1g    0.960937     1B3g    0.960937  
       5Ag     0.963031     3B1u    1.298609     3B3u    1.298609  
       3B2u    1.376920     6Ag     1.699208     4B2u    2.407027  
       4B1u    2.408785     4B3u    2.408785     1Au     2.414044  
       5B2u    2.414044     5B3u    2.422693     5B1u    2.422693  
       2B2g    2.549135     7Ag     2.549135     2B3g    2.566983  
       2B1g    2.566983     8Ag     2.573727     6B1u    4.611380  
       6B3u    4.611380     6B2u    4.651954     7B2u    6.874614  
       7B1u    6.877145     7B3u    6.877145     2Au     6.884713  
       8B2u    6.884713     8B1u    6.897241     8B3u    6.897241  
       3B2g    7.431989     9Ag     7.431989     3B3g    7.439079  
       3B1g    7.439079    10Ag     7.441630    11Ag     8.766337  

    Final Occupation by Irrep:
             Ag   B1g   B2g   B3g    Au   B1u   B2u   B3u 
    DOCC [     2,    0,    0,    0,    0,    1,    0,    1 ]
    SOCC [     0,    0,    0,    0,    0,    0,    1,    0 ]

  Energy converged.

  @UHF Final Energy:   -74.79221787771151

   => Energetics <=

    Nuclear Repulsion Energy =              0.0000000000000000
    One-Electron Energy =                -106.8494986743448294
    Two-Electron Energy =                  32.0572807966333357
    PCM Polarization Energy =               0.0000000000000000
    Total Energy =                        -74.7922178777114937

    Alert: EFP and PCM quantities not currently incorporated into SCF psivars.
  UHF NO Occupations:
  HONO-2 :    1B1u 1.9960366
  HONO-1 :    1B3u 1.9960366
  HONO-0 :    1B2u 1.0000000
  LUNO+0 :    2B3u 0.0039634
  LUNO+1 :    2B1u 0.0039634
  LUNO+2 :    3 Ag 0.0020613
  LUNO+3 :    4 Ag 0.0000010



Properties will be evaluated at   0.000000,   0.000000,   0.000000 Bohr

Properties computed using the SCF density matrix

  Nuclear Dipole Moment: (a.u.)
     X:     0.0000      Y:     0.0000      Z:     0.0000

  Electronic Dipole Moment: (a.u.)
     X:     0.0000      Y:     0.0000      Z:     0.0000

  Dipole Moment: (a.u.)
     X:     0.0000      Y:     0.0000      Z:     0.0000     Total:     0.0000

  Dipole Moment: (Debye)
     X:     0.0000      Y:     0.0000      Z:     0.0000     Total:     0.0000


*** tstop() called on cqc05 at Thu Aug 20 20:11:17 2020
Module time:
	user time   =       0.50 seconds =       0.01 minutes
	system time =       0.02 seconds =       0.00 minutes
	total time  =          0 seconds =       0.00 minutes
Total time:
	user time   =       0.50 seconds =       0.01 minutes
	system time =       0.02 seconds =       0.00 minutes
	total time  =          0 seconds =       0.00 minutes

*** tstart() called on cqc05
*** at Thu Aug 20 20:11:17 2020


	Wfn Parameters:
	--------------------
	Wavefunction         = CCSD
	Number of irreps     = 8
	Number of MOs        = 46
	Number of active MOs = 45
	AO-Basis             = NONE
	Semicanonical        = false
	Reference            = UHF
	Print Level          = 1

	IRREP	# MOs	# FZDC	# DOCC	# SOCC	# VIRT	# FZVR
	-----	-----	------	------	------	------	------
	 Ag	   11	    1	    1	    0	    9	    0
	 B1g	   3	    0	    0	    0	    3	    0
	 B2g	   3	    0	    0	    0	    3	    0
	 B3g	   3	    0	    0	    0	    3	    0
	 Au	   2	    0	    0	    0	    2	    0
	 B1u	   8	    0	    1	    0	    7	    0
	 B2u	   8	    0	    0	    1	    7	    0
	 B3u	   8	    0	    1	    0	    7	    0
	Transforming integrals...
	IWL integrals will be deleted.
	(OO|OO)...
	Presorting SO-basis two-electron integrals.
	Sorting File: SO Ints (nn|nn) nbuckets = 1
	Transforming the one-electron integrals and constructing Fock matrices
	Starting AA/AB first half-transformation.
	Sorting AA/AB half-transformed integrals.
	Starting BB first half-transformation.
	Sorting BB half-transformed integrals.
	First half integral transformation complete.
	Starting AA second half-transformation.
	Starting AB second half-transformation.
	Starting BB second half-transformation.
	Two-electron integral transformation complete.
	(OO|OV)...
	Starting AA second half-transformation.
	Starting AB second half-transformation.
	Starting BB second half-transformation.
	Two-electron integral transformation complete.
	(OO|VV)...
	Starting AA second half-transformation.
	Starting AB second half-transformation.
	Starting BB second half-transformation.
	Two-electron integral transformation complete.
	(OV|OO)...
	Starting AA/AB first half-transformation.
	Sorting AA/AB half-transformed integrals.
	Starting BB first half-transformation.
	Sorting BB half-transformed integrals.
	First half integral transformation complete.
	Starting AA second half-transformation.
	Starting AB second half-transformation.
	Starting BB second half-transformation.
	Two-electron integral transformation complete.
	(OV|OV)...
	Starting AA second half-transformation.
	Starting AB second half-transformation.
	Starting BB second half-transformation.
	Two-electron integral transformation complete.
	(OV|VV)...
	Starting AA second half-transformation.
	Starting AB second half-transformation.
	Starting BB second half-transformation.
	Two-electron integral transformation complete.
	(VV|OO)...
	Starting AA/AB first half-transformation.
	Sorting AA/AB half-transformed integrals.
	Starting BB first half-transformation.
	Sorting BB half-transformed integrals.
	First half integral transformation complete.
	Starting AA second half-transformation.
	Starting AB second half-transformation.
	Starting BB second half-transformation.
	Two-electron integral transformation complete.
	(VV|OV)...
	Starting AA second half-transformation.
	Starting AB second half-transformation.
	Starting BB second half-transformation.
	Two-electron integral transformation complete.
	(VV|VV)...
	Starting AA second half-transformation.
	Starting AB second half-transformation.
	Starting BB second half-transformation.
	Two-electron integral transformation complete.
	Frozen core energy     =    -59.10559734297067

	Size of irrep 0 of <AB|CD> integrals:      0.012 (MW) /      0.095 (MB)
	Size of irrep 1 of <AB|CD> integrals:      0.010 (MW) /      0.078 (MB)
	Size of irrep 2 of <AB|CD> integrals:      0.010 (MW) /      0.078 (MB)
	Size of irrep 3 of <AB|CD> integrals:      0.010 (MW) /      0.078 (MB)
	Size of irrep 4 of <AB|CD> integrals:      0.007 (MW) /      0.052 (MB)
	Size of irrep 5 of <AB|CD> integrals:      0.012 (MW) /      0.099 (MB)
	Size of irrep 6 of <AB|CD> integrals:      0.012 (MW) /      0.099 (MB)
	Size of irrep 7 of <AB|CD> integrals:      0.012 (MW) /      0.099 (MB)
	Total:                                     0.085 (MW) /      0.678 (MB)

	Size of irrep 0 of <ab|cd> integrals:      0.013 (MW) /      0.108 (MB)
	Size of irrep 1 of <ab|cd> integrals:      0.011 (MW) /      0.090 (MB)
	Size of irrep 2 of <ab|cd> integrals:      0.010 (MW) /      0.082 (MB)
	Size of irrep 3 of <ab|cd> integrals:      0.011 (MW) /      0.090 (MB)
	Size of irrep 4 of <ab|cd> integrals:      0.007 (MW) /      0.056 (MB)
	Size of irrep 5 of <ab|cd> integrals:      0.013 (MW) /      0.104 (MB)
	Size of irrep 6 of <ab|cd> integrals:      0.014 (MW) /      0.115 (MB)
	Size of irrep 7 of <ab|cd> integrals:      0.013 (MW) /      0.104 (MB)
	Total:                                     0.094 (MW) /      0.749 (MB)

	Size of irrep 0 of <Ab|Cd> integrals:      0.071 (MW) /      0.566 (MB)
	Size of irrep 1 of <Ab|Cd> integrals:      0.042 (MW) /      0.336 (MB)
	Size of irrep 2 of <Ab|Cd> integrals:      0.040 (MW) /      0.320 (MB)
	Size of irrep 3 of <Ab|Cd> integrals:      0.042 (MW) /      0.336 (MB)
	Size of irrep 4 of <Ab|Cd> integrals:      0.027 (MW) /      0.218 (MB)
	Size of irrep 5 of <Ab|Cd> integrals:      0.051 (MW) /      0.405 (MB)
	Size of irrep 6 of <Ab|Cd> integrals:      0.053 (MW) /      0.427 (MB)
	Size of irrep 7 of <Ab|Cd> integrals:      0.051 (MW) /      0.405 (MB)
	Total:                                     0.377 (MW) /      3.013 (MB)

	Size of irrep 0 of <IA|BC> integrals:      0.008 (MW) /      0.062 (MB)
	Size of irrep 1 of <IA|BC> integrals:      0.004 (MW) /      0.030 (MB)
	Size of irrep 2 of <IA|BC> integrals:      0.004 (MW) /      0.030 (MB)
	Size of irrep 3 of <IA|BC> integrals:      0.004 (MW) /      0.030 (MB)
	Size of irrep 4 of <IA|BC> integrals:      0.002 (MW) /      0.014 (MB)
	Size of irrep 5 of <IA|BC> integrals:      0.005 (MW) /      0.039 (MB)
	Size of irrep 6 of <IA|BC> integrals:      0.005 (MW) /      0.039 (MB)
	Size of irrep 7 of <IA|BC> integrals:      0.005 (MW) /      0.039 (MB)
	Total:                                     0.035 (MW) /      0.284 (MB)

	Size of irrep 0 of <ia|bc> integrals:      0.006 (MW) /      0.050 (MB)
	Size of irrep 1 of <ia|bc> integrals:      0.003 (MW) /      0.022 (MB)
	Size of irrep 2 of <ia|bc> integrals:      0.003 (MW) /      0.027 (MB)
	Size of irrep 3 of <ia|bc> integrals:      0.003 (MW) /      0.022 (MB)
	Size of irrep 4 of <ia|bc> integrals:      0.001 (MW) /      0.011 (MB)
	Size of irrep 5 of <ia|bc> integrals:      0.004 (MW) /      0.035 (MB)
	Size of irrep 6 of <ia|bc> integrals:      0.003 (MW) /      0.027 (MB)
	Size of irrep 7 of <ia|bc> integrals:      0.004 (MW) /      0.035 (MB)
	Total:                                     0.029 (MW) /      0.229 (MB)

	Size of irrep 0 of <Ia|Bc> integrals:      0.008 (MW) /      0.066 (MB)
	Size of irrep 1 of <Ia|Bc> integrals:      0.004 (MW) /      0.033 (MB)
	Size of irrep 2 of <Ia|Bc> integrals:      0.004 (MW) /      0.030 (MB)
	Size of irrep 3 of <Ia|Bc> integrals:      0.004 (MW) /      0.033 (MB)
	Size of irrep 4 of <Ia|Bc> integrals:      0.002 (MW) /      0.015 (MB)
	Size of irrep 5 of <Ia|Bc> integrals:      0.005 (MW) /      0.040 (MB)
	Size of irrep 6 of <Ia|Bc> integrals:      0.005 (MW) /      0.043 (MB)
	Size of irrep 7 of <Ia|Bc> integrals:      0.005 (MW) /      0.040 (MB)
	Total:                                     0.037 (MW) /      0.298 (MB)

	Size of irrep 0 of <iA|bC> integrals:      0.006 (MW) /      0.049 (MB)
	Size of irrep 1 of <iA|bC> integrals:      0.002 (MW) /      0.020 (MB)
	Size of irrep 2 of <iA|bC> integrals:      0.003 (MW) /      0.027 (MB)
	Size of irrep 3 of <iA|bC> integrals:      0.002 (MW) /      0.020 (MB)
	Size of irrep 4 of <iA|bC> integrals:      0.001 (MW) /      0.011 (MB)
	Size of irrep 5 of <iA|bC> integrals:      0.004 (MW) /      0.034 (MB)
	Size of irrep 6 of <iA|bC> integrals:      0.003 (MW) /      0.024 (MB)
	Size of irrep 7 of <iA|bC> integrals:      0.004 (MW) /      0.034 (MB)
	Total:                                     0.027 (MW) /      0.218 (MB)

	Size of irrep 0 of tIjAb amplitudes:       0.001 (MW) /      0.006 (MB)
	Size of irrep 1 of tIjAb amplitudes:       0.000 (MW) /      0.002 (MB)
	Size of irrep 2 of tIjAb amplitudes:       0.000 (MW) /      0.003 (MB)
	Size of irrep 3 of tIjAb amplitudes:       0.000 (MW) /      0.002 (MB)
	Size of irrep 4 of tIjAb amplitudes:       0.000 (MW) /      0.000 (MB)
	Size of irrep 5 of tIjAb amplitudes:       0.000 (MW) /      0.004 (MB)
	Size of irrep 6 of tIjAb amplitudes:       0.000 (MW) /      0.002 (MB)
	Size of irrep 7 of tIjAb amplitudes:       0.000 (MW) /      0.004 (MB)
	Total:                                     0.003 (MW) /      0.022 (MB)

	Nuclear Rep. energy          =      0.00000000000000
	SCF energy                   =    -74.79221787771151
	One-electron energy          =    -29.04892929075519
	Two-electron (AA) energy     =      3.60492815484829
	Two-electron (BB) energy     =      1.63436720433817
	Two-electron (AB) energy     =      8.12301339682788
	Two-electron energy          =     13.36230875601434
	Reference energy             =    -74.79221787771152

*** tstop() called on cqc05 at Thu Aug 20 20:11:18 2020
Module time:
	user time   =       0.13 seconds =       0.00 minutes
	system time =       0.07 seconds =       0.00 minutes
	total time  =          1 seconds =       0.02 minutes
Total time:
	user time   =       0.63 seconds =       0.01 minutes
	system time =       0.09 seconds =       0.00 minutes
	total time  =          1 seconds =       0.02 minutes

*** tstart() called on cqc05
*** at Thu Aug 20 20:11:18 2020

            **************************
            *                        *
            *        CCENERGY        *
            *                        *
            **************************

    Nuclear Rep. energy (wfn)     =    0.000000000000000
    SCF energy          (wfn)     =  -74.792217877711508
    Reference energy    (file100) =  -74.792217877711522

    Input parameters:
    -----------------
    Wave function   =     CCSD
    Reference wfn   =     UHF
    Brueckner       =     No
    Memory (Mbytes) =     250000.0
    Maxiter         =     50
    R_Convergence   =     1.0e-07
    E_Convergence   =     1.0e-06
    Restart         =     Yes
    DIIS            =     Yes
    AO Basis        =     NONE
    ABCD            =     NEW
    Cache Level     =     2
    Cache Type      =     LRU
    Print Level     =     1
    Num. of threads =     4
    # Amps to Print =     10
    Print MP2 Amps? =     No
    Analyze T2 Amps =     No
    Print Pair Ener =     No
    Local CC        =     No
    SCS-MP2         =     False
    SCSN-MP2        =     False
    SCS-CCSD        =     False

MP2 correlation energy -0.2191116043254966
                Solving CC Amplitude Equations
                ------------------------------
  Iter             Energy              RMS        T1Diag      D1Diag    New D1Diag    D2Diag
  ----     ---------------------    ---------   ----------  ----------  ----------   --------
     0        -0.219111604325497    0.000e+00    0.000000    0.000000    0.000000    0.000000
     1        -0.219530105712070    7.825e-02    0.025611    0.000000    0.000000    0.000000
     2        -0.224514225245549    2.913e-02    0.023042    0.000000    0.000000    0.000000
     3        -0.226908613313971    1.603e-02    0.029652    0.000000    0.000000    0.000000
     4        -0.226703920073209    5.428e-03    0.031625    0.000000    0.000000    0.000000
     5        -0.226744818657738    2.905e-03    0.032456    0.000000    0.000000    0.000000
     6        -0.226821800467677    1.177e-03    0.032481    0.000000    0.000000    0.000000
     7        -0.226835649857854    4.230e-04    0.032414    0.000000    0.000000    0.000000
     8        -0.226843665426626    1.377e-04    0.032408    0.000000    0.000000    0.000000
     9        -0.226841936665373    6.541e-05    0.032402    0.000000    0.000000    0.000000
    10        -0.226841967313984    2.541e-05    0.032405    0.000000    0.000000    0.000000
    11        -0.226842349951210    8.727e-06    0.032406    0.000000    0.000000    0.000000
    12        -0.226842255175675    1.904e-06    0.032406    0.000000    0.000000    0.000000
    13        -0.226842306661442    4.847e-07    0.032406    0.000000    0.000000    0.000000
    14        -0.226842294315492    2.027e-07    0.032406    0.000000    0.000000    0.000000
    15        -0.226842294206062    9.671e-08    0.032406    0.000000    0.000000    0.000000
    15        -0.226842294206062    9.671e-08    0.032406    0.000000    0.000000    0.000000

    Iterations converged.


    CCSD corr. energy   =   -0.226842294206062
    PPL corr. energy    =    0.046666511868813
    OS PPL corr. energy =    0.038520191851342
    SS PPL corr. energy =    0.008146320017471
    Largest TIA Amplitudes:
              1  20        -0.0450556145
              3  34        -0.0450554669
              2  27        -0.0373365165
              0   0        -0.0113417003
              2  28        -0.0057923405
              3  38         0.0056465365
              1  24         0.0056465302
              2  31         0.0050093015
              1  21        -0.0037541295
              3  35        -0.0037540810

    Largest Tia Amplitudes:
              1  20        -0.0244800650
              2  35        -0.0244799345
              2  36         0.0088515117
              1  21         0.0088514852
              2  39         0.0075446877
              1  24         0.0075446851
              0   5        -0.0064356547
              0   2         0.0063117486
              0   3        -0.0048190058
              0   0        -0.0035147486

    Largest TIJAB Amplitudes:
      3   2  35  28        -0.0246433496
      2   1  28  21        -0.0246433495
      3   1  35  21        -0.0239495730
      3   1  34  20        -0.0224494892
      2   1  28  20        -0.0194525099
      3   2  34  28        -0.0194525019
      3   1  35  20        -0.0188300243
      3   1  34  21        -0.0188300164
      2   1  27  20        -0.0188103220
      3   2  34  27        -0.0188103136

    Largest Tijab Amplitudes:
      2   1  35  20        -0.0360663920
      2   1  36  21        -0.0242058926
      2   1  36  20        -0.0231241611
      2   1  35  21        -0.0231241545
      2   1  12   1        -0.0185449216
      2   1  13   4        -0.0150291985
      1   0  28  15        -0.0139696462
      2   0  28   9        -0.0139696451
      2   0  28  10         0.0119804761
      1   0  28  16         0.0119804754

    Largest TIjAb Amplitudes:
      1   1  21  21        -0.0537021830
      3   2  35  36        -0.0537021825
      1   1  20  20        -0.0533124264
      3   2  34  35        -0.0533123862
      1   1  21  20        -0.0430369966
      3   2  35  35        -0.0430369843
      1   1  20  21        -0.0404116008
      3   2  34  36        -0.0404115848
      1   2  20  35        -0.0371344201
      3   1  34  20        -0.0371344125

    SCF energy       (wfn)                    =  -74.792217877711508
    Reference energy (file100)                =  -74.792217877711522

    Opposite-spin MP2 correlation energy      =   -0.164750144690770
    Same-spin MP2 correlation energy          =   -0.054361459634723
    MP2 correlation energy                    =   -0.219111604325497
      * MP2 total energy                      =  -75.011329482037013

    Opposite-spin CCSD correlation energy     =   -0.177872329810093
    Same-spin CCSD correlation energy         =   -0.048969964154942
    CCSD correlation energy                   =   -0.226842294206062
      * CCSD total energy                     =  -75.019060171917587


*** tstop() called on cqc05 at Thu Aug 20 20:11:19 2020
Module time:
	user time   =       0.29 seconds =       0.00 minutes
	system time =       0.21 seconds =       0.00 minutes
	total time  =          1 seconds =       0.02 minutes
Total time:
	user time   =       0.92 seconds =       0.02 minutes
	system time =       0.30 seconds =       0.01 minutes
	total time  =          2 seconds =       0.03 minutes

*** Psi4 exiting successfully. Buy a developer a beer!
