
    -----------------------------------------------------------------------
          Psi4: An Open-Source Ab Initio Electronic Structure Package
                               Psi4 1.2a1.dev939 

                         Git: Rev {HEAD} fa1ec19 dirty


    R. M. Parrish, L. A. Burns, D. G. A. Smith, A. C. Simmonett,
    A. E. DePrince III, E. G. Hohenstein, U. Bozkaya, A. Yu. Sokolov,
    R. Di Remigio, R. M. Richard, J. F. Gonthier, A. M. James,
    H. R. McAlexander, A. Kumar, M. Saitow, X. Wang, B. P. Pritchard,
    P. Verma, H. F. Schaefer III, K. Patkowski, R. A. King, E. F. Valeev,
    F. A. Evangelista, J. M. Turney, T. D. Crawford, and C. D. Sherrill,
    J. Chem. Theory Comput. 13(7) pp 3185--3197 (2017).
    (doi: 10.1021/acs.jctc.7b00174)

    -----------------------------------------------------------------------


    Psi4 started on: Monday, 02 November 2020 10:54AM

    Process ID: 350008
    PSIDATADIR: /home/fs71337/airmler/src/psi4_uhf/build/stage/usr/local/psi4/share/psi4
    Memory:     500.0 MiB
    Threads:    48
    
  ==> Input File <==

--------------------------------------------------------------------------
# Any line starting with the # character is a comment line
memory 250000 mb
molecule molecule{
-1 2
O          0.0000000000        0.0000000000        0.0000000000
}

set {
  reference uhf
  basis aug-cc-pv(6+d)z
  scf_type OUT_OF_CORE
  freeze_core true
}

energy('ccsd')
--------------------------------------------------------------------------

  Memory set to 232.831 GiB by Python driver.

*** tstart() called on n412-071.vsc4.prov
*** at Mon Nov  2 10:54:08 2020

   => Loading Basis Set <=

    Name: AUG-CC-PV(6+D)Z
    Role: ORBITAL
    Keyword: BASIS
    atoms 1 entry O          line   459 file /home/fs71337/airmler/src/psi4_uhf/build/stage/usr/local/psi4/share/psi4/basis/aug-cc-pv_6pd_z.gbs 


         ---------------------------------------------------------
                                   SCF
            by Justin Turney, Rob Parrish, Andy Simmonett
                             and Daniel Smith
                              UHF Reference
                       48 Threads, 238418 MiB Core
         ---------------------------------------------------------

  ==> Geometry <==

    Molecular point group: d2h
    Geometry (in Angstrom), charge = -1, multiplicity = 2:

       Center              X                  Y                   Z               Mass       
    ------------   -----------------  -----------------  -----------------  -----------------
           O          0.000000000000     0.000000000000     0.000000000000    15.994914619560

  Running in d2h symmetry.

  Rotational constants: A = ************  B = ************  C = ************ [cm^-1]
  Rotational constants: A = ************  B = ************  C = ************ [MHz]
  Nuclear repulsion =    0.000000000000000

  Charge       = -1
  Multiplicity = 2
  Electrons    = 9
  Nalpha       = 5
  Nbeta        = 4

  ==> Algorithm <==

  SCF Algorithm Type is OUT_OF_CORE.
  DIIS enabled.
  MOM disabled.
  Fractional occupation disabled.
  Guess Type is GWH.
  Energy threshold   = 1.00e-08
  Density threshold  = 1.00e-08
  Integral threshold = 0.00e+00

  ==> Primary Basis <==

  Basis Set: AUG-CC-PV(6+D)Z
    Blend: AUG-CC-PV(6+D)Z
    Number of shells: 35
    Number of basis function: 189
    Number of Cartesian functions: 294
    Spherical Harmonics?: true
    Max angular momentum: 6

  ==> Pre-Iterations <==

   -------------------------------------------------------
    Irrep   Nso     Nmo     Nalpha   Nbeta   Ndocc  Nsocc
   -------------------------------------------------------
     Ag        40      40       0       0       0       0
     B1g       20      20       0       0       0       0
     B2g       20      20       0       0       0       0
     B3g       20      20       0       0       0       0
     Au        11      11       0       0       0       0
     B1u       26      26       0       0       0       0
     B2u       26      26       0       0       0       0
     B3u       26      26       0       0       0       0
   -------------------------------------------------------
    Total     189     189       5       4       4       1
   -------------------------------------------------------

  ==> Integral Setup <==

  ==> DiskJK: Disk-Based J/K Matrices <==

    J tasked:                  Yes
    K tasked:                  Yes
    wK tasked:                  No
    Memory (MB):            178813
    Schwarz Cutoff:          1E-12

  Minimum eigenvalue in the overlap matrix is 6.3360062388E-04.
  Using Symmetric Orthogonalization.

  SCF Guess: Generalized Wolfsberg-Helmholtz.

  ==> Iterations <==

                        Total Energy        Delta E     RMS |[F,P]|

    Occupation by irrep:
             Ag   B1g   B2g   B3g    Au   B1u   B2u   B3u 
    DOCC [     1,    0,    0,    0,    0,    1,    1,    1 ]
    SOCC [     1,    0,    0,    0,    0,    0,    0,    0 ]

   @UHF iter   1:    29.64853930089225    2.96485e+01   7.83383e-01 
    Occupation by irrep:
             Ag   B1g   B2g   B3g    Au   B1u   B2u   B3u 
    DOCC [     2,    0,    0,    0,    0,    1,    1,    0 ]
    SOCC [     0,    0,    0,    0,    0,    0,    0,    1 ]

   @UHF iter   2:   -64.89493963581455   -9.45435e+01   5.72179e-02 DIIS
   @UHF iter   3:   -71.49462833342315   -6.59969e+00   1.37443e-01 DIIS
   @UHF iter   4:   -72.91509811947499   -1.42047e+00   9.31997e-02 DIIS
   @UHF iter   5:   -74.30747879132170   -1.39238e+00   3.87189e-02 DIIS
   @UHF iter   6:   -74.77453093228431   -4.67052e-01   6.10759e-03 DIIS
   @UHF iter   7:   -74.79666205282277   -2.21311e-02   1.67586e-03 DIIS
   @UHF iter   8:   -74.79751466548407   -8.52613e-04   4.53026e-04 DIIS
   @UHF iter   9:   -74.79770632889569   -1.91663e-04   2.03739e-04 DIIS
   @UHF iter  10:   -74.79781552125230   -1.09192e-04   7.85908e-05 DIIS
   @UHF iter  11:   -74.79783626196520   -2.07407e-05   2.18371e-05 DIIS
   @UHF iter  12:   -74.79783728579542   -1.02383e-06   4.68145e-06 DIIS
   @UHF iter  13:   -74.79783731817979   -3.23844e-08   7.08631e-07 DIIS
   @UHF iter  14:   -74.79783732030842   -2.12863e-09   3.57945e-07 DIIS
   @UHF iter  15:   -74.79783732043539   -1.26974e-10   3.74163e-08 DIIS
   @UHF iter  16:   -74.79783732043987   -4.47642e-12   6.90773e-09 DIIS

  ==> Post-Iterations <==

   @Spin Contamination Metric:   2.301649775E-02
   @S^2 Expected:                7.500000000E-01
   @S^2 Observed:                7.730164978E-01
   @S   Expected:                5.000000000E-01
   @S   Observed:                5.000000000E-01

    Orbital Energies (a.u.)
    -----------------------

    Alpha Occupied:                                                       

       1Ag   -20.224510     2Ag    -0.910319     1B3u   -0.239135  
       1B2u   -0.146350     1B1u   -0.146350  

    Alpha Virtual:                                                        

       2B3u    0.233180     2B1u    0.238173     2B2u    0.238173  
       3Ag     0.322268     4Ag     0.580792     1B2g    0.583405  
       1B1g    0.583405     3B3u    0.590651     1B3g    0.591867  
       5Ag     0.591867     3B2u    0.611762     3B1u    0.611762  
       6Ag     0.880735     4B3u    1.052868     4B1u    1.054671  
       4B2u    1.054671     5B3u    1.060118     1Au     1.060118  
       5B2u    1.069407     5B1u    1.069407     7Ag     1.371949  
       2B2g    1.379829     2B1g    1.379829     2B3g    1.405473  
       8Ag     1.405473     6B3u    1.425609     6B2u    1.466745  
       6B1u    1.466745     9Ag     2.350697     3B2g    2.352475  
       3B1g    2.352475    10Ag     2.357840     3B3g    2.357840  
       4B1g    2.366891     4B2g    2.366891    11Ag     2.379826  
       4B3g    2.379826    12Ag     2.443609     7B3u    2.608448  
       7B2u    2.612804     7B1u    2.612804     8B3u    2.625909  
       2Au     2.625909     8B2u    2.648042     8B1u    2.648042  
      13Ag     2.943078     5B1g    2.956669     5B2g    2.956669  
       5B3g    2.999970    14Ag     2.999970     9B3u    3.374830  
       9B2u    3.432291     9B1u    3.432291    10B3u    4.768750  
      10B1u    4.770427    10B2u    4.770427    11B3u    4.775470  
       3Au     4.775470    11B1u    4.783919    11B2u    4.783919  
       4Au     4.795836    12B3u    4.795836    12B2u    4.811317  
      12B1u    4.811317    13B3u    5.757598    13B2u    5.764538  
      13B1u    5.764538    15Ag     5.784803     5Au     5.785445  
      14B3u    5.785445     6B1g    5.788234     6B2g    5.788235  
      16Ag     5.798560     6B3g    5.798560     7B1g    5.815886  
       7B2g    5.815886    14B2u    5.820669    14B1u    5.820669  
       7B3g    5.840424    17Ag     5.840424    18Ag     6.407375  
       8B1g    6.423983     8B2g    6.423983     8B3g    6.475769  
      19Ag     6.475769    20Ag     6.729091    15B3u    8.056483  
      15B2u    8.122523    15B1u    8.122523    21Ag     9.736096  
       9B1g    9.737709     9B2g    9.737709    22Ag     9.742556  
       9B3g    9.742556    10B1g    9.750657    10B2g    9.750657  
      23Ag     9.762047    10B3g    9.762047    11B1g    9.776775  
      11B2g    9.776775    24Ag     9.794907    11B3g    9.794907  
      16B3u   11.168038    16B2u   11.170712    16B1u   11.170712  
      17B3u   11.178750     6Au    11.178750    17B1u   11.192199  
      17B2u   11.192199     7Au    11.211140    18B3u   11.211140  
      18B2u   11.235691    18B1u   11.235691    19B3u   12.615776  
      19B2u   12.624160    19B1u   12.624160    20B3u   12.649418  
       8Au    12.649418    20B2u   12.691885    20B1u   12.691885  
      25Ag    13.346865    12B1g   13.351645    12B2g   13.351646  
      26Ag    13.366011    12B3g   13.366011    13B1g   13.390041  
      13B2g   13.390041    13B3g   13.423882    27Ag    13.423882  
      28Ag    14.612484    14B1g   14.629588    14B2g   14.629588  
      29Ag    14.682085    14B3g   14.682085    30Ag    20.142513  
      21B3u   22.793080    21B2u   22.845440    21B1u   22.845440  
      31Ag    23.100662    15B1g   23.102882    15B2g   23.102882  
      32Ag    23.109551    15B3g   23.109551    16B2g   23.120689  
      16B1g   23.120689    16B3g   23.136331    33Ag    23.136331  
      17B1g   23.156527    17B2g   23.156527    34Ag    23.181343  
      17B3g   23.181343    22B3u   27.170799    22B2u   27.174122  
      22B1u   27.174122    23B3u   27.184102     9Au    27.184102  
      23B1u   27.200774    23B2u   27.200774    10Au    27.224193  
      24B3u   27.224193    24B2u   27.254444    24B1u   27.254444  
      25B3u   28.813473    25B2u   28.821381    25B1u   28.821381  
      26B3u   28.845175    11Au    28.845175    26B2u   28.885070  
      26B1u   28.885070    35Ag    31.834570    18B1g   31.839483  
      18B2g   31.839484    36Ag    31.854243    18B3g   31.854243  
      19B1g   31.878909    19B2g   31.878909    37Ag    31.913584  
      19B3g   31.913584    38Ag    34.861525    20B1g   34.875637  
      20B2g   34.875637    39Ag    34.918505    20B3g   34.918505  
      40Ag    99.838340  

    Beta Occupied:                                                        

       1Ag   -20.183421     2Ag    -0.729454     1B1u   -0.079838  
       1B2u   -0.079838  

    Beta Virtual:                                                         

       1B3u    0.228294     2B1u    0.240184     2B2u    0.240184  
       3Ag     0.322735     2B3u    0.438582     4Ag     0.585230  
       1B1g    0.585487     1B2g    0.585487     1B3g    0.586615  
       5Ag     0.586615     3B1u    0.621875     3B2u    0.621875  
       3B3u    0.709823     6Ag     0.899038     4B3u    1.055635  
       4B2u    1.056770     4B1u    1.056770     5B3u    1.060200  
       1Au     1.060200     5B1u    1.065916     5B2u    1.065916  
       7Ag     1.404606     2B3g    1.404606     2B2g    1.411567  
       2B1g    1.411567     8Ag     1.414436     6B1u    1.485231  
       6B2u    1.485231     6B3u    1.533856     9Ag     2.356103  
       3B1g    2.357407     3B2g    2.357407    10Ag     2.361324  
       3B3g    2.361324     4B2g    2.367869     4B1g    2.367869  
      11Ag     2.377040     4B3g    2.377040    12Ag     2.479542  
       7B3u    2.629607     7B2u    2.631551     7B1u    2.631551  
       8B3u    2.637351     2Au     2.637351     8B1u    2.646908  
       8B2u    2.646908    13Ag     3.014689     5B3g    3.014689  
       5B2g    3.024704     5B1g    3.024704    14Ag     3.028767  
       9B1u    3.455176     9B2u    3.455176     9B3u    3.476462  
      10B3u    4.776741    10B2u    4.778046    10B1u    4.778046  
      11B3u    4.781967     3Au     4.781967    11B1u    4.788516  
      11B2u    4.788516     4Au     4.797717    12B3u    4.797717  
      12B2u    4.809601    12B1u    4.809601    13B3u    5.802951  
      13B1u    5.805726    13B2u    5.805726    15Ag     5.806418  
       6B1g    5.808609     6B2g    5.808609    14B3u    5.814029  
       5Au     5.814029    16Ag     5.815179     6B3g    5.815179  
       7B2g    5.826120     7B1g    5.826120    14B1u    5.827803  
      14B2u    5.827803     7B3g    5.841393    17Ag     5.841393  
      18Ag     6.495470     8B2g    6.496235     8B1g    6.496235  
      19Ag     6.497861     8B3g    6.497861    20Ag     6.770917  
      15B3u    8.142374    15B1u    8.146246    15B2u    8.146246  
      21Ag     9.747300     9B1g    9.748602     9B2g    9.748602  
      22Ag     9.752510     9B3g    9.752510    10B2g    9.759037  
      10B1g    9.759037    10B3g    9.768201    23Ag     9.768201  
      11B2g    9.780028    11B1g    9.780028    24Ag     9.794555  
      11B3g    9.794555    16B3u   11.188389    16B2u   11.190348  
      16B1u   11.190348    17B3u   11.196231     6Au    11.196231  
      17B1u   11.206061    17B2u   11.206061     7Au    11.219874  
      18B3u   11.219874    18B2u   11.237723    18B1u   11.237723  
      19B3u   12.669569    19B2u   12.673501    19B1u   12.673501  
      20B3u   12.685317     8Au    12.685317    20B2u   12.705078  
      20B1u   12.705078    25Ag    13.383670    12B1g   13.386631  
      12B2g   13.386631    26Ag    13.395519    12B3g   13.395519  
      13B1g   13.410340    13B2g   13.410340    13B3g   13.431102  
      27Ag    13.431102    28Ag    14.679812    14B2g   14.685185  
      14B1g   14.685185    29Ag    14.701605    14B3g   14.701605  
      30Ag    20.173207    21B3u   22.848054    21B1u   22.862416  
      21B2u   22.862416    31Ag    23.121135    15B1g   23.122886  
      15B2g   23.122886    32Ag    23.128144    15B3g   23.128144  
      16B2g   23.136923    16B1g   23.136923    16B3g   23.149246  
      33Ag    23.149246    17B1g   23.165147    17B2g   23.165147  
      34Ag    23.184669    17B3g   23.184669    22B3u   27.200324  
      22B2u   27.202736    22B1u   27.202736    23B3u   27.209979  
       9Au    27.209979    23B1u   27.222074    23B2u   27.222074  
      10Au    27.239060    24B3u   27.239060    24B2u   27.260985  
      24B1u   27.260985    25B3u   28.856936    25B2u   28.861421  
      25B1u   28.861421    26B3u   28.874908    11Au    28.874908  
      26B2u   28.897493    26B1u   28.897493    35Ag    31.870691  
      18B1g   31.873954    18B2g   31.873954    36Ag    31.883753  
      18B3g   31.883753    19B1g   31.900119    19B2g   31.900119  
      37Ag    31.923104    19B3g   31.923104    38Ag    34.902038  
      20B1g   34.909253    20B2g   34.909253    39Ag    34.931136  
      20B3g   34.931136    40Ag    99.849333  

    Final Occupation by Irrep:
             Ag   B1g   B2g   B3g    Au   B1u   B2u   B3u 
    DOCC [     2,    0,    0,    0,    0,    1,    1,    0 ]
    SOCC [     0,    0,    0,    0,    0,    0,    0,    1 ]

  Energy converged.

  @UHF Final Energy:   -74.79783732043987

   => Energetics <=

    Nuclear Repulsion Energy =              0.0000000000000000
    One-Electron Energy =                -106.8564589438287840
    Two-Electron Energy =                  32.0586216233889090
    Total Energy =                        -74.7978373204398679


  UHF NO Occupations:
  HONO-2 :    1B1u 1.9952899
  HONO-1 :    1B2u 1.9952898
  HONO-0 :    1B3u 1.0000000
  LUNO+0 :    2B2u 0.0047102
  LUNO+1 :    2B1u 0.0047101
  LUNO+2 :    3 Ag 0.0021112
  LUNO+3 :    4 Ag 0.0000012



Properties will be evaluated at   0.000000,   0.000000,   0.000000 Bohr

Properties computed using the SCF density matrix

  Nuclear Dipole Moment: (a.u.)
     X:     0.0000      Y:     0.0000      Z:     0.0000

  Electronic Dipole Moment: (a.u.)
     X:     0.0000      Y:     0.0000      Z:     0.0000

  Dipole Moment: (a.u.)
     X:     0.0000      Y:     0.0000      Z:     0.0000     Total:     0.0000

  Dipole Moment: (Debye)
     X:     0.0000      Y:     0.0000      Z:     0.0000     Total:     0.0000


*** tstop() called on n412-071.vsc4.prov at Mon Nov  2 10:55:28 2020
Module time:
	user time   =     318.08 seconds =       5.30 minutes
	system time =       6.88 seconds =       0.11 minutes
	total time  =         80 seconds =       1.33 minutes
Total time:
	user time   =     318.08 seconds =       5.30 minutes
	system time =       6.88 seconds =       0.11 minutes
	total time  =         80 seconds =       1.33 minutes

*** tstart() called on n412-071.vsc4.prov
*** at Mon Nov  2 10:55:28 2020


	Wfn Parameters:
	--------------------
	Wavefunction         = CCSD
	Number of irreps     = 8
	Number of MOs        = 189
	Number of active MOs = 188
	AO-Basis             = NONE
	Semicanonical        = false
	Reference            = UHF
	Print Level          = 1

	IRREP	# MOs	# FZDC	# DOCC	# SOCC	# VIRT	# FZVR
	-----	-----	------	------	------	------	------
	 Ag	   40	    1	    1	    0	    38	    0
	 B1g	   20	    0	    0	    0	    20	    0
	 B2g	   20	    0	    0	    0	    20	    0
	 B3g	   20	    0	    0	    0	    20	    0
	 Au	   11	    0	    0	    0	    11	    0
	 B1u	   26	    0	    1	    0	    25	    0
	 B2u	   26	    0	    1	    0	    25	    0
	 B3u	   26	    0	    0	    1	    25	    0
	Transforming integrals...
	IWL integrals will be deleted.
	(OO|OO)...
	Presorting SO-basis two-electron integrals.
	Sorting File: SO Ints (nn|nn) nbuckets = 1
	Transforming the one-electron integrals and constructing Fock matrices
	Starting AA/AB first half-transformation.
	Sorting AA/AB half-transformed integrals.
	Starting BB first half-transformation.
	Sorting BB half-transformed integrals.
	First half integral transformation complete.
	Starting AA second half-transformation.
	Starting AB second half-transformation.
	Starting BB second half-transformation.
	Two-electron integral transformation complete.
	(OO|OV)...
	Starting AA second half-transformation.
	Starting AB second half-transformation.
	Starting BB second half-transformation.
	Two-electron integral transformation complete.
	(OO|VV)...
	Starting AA second half-transformation.
	Starting AB second half-transformation.
	Starting BB second half-transformation.
	Two-electron integral transformation complete.
	(OV|OO)...
	Starting AA/AB first half-transformation.
	Sorting AA/AB half-transformed integrals.
	Starting BB first half-transformation.
	Sorting BB half-transformed integrals.
	First half integral transformation complete.
	Starting AA second half-transformation.
	Starting AB second half-transformation.
	Starting BB second half-transformation.
	Two-electron integral transformation complete.
	(OV|OV)...
	Starting AA second half-transformation.
	Starting AB second half-transformation.
	Starting BB second half-transformation.
	Two-electron integral transformation complete.
	(OV|VV)...
	Starting AA second half-transformation.
	Starting AB second half-transformation.
	Starting BB second half-transformation.
	Two-electron integral transformation complete.
	(VV|OO)...
	Starting AA/AB first half-transformation.
	Sorting AA/AB half-transformed integrals.
	Starting BB first half-transformation.
	Sorting BB half-transformed integrals.
	First half integral transformation complete.
	Starting AA second half-transformation.
	Starting AB second half-transformation.
	Starting BB second half-transformation.
	Two-electron integral transformation complete.
	(VV|OV)...
	Starting AA second half-transformation.
	Starting AB second half-transformation.
	Starting BB second half-transformation.
	Two-electron integral transformation complete.
	(VV|VV)...
	Starting AA second half-transformation.
	Starting AB second half-transformation.
	Starting BB second half-transformation.
	Two-electron integral transformation complete.
	Frozen core energy     =    -59.10695381702197

	Size of irrep 0 of <AB|CD> integrals:      4.964 (MW) /     39.712 (MB)
	Size of irrep 1 of <AB|CD> integrals:      4.244 (MW) /     33.949 (MB)
	Size of irrep 2 of <AB|CD> integrals:      4.244 (MW) /     33.949 (MB)
	Size of irrep 3 of <AB|CD> integrals:      4.244 (MW) /     33.949 (MB)
	Size of irrep 4 of <AB|CD> integrals:      3.679 (MW) /     29.430 (MB)
	Size of irrep 5 of <AB|CD> integrals:      4.709 (MW) /     37.671 (MB)
	Size of irrep 6 of <AB|CD> integrals:      4.709 (MW) /     37.671 (MB)
	Size of irrep 7 of <AB|CD> integrals:      4.709 (MW) /     37.671 (MB)
	Total:                                    35.500 (MW) /    284.002 (MB)

	Size of irrep 0 of <ab|cd> integrals:      5.076 (MW) /     40.608 (MB)
	Size of irrep 1 of <ab|cd> integrals:      4.347 (MW) /     34.778 (MB)
	Size of irrep 2 of <ab|cd> integrals:      4.347 (MW) /     34.778 (MB)
	Size of irrep 3 of <ab|cd> integrals:      4.289 (MW) /     34.312 (MB)
	Size of irrep 4 of <ab|cd> integrals:      3.756 (MW) /     30.047 (MB)
	Size of irrep 5 of <ab|cd> integrals:      4.796 (MW) /     38.369 (MB)
	Size of irrep 6 of <ab|cd> integrals:      4.796 (MW) /     38.369 (MB)
	Size of irrep 7 of <ab|cd> integrals:      4.875 (MW) /     39.002 (MB)
	Total:                                    36.283 (MW) /    290.262 (MB)

	Size of irrep 0 of <Ab|Cd> integrals:     21.762 (MW) /    174.098 (MB)
	Size of irrep 1 of <Ab|Cd> integrals:     17.181 (MW) /    137.448 (MB)
	Size of irrep 2 of <Ab|Cd> integrals:     17.181 (MW) /    137.448 (MB)
	Size of irrep 3 of <Ab|Cd> integrals:     17.065 (MW) /    136.521 (MB)
	Size of irrep 4 of <Ab|Cd> integrals:     14.869 (MW) /    118.950 (MB)
	Size of irrep 5 of <Ab|Cd> integrals:     19.010 (MW) /    152.077 (MB)
	Size of irrep 6 of <Ab|Cd> integrals:     19.010 (MW) /    152.077 (MB)
	Size of irrep 7 of <Ab|Cd> integrals:     19.167 (MW) /    153.335 (MB)
	Total:                                   145.244 (MW) /   1161.954 (MB)

	Size of irrep 0 of <IA|BC> integrals:      0.524 (MW) /      4.195 (MB)
	Size of irrep 1 of <IA|BC> integrals:      0.334 (MW) /      2.670 (MB)
	Size of irrep 2 of <IA|BC> integrals:      0.334 (MW) /      2.670 (MB)
	Size of irrep 3 of <IA|BC> integrals:      0.334 (MW) /      2.670 (MB)
	Size of irrep 4 of <IA|BC> integrals:      0.272 (MW) /      2.179 (MB)
	Size of irrep 5 of <IA|BC> integrals:      0.447 (MW) /      3.576 (MB)
	Size of irrep 6 of <IA|BC> integrals:      0.447 (MW) /      3.576 (MB)
	Size of irrep 7 of <IA|BC> integrals:      0.447 (MW) /      3.576 (MB)
	Total:                                     3.139 (MW) /     25.111 (MB)

	Size of irrep 0 of <ia|bc> integrals:      0.413 (MW) /      3.302 (MB)
	Size of irrep 1 of <ia|bc> integrals:      0.238 (MW) /      1.902 (MB)
	Size of irrep 2 of <ia|bc> integrals:      0.238 (MW) /      1.902 (MB)
	Size of irrep 3 of <ia|bc> integrals:      0.290 (MW) /      2.320 (MB)
	Size of irrep 4 of <ia|bc> integrals:      0.198 (MW) /      1.581 (MB)
	Size of irrep 5 of <ia|bc> integrals:      0.364 (MW) /      2.908 (MB)
	Size of irrep 6 of <ia|bc> integrals:      0.364 (MW) /      2.908 (MB)
	Size of irrep 7 of <ia|bc> integrals:      0.291 (MW) /      2.332 (MB)
	Total:                                     2.394 (MW) /     19.155 (MB)

	Size of irrep 0 of <Ia|Bc> integrals:      0.532 (MW) /      4.254 (MB)
	Size of irrep 1 of <Ia|Bc> integrals:      0.340 (MW) /      2.719 (MB)
	Size of irrep 2 of <Ia|Bc> integrals:      0.340 (MW) /      2.719 (MB)
	Size of irrep 3 of <Ia|Bc> integrals:      0.335 (MW) /      2.677 (MB)
	Size of irrep 4 of <Ia|Bc> integrals:      0.274 (MW) /      2.190 (MB)
	Size of irrep 5 of <Ia|Bc> integrals:      0.449 (MW) /      3.593 (MB)
	Size of irrep 6 of <Ia|Bc> integrals:      0.449 (MW) /      3.593 (MB)
	Size of irrep 7 of <Ia|Bc> integrals:      0.455 (MW) /      3.642 (MB)
	Total:                                     3.173 (MW) /     25.388 (MB)

	Size of irrep 0 of <iA|bC> integrals:      0.411 (MW) /      3.284 (MB)
	Size of irrep 1 of <iA|bC> integrals:      0.232 (MW) /      1.857 (MB)
	Size of irrep 2 of <iA|bC> integrals:      0.232 (MW) /      1.857 (MB)
	Size of irrep 3 of <iA|bC> integrals:      0.289 (MW) /      2.313 (MB)
	Size of irrep 4 of <iA|bC> integrals:      0.197 (MW) /      1.573 (MB)
	Size of irrep 5 of <iA|bC> integrals:      0.362 (MW) /      2.895 (MB)
	Size of irrep 6 of <iA|bC> integrals:      0.362 (MW) /      2.895 (MB)
	Size of irrep 7 of <iA|bC> integrals:      0.285 (MW) /      2.277 (MB)
	Total:                                     2.369 (MW) /     18.951 (MB)

	Size of irrep 0 of tIjAb amplitudes:       0.014 (MW) /      0.112 (MB)
	Size of irrep 1 of tIjAb amplitudes:       0.004 (MW) /      0.033 (MB)
	Size of irrep 2 of tIjAb amplitudes:       0.004 (MW) /      0.033 (MB)
	Size of irrep 3 of tIjAb amplitudes:       0.008 (MW) /      0.066 (MB)
	Size of irrep 4 of tIjAb amplitudes:       0.000 (MW) /      0.000 (MB)
	Size of irrep 5 of tIjAb amplitudes:       0.009 (MW) /      0.070 (MB)
	Size of irrep 6 of tIjAb amplitudes:       0.009 (MW) /      0.070 (MB)
	Size of irrep 7 of tIjAb amplitudes:       0.004 (MW) /      0.035 (MB)
	Total:                                     0.052 (MW) /      0.419 (MB)

	Nuclear Rep. energy          =      0.00000000000000
	SCF energy                   =    -74.79783732043987
	One-electron energy          =    -29.05048202482481
	Two-electron (AA) energy     =      3.61145689124813
	Two-electron (BB) energy     =      1.62987222989912
	Two-electron (AB) energy     =      8.11826940025950
	Two-electron energy          =     13.35959852140675
	Reference energy             =    -74.79783732044004

*** tstop() called on n412-071.vsc4.prov at Mon Nov  2 10:56:34 2020
Module time:
	user time   =      17.56 seconds =       0.29 minutes
	system time =      12.88 seconds =       0.21 minutes
	total time  =         66 seconds =       1.10 minutes
Total time:
	user time   =     335.65 seconds =       5.59 minutes
	system time =      19.76 seconds =       0.33 minutes
	total time  =        146 seconds =       2.43 minutes

*** tstart() called on n412-071.vsc4.prov
*** at Mon Nov  2 10:56:34 2020

            **************************
            *                        *
            *        CCENERGY        *
            *                        *
            **************************

    Nuclear Rep. energy (wfn)     =    0.000000000000000
    SCF energy          (wfn)     =  -74.797837320439868
    Reference energy    (file100) =  -74.797837320440038

    Input parameters:
    -----------------
    Wave function   =     CCSD
    Reference wfn   =     UHF
    Brueckner       =     No
    Memory (Mbytes) =     250000.0
    Maxiter         =     50
    R_Convergence   =     1.0e-07
    E_Convergence   =     1.0e-06
    Restart         =     Yes
    DIIS            =     Yes
    AO Basis        =     NONE
    ABCD            =     NEW
    Cache Level     =     2
    Cache Type      =     LRU
    Print Level     =     1
    Num. of threads =     48
    # Amps to Print =     10
    Print MP2 Amps? =     No
    Analyze T2 Amps =     No
    Print Pair Ener =     No
    Local CC        =     No
    SCS-MP2         =     False
    SCSN-MP2        =     False
    SCS-CCSD        =     False

MP2 correlation energy -0.2447352931782743
                Solving CC Amplitude Equations
                ------------------------------
  Iter             Energy              RMS        T1Diag      D1Diag    New D1Diag    D2Diag
  ----     ---------------------    ---------   ----------  ----------  ----------   --------
     0        -0.244735293178289    0.000e+00    0.000000    0.000000    0.000000    0.000000
     1        -0.239850231661719    7.967e-02    0.025429    0.000000    0.000000    0.000000
     2        -0.244670840005616    3.764e-02    0.021529    0.000000    0.000000    0.000000
     3        -0.247004053124751    1.858e-02    0.027011    0.000000    0.000000    0.000000
     4        -0.247377713955664    8.325e-03    0.030961    0.000000    0.000000    0.000000
     5        -0.247150613126338    3.949e-03    0.032100    0.000000    0.000000    0.000000
     6        -0.247241038109338    2.091e-03    0.032940    0.000000    0.000000    0.000000
     7        -0.247289480370259    1.079e-03    0.032988    0.000000    0.000000    0.000000
     8        -0.247291564070190    5.049e-04    0.032916    0.000000    0.000000    0.000000
     9        -0.247301638642590    2.011e-04    0.032922    0.000000    0.000000    0.000000
    10        -0.247296805140285    7.823e-05    0.032923    0.000000    0.000000    0.000000
    11        -0.247294001451935    3.611e-05    0.032917    0.000000    0.000000    0.000000
    12        -0.247294774939909    1.778e-05    0.032921    0.000000    0.000000    0.000000
    13        -0.247294507172640    7.486e-06    0.032921    0.000000    0.000000    0.000000
    14        -0.247294694340000    3.635e-06    0.032922    0.000000    0.000000    0.000000
    15        -0.247294716570864    1.377e-06    0.032922    0.000000    0.000000    0.000000
    16        -0.247294686007847    5.921e-07    0.032922    0.000000    0.000000    0.000000
    17        -0.247294669418670    3.234e-07    0.032921    0.000000    0.000000    0.000000
    18        -0.247294668463481    1.226e-07    0.032921    0.000000    0.000000    0.000000
    19        -0.247294669716969    6.545e-08    0.032921    0.000000    0.000000    0.000000
    19        -0.247294669716969    6.545e-08    0.032921    0.000000    0.000000    0.000000

    Iterations converged.


    CCSD corr. energy   =   -0.247294669716969
    PPL corr. energy    =    0.055243582923725
    OS PPL corr. energy =    0.046427252832848
    SS PPL corr. energy =    0.008816330090882
    Largest TIA Amplitudes:
              1 109        -0.0395934729
              2 134        -0.0395934497
              3 159        -0.0278414210
              1 110        -0.0236560947
              2 135        -0.0236560882
              3 160        -0.0234376389
              0   0         0.0086229682
              0   3        -0.0054467339
              2 141         0.0054264290
              1 116         0.0054264285

    Largest Tia Amplitudes:
              2 134        -0.0250654486
              1 109        -0.0250653510
              2 138         0.0105851430
              1 113         0.0105851428
              1 116         0.0082239440
              2 141         0.0082239437
              0   5        -0.0068085381
              0   9         0.0050675229
              0  11         0.0049427702
              0   1         0.0035083177

    Largest TIJAB Amplitudes:
      2   1 135 110        -0.0209047568
      3   1 160 110        -0.0196039689
      3   2 160 135        -0.0196039630
      3   1 163 110        -0.0162302772
      3   2 163 135        -0.0162302736
      3   1 163 113        -0.0160658736
      3   2 163 138        -0.0160658731
      2   1 138 110        -0.0156303472
      2   1 135 113        -0.0156303451
      2   1 138 113        -0.0155465599

    Largest Tijab Amplitudes:
      2   1 135 110        -0.0273295872
      2   1 134 110        -0.0207237470
      2   1 135 109        -0.0207237211
      2   1 134 109        -0.0186833904
      2   1 135 113        -0.0172598814
      2   1 138 110        -0.0172598748
      2   1  79   4        -0.0153846385
      2   1 138 113        -0.0153282064
      1   0 160  59         0.0108692982
      2   0 160  39         0.0108692980

    Largest TIjAb Amplitudes:
      2   2 135 135        -0.0484119204
      1   1 110 110        -0.0484119004
      2   2 138 135        -0.0343541137
      1   1 113 110        -0.0343541032
      1   1 113 113        -0.0342224531
      2   2 138 138        -0.0342224516
      1   1 110 113        -0.0336313315
      2   2 135 138        -0.0336313305
      1   2 110 135        -0.0326569632
      2   1 135 110        -0.0326569317

    SCF energy       (wfn)                    =  -74.797837320439868
    Reference energy (file100)                =  -74.797837320440038

    Opposite-spin MP2 correlation energy      =   -0.187446352680484
    Same-spin MP2 correlation energy          =   -0.057288940497596
    MP2 correlation energy                    =   -0.244735293178274
      * MP2 total energy                      =  -75.042572613618319

    Opposite-spin CCSD correlation energy     =   -0.195840150645157
    Same-spin CCSD correlation energy         =   -0.051454511296618
    CCSD correlation energy                   =   -0.247294669716969
      * CCSD total energy                     =  -75.045131990157003


*** tstop() called on n412-071.vsc4.prov at Mon Nov  2 10:57:58 2020
Module time:
	user time   =    3197.81 seconds =      53.30 minutes
	system time =      59.54 seconds =       0.99 minutes
	total time  =         84 seconds =       1.40 minutes
Total time:
	user time   =    3533.46 seconds =      58.89 minutes
	system time =      79.30 seconds =       1.32 minutes
	total time  =        230 seconds =       3.83 minutes

*** Psi4 exiting successfully. Buy a developer a beer!
