
    -----------------------------------------------------------------------
          Psi4: An Open-Source Ab Initio Electronic Structure Package
                               Psi4 1.4a3.dev88 

                         Git: Rev {master} 262e345 


    D. G. A. Smith, L. A. Burns, A. C. Simmonett, R. M. Parrish,
    M. C. Schieber, R. Galvelis, P. Kraus, H. Kruse, R. Di Remigio,
    A. Alenaizan, A. M. James, S. Lehtola, J. P. Misiewicz, M. Scheurer,
    R. A. Shaw, J. B. Schriber, Y. Xie, Z. L. Glick, D. A. Sirianni,
    J. S. O'Brien, J. M. Waldrop, A. Kumar, E. G. Hohenstein,
    B. P. Pritchard, B. R. Brooks, H. F. Schaefer III, A. Yu. Sokolov,
    K. Patkowski, A. E. DePrince III, U. Bozkaya, R. A. King,
    F. A. Evangelista, J. M. Turney, T. D. Crawford, C. D. Sherrill,
    J. Chem. Phys. 152(18) 184108 (2020). https://doi.org/10.1063/5.0006002

                            Additional Code Authors
    E. T. Seidl, C. L. Janssen, E. F. Valeev, M. L. Leininger,
    J. F. Gonthier, R. M. Richard, H. R. McAlexander, M. Saitow, X. Wang,
    P. Verma, and M. H. Lechner

             Previous Authors, Complete List of Code Contributors,
                       and Citations for Specific Modules
    https://github.com/psi4/psi4/blob/master/codemeta.json
    https://github.com/psi4/psi4/graphs/contributors
    http://psicode.org/psi4manual/master/introduction.html#citing-psifour

    -----------------------------------------------------------------------


    Psi4 started on: Friday, 22 January 2021 08:05AM

    Process ID: 69873
    Host:       n412-045.vsc4.prov
    PSIDATADIR: /home/fs71337/gallo4/psi4/psi4/build/stage/share/psi4
    Memory:     500.0 MiB
    Threads:    48
    
  ==> Input File <==

--------------------------------------------------------------------------
# Any line starting with the # character is a comment line
memory 250000 mb
molecule molecule{
-1 1
S          0.0000000000        0.0000000000        0.0408346674
H          0.0000000000        0.0000000000       -1.2988465945
}

set {
  reference rhf
  basis aug-cc-pV(5+d)Z
  scf_type OUT_OF_CORE
  freeze_core true
}

energy('ccsd(t)')
--------------------------------------------------------------------------

  Memory set to 232.831 GiB by Python driver.

Scratch directory: /binfl/lv71337/airmler/temp/

*** tstart() called on n412-045.vsc4.prov
*** at Fri Jan 22 08:05:06 2021

   => Loading Basis Set <=

    Name: AUG-CC-PV(5+D)Z
    Role: ORBITAL
    Keyword: BASIS
    atoms 1 entry S          line  1451 file /home/fs71337/gallo4/psi4/psi4/build/stage/share/psi4/basis/aug-cc-pv_5pd_z.gbs 
    atoms 2 entry H          line    69 file /home/fs71337/gallo4/psi4/psi4/build/stage/share/psi4/basis/aug-cc-pv_5pd_z.gbs 


         ---------------------------------------------------------
                                   SCF
               by Justin Turney, Rob Parrish, Andy Simmonett
                          and Daniel G. A. Smith
                              RHF Reference
                       48 Threads, 238418 MiB Core
         ---------------------------------------------------------

  ==> Geometry <==

    Molecular point group: c2v
    Full point group: C_inf_v

    Geometry (in Angstrom), charge = -1, multiplicity = 1:

       Center              X                  Y                   Z               Mass       
    ------------   -----------------  -----------------  -----------------  -----------------
         S            0.000000000000     0.000000000000     0.040939010314    31.972071174400
         H            0.000000000000     0.000000000000    -1.298742251586     1.007825032230

  Running in c2v symmetry.

  Rotational constants: A = ************  B =      9.61362  C =      9.61362 [cm^-1]
  Rotational constants: A = ************  B = 288209.04460  C = 288209.04460 [MHz]
  Nuclear repulsion =    6.320037169671187

  Charge       = -1
  Multiplicity = 1
  Electrons    = 18
  Nalpha       = 9
  Nbeta        = 9

  ==> Algorithm <==

  SCF Algorithm Type is OUT_OF_CORE.
  DIIS enabled.
  MOM disabled.
  Fractional occupation disabled.
  Guess Type is SAD.
  Energy threshold   = 1.00e-08
  Density threshold  = 1.00e-08
  Integral threshold = 1.00e-12

  ==> Primary Basis <==

  Basis Set: AUG-CC-PV(5+D)Z
    Blend: AUG-CC-PV(5+D)Z
    Number of shells: 50
    Number of basis function: 216
    Number of Cartesian functions: 297
    Spherical Harmonics?: true
    Max angular momentum: 5

  ==> Integral Setup <==

  ==> DiskJK: Disk-Based J/K Matrices <==

    J tasked:                  Yes
    K tasked:                  Yes
    wK tasked:                  No
    Memory [MiB]:           178813
    Schwarz Cutoff:          1E-12

  Minimum eigenvalue in the overlap matrix is 2.6911241019E-05.
  Reciprocal condition number of the overlap matrix is 4.0790329853E-06.
    Using symmetric orthogonalization.

  ==> Pre-Iterations <==

  SCF Guess: Superposition of Atomic Densities via on-the-fly atomic UHF (no occupation information).


 WARNING: Atomic UHF is not converging! Try casting from a smaller basis or call Rob at CCMST.

 WARNING: Atomic UHF is not converging! Try casting from a smaller basis or call Rob at CCMST.
   -------------------------
    Irrep   Nso     Nmo    
   -------------------------
     A1        81      81 
     A2        31      31 
     B1        52      52 
     B2        52      52 
   -------------------------
    Total     216     216
   -------------------------

  ==> Iterations <==

                        Total Energy        Delta E     RMS |[F,P]|

   @RHF iter SAD:   -96.01356467194687   -9.60136e+01   0.00000e+00 
   @RHF iter   1:  -387.65897189349846   -2.91645e+02   6.47985e-02 DIIS
   @RHF iter   2:  -389.79485835715963   -2.13589e+00   3.13699e-02 DIIS
   @RHF iter   3:  -396.94685547371023   -7.15200e+00   1.36827e-02 DIIS
   @RHF iter   4:  -398.13197988078286   -1.18512e+00   1.27860e-03 DIIS
   @RHF iter   5:  -398.14857501898098   -1.65951e-02   4.55545e-04 DIIS
   @RHF iter   6:  -398.14960640514698   -1.03139e-03   1.21115e-04 DIIS
   @RHF iter   7:  -398.14972950656454   -1.23101e-04   2.19011e-05 DIIS
   @RHF iter   8:  -398.14974199163021   -1.24851e-05   5.30423e-06 DIIS
   @RHF iter   9:  -398.14974269210296   -7.00473e-07   8.89360e-07 DIIS
   @RHF iter  10:  -398.14974270715499   -1.50520e-08   3.02165e-07 DIIS
   @RHF iter  11:  -398.14974270835614   -1.20116e-09   5.38311e-08 DIIS
   @RHF iter  12:  -398.14974270843857   -8.24230e-11   1.03370e-08 DIIS
   @RHF iter  13:  -398.14974270844118   -2.61480e-12   1.60793e-09 DIIS
  Energy and wave function converged.


  ==> Post-Iterations <==

    Orbital Energies [Eh]
    ---------------------

    Doubly Occupied:                                                      

       1A1   -91.663413     2A1    -8.664236     3A1    -6.346082  
       1B1    -6.344599     1B2    -6.344599     4A1    -0.645154  
       5A1    -0.254792     2B1    -0.094895     2B2    -0.094895  

    Virtual:                                                              

       6A1     0.136379     7A1     0.199381     3B1     0.213579  
       3B2     0.213579     8A1     0.261685     9A1     0.323930  
       4B1     0.347032     4B2     0.347032    10A1     0.375119  
       1A2     0.375119    11A1     0.382706     5B1     0.399787  
       5B2     0.399787    12A1     0.465081    13A1     0.483228  
       6B1     0.568944     6B2     0.568944    14A1     0.597845  
      15A1     0.659854     2A2     0.659854     7B1     0.663351  
       7B2     0.663351     8B1     0.668861     8B2     0.668861  
      16A1     0.731466     3A2     0.731466    17A1     0.745889  
       9B1     0.764751     9B2     0.764751    18A1     0.767758  
      10B1     0.831728    10B2     0.831728    19A1     0.843516  
       4A2     0.843516    20A1     0.890671    21A1     0.957780  
      22A1     1.254599    11B1     1.270781    11B2     1.270781  
      12B2     1.312350    12B1     1.312350     5A2     1.328390  
      23A1     1.328390    13B1     1.364420    13B2     1.364420  
      24A1     1.369080    25A1     1.427142     6A2     1.427142  
      26A1     1.436515     7A2     1.436515    27A1     1.453823  
      14B2     1.458697    14B1     1.458697    15B1     1.465806  
      15B2     1.465806    16B1     1.487512    16B2     1.487512  
      28A1     1.497940    29A1     1.520036     8A2     1.520036  
      17B1     1.597085    17B2     1.597085    18B1     1.649853  
      18B2     1.649853    30A1     1.651726     9A2     1.651726  
      31A1     1.750337    32A1     1.780109    19B1     2.036416  
      19B2     2.036416    33A1     2.065041    34A1     2.476803  
      35A1     2.560598    10A2     2.560598    20B2     2.572079  
      20B1     2.572079    21B2     2.719328    21B1     2.719328  
      36A1     2.720563    37A1     2.870051    38A1     2.883639  
      11A2     2.883639    22B2     2.899252    22B1     2.899252  
      12A2     2.919534    39A1     2.919534    23B1     2.987639  
      23B2     2.987639    24B1     3.005887    24B2     3.005887  
      40A1     3.009983    13A2     3.009983    25B2     3.026149  
      25B1     3.026149    41A1     3.044600    14A2     3.059760  
      42A1     3.059760    26B2     3.152474    26B1     3.152474  
      15A2     3.175655    43A1     3.175655    27B2     3.221338  
      27B1     3.221338    44A1     3.299560    28B2     3.351325  
      28B1     3.351325    45A1     3.441569    46A1     3.458710  
      16A2     3.458710    47A1     3.491972    17A2     3.491972  
      48A1     3.773126    29B2     3.834431    29B1     3.834431  
      30B2     3.861993    30B1     3.861993    49A1     3.975354  
      18A2     3.975354    50A1     4.148752    31B2     4.306492  
      31B1     4.306492    51A1     4.541983    32B2     4.595249  
      32B1     4.595249    33B2     4.806346    33B1     4.806346  
      19A2     5.403996    52A1     5.403996    34B2     5.468533  
      34B1     5.468533    53A1     5.484775    54A1     5.668580  
      35B2     5.708997    35B1     5.708997    55A1     5.743073  
      20A2     5.743073    36B2     5.842183    36B1     5.842183  
      56A1     6.133344    21A2     6.133344    57A1     6.136719  
      37B2     6.269967    37B1     6.269967    58A1     6.331632  
      59A1     6.382402    22A2     6.382402    38B2     6.444681  
      38B1     6.444681    60A1     6.465027    39B1     6.480240  
      39B2     6.480240    61A1     6.485477    23A2     6.485477  
      40B1     6.593080    40B2     6.593080    24A2     6.601818  
      62A1     6.601818    63A1     6.650873    25A2     6.650873  
      41B2     6.717672    41B1     6.717672    64A1     6.751619  
      42B2     7.184350    42B1     7.184350    65A1     7.220119  
      66A1     7.343028    26A2     7.343028    43B2     7.465152  
      43B1     7.465152    67A1     8.246818    44B2     8.397712  
      44B1     8.397712    68A1    10.014897    45B2    13.262100  
      45B1    13.262100    27A2    13.410926    69A1    13.410926  
      46B1    13.583324    46B2    13.583324    28A2    13.652276  
      70A1    13.652276    47B2    13.817372    47B1    13.817372  
      71A1    14.050453    72A1    14.098554    29A2    14.098554  
      73A1    14.242917    48B1    14.564295    48B2    14.564295  
      74A1    14.699329    30A2    14.699329    75A1    14.753755  
      49B2    15.428476    49B1    15.428476    76A1    16.625562  
      31A2    16.625562    77A1    16.917610    50B2    17.106633  
      50B1    17.106633    78A1    17.294158    51B2    17.940492  
      51B1    17.940492    79A1    19.263875    52B2    25.675969  
      52B1    25.675969    80A1    28.678137    81A1    68.295069  

    Final Occupation by Irrep:
             A1    A2    B1    B2 
    DOCC [     5,    0,    2,    2 ]

  @RHF Final Energy:  -398.14974270844118

   => Energetics <=

    Nuclear Repulsion Energy =              6.3200371696711866
    One-Electron Energy =                -568.0342293689769804
    Two-Electron Energy =                 163.5644494908646323
    Total Energy =                       -398.1497427084411811

Computation Completed


Properties will be evaluated at   0.000000,   0.000000,   0.000000 [a0]

Properties computed using the SCF density matrix

  Nuclear Dipole Moment: [e a0]
     X:     0.0000      Y:     0.0000      Z:    -1.2165

  Electronic Dipole Moment: [e a0]
     X:     0.0000      Y:     0.0000      Z:     1.0292

  Dipole Moment: [e a0]
     X:     0.0000      Y:     0.0000      Z:    -0.1872     Total:     0.1872

  Dipole Moment: [D]
     X:     0.0000      Y:     0.0000      Z:    -0.4759     Total:     0.4759


*** tstop() called on n412-045.vsc4.prov at Fri Jan 22 08:06:36 2021
Module time:
	user time   =     138.76 seconds =       2.31 minutes
	system time =      11.01 seconds =       0.18 minutes
	total time  =         90 seconds =       1.50 minutes
Total time:
	user time   =     138.76 seconds =       2.31 minutes
	system time =      11.01 seconds =       0.18 minutes
	total time  =         90 seconds =       1.50 minutes

*** tstart() called on n412-045.vsc4.prov
*** at Fri Jan 22 08:06:36 2021


	Wfn Parameters:
	--------------------
	Wavefunction         = CCSD_T
	Number of irreps     = 4
	Number of MOs        = 216
	Number of active MOs = 211
	AO-Basis             = NONE
	Semicanonical        = false
	Reference            = RHF
	Print Level          = 1

	IRREP	# MOs	# FZDC	# DOCC	# SOCC	# VIRT	# FZVR
	-----	-----	------	------	------	------	------
	 A1	   81	    3	    2	    0	    76	    0
	 A2	   31	    0	    0	    0	    31	    0
	 B1	   52	    1	    1	    0	    50	    0
	 B2	   52	    1	    1	    0	    50	    0
	Transforming integrals...
	IWL integrals will be deleted.
	(OO|OO)...
	Presorting SO-basis two-electron integrals.
	Sorting File: SO Ints (nn|nn) nbuckets = 1
	Constructing frozen core operators
	Starting first half-transformation.
	Sorting half-transformed integrals.
	First half integral transformation complete.
	Starting second half-transformation.
	Two-electron integral transformation complete.
	(OO|OV)...
	Starting second half-transformation.
	Two-electron integral transformation complete.
	(OO|VV)...
	Starting second half-transformation.
	Two-electron integral transformation complete.
	(OV|OO)...
	Starting first half-transformation.
	Sorting half-transformed integrals.
	First half integral transformation complete.
	Starting second half-transformation.
	Two-electron integral transformation complete.
	(OV|OV)...
	Starting second half-transformation.
	Two-electron integral transformation complete.
	(OV|VV)...
	Starting second half-transformation.
	Two-electron integral transformation complete.
	(VV|OO)...
	Starting first half-transformation.
	Sorting half-transformed integrals.
	First half integral transformation complete.
	Starting second half-transformation.
	Two-electron integral transformation complete.
	(VV|OV)...
	Starting second half-transformation.
	Two-electron integral transformation complete.
	(VV|VV)...
	Starting second half-transformation.
	Two-electron integral transformation complete.
	Frozen core energy     =   -391.50364865168660

	Size of irrep 0 of <ab|cd> integrals:    137.757 (MW) /   1102.057 (MB)
	Size of irrep 1 of <ab|cd> integrals:     94.323 (MW) /    754.584 (MB)
	Size of irrep 2 of <ab|cd> integrals:    114.490 (MW) /    915.920 (MB)
	Size of irrep 3 of <ab|cd> integrals:    114.490 (MW) /    915.920 (MB)
	Total:                                   461.060 (MW) /   3688.481 (MB)

	Size of irrep 0 of <ia|bc> integrals:      2.958 (MW) /     23.662 (MB)
	Size of irrep 1 of <ia|bc> integrals:      1.573 (MW) /     12.587 (MB)
	Size of irrep 2 of <ia|bc> integrals:      2.215 (MW) /     17.719 (MB)
	Size of irrep 3 of <ia|bc> integrals:      2.215 (MW) /     17.719 (MB)
	Total:                                     8.961 (MW) /     71.687 (MB)

	Size of irrep 0 of tijab amplitudes:       0.070 (MW) /      0.563 (MB)
	Size of irrep 1 of tijab amplitudes:       0.019 (MW) /      0.155 (MB)
	Size of irrep 2 of tijab amplitudes:       0.043 (MW) /      0.342 (MB)
	Size of irrep 3 of tijab amplitudes:       0.043 (MW) /      0.342 (MB)
	Total:                                     0.175 (MW) /      1.404 (MB)

	Nuclear Rep. energy          =      6.32003716967119
	SCF energy                   =   -398.14974270844118
	One-electron energy          =    -23.75279022921711
	Two-electron energy          =     10.78665900279181
	Reference energy             =   -398.14974270844073

*** tstop() called on n412-045.vsc4.prov at Fri Jan 22 08:08:09 2021
Module time:
	user time   =      24.25 seconds =       0.40 minutes
	system time =      19.90 seconds =       0.33 minutes
	total time  =         93 seconds =       1.55 minutes
Total time:
	user time   =     163.01 seconds =       2.72 minutes
	system time =      30.91 seconds =       0.52 minutes
	total time  =        183 seconds =       3.05 minutes
            **************************
            *                        *
            *        CCENERGY        *
            *                        *
            **************************

    Nuclear Rep. energy (wfn)     =    6.320037169671187
    SCF energy          (wfn)     = -398.149742708441181
    Reference energy    (file100) = -398.149742708440726

    Input parameters:
    -----------------
    Wave function   =     CCSD_T
    Reference wfn   =     RHF
    Brueckner       =     No
    Memory (Mbytes) =     250000.0
    Maxiter         =     50
    R_Convergence   =     1.0e-07
    E_Convergence   =     1.0e-06
    Restart         =     Yes
    DIIS            =     Yes
    AO Basis        =     NONE
    ABCD            =     NEW
    Cache Level     =     2
    Cache Type      =     LOW
    Print Level     =     1
    Num. of threads =     48
    # Amps to Print =     10
    Print MP2 Amps? =     No
    Analyze T2 Amps =     No
    Print Pair Ener =     No
    Local CC        =     No
    SCS-MP2         =     False
    SCSN-MP2        =     False
    SCS-CCSD        =     False

MP2 correlation energy -0.2212646562767542
                Solving CC Amplitude Equations
                ------------------------------
  Iter             Energy              RMS        T1Diag      D1Diag    New D1Diag    D2Diag
  ----     ---------------------    ---------   ----------  ----------  ----------   --------
     0        -0.221264656276754    0.000e+00    0.000000    0.000000    0.000000    0.147444
     1        -0.228791731522803    4.196e-02    0.006828    0.010301    0.010301    0.154795
     2        -0.233876638981840    1.440e-02    0.007794    0.012803    0.012803    0.160772
     3        -0.234718839665039    5.242e-03    0.008780    0.014568    0.014568    0.162151
     4        -0.234650906444831    1.404e-03    0.009091    0.015222    0.015222    0.162371
     5        -0.234652735088447    5.579e-04    0.009244    0.015531    0.015531    0.162446
     6        -0.234654636446189    1.730e-04    0.009289    0.015612    0.015612    0.162442
     7        -0.234652645131572    6.847e-05    0.009309    0.015644    0.015644    0.162434
     8        -0.234652276657746    1.962e-05    0.009313    0.015651    0.015651    0.162433
     9        -0.234652617826128    6.176e-06    0.009314    0.015651    0.015651    0.162433
    10        -0.234652448750567    2.277e-06    0.009314    0.015651    0.015651    0.162433
    11        -0.234652443238316    7.296e-07    0.009314    0.015651    0.015651    0.162433
    12        -0.234652430862304    2.598e-07    0.009314    0.015651    0.015651    0.162433
    13        -0.234652432724932    8.993e-08    0.009314    0.015651    0.015651    0.162433

    Iterations converged.


    Largest TIA Amplitudes:
              1   8         0.0078321356
              2 108         0.0077784501
              3 158         0.0077784497
              2 111        -0.0071556443
              3 161        -0.0071556442
              1   5        -0.0064466876
              1  12         0.0055229334
              1   3        -0.0054404052
              0  14        -0.0049307993
              1  18        -0.0044602842

    Largest TIjAb Amplitudes:
      1   1   8   8        -0.0341620327
      3   3 160 160        -0.0278620934
      2   2 110 110        -0.0278620907
      1   1   6   6        -0.0257647155
      1   1   6   8         0.0216127269
      1   1   8   6         0.0216127269
      2   2  10  10        -0.0215838846
      2   2  78  78        -0.0215838845
      3   3  78  78        -0.0215838840
      3   3  10  10        -0.0215838840

    SCF energy       (wfn)                    = -398.149742708441181
    Reference energy (file100)                = -398.149742708440726

    Opposite-spin MP2 correlation energy      =   -0.173799786056302
    Same-spin MP2 correlation energy          =   -0.047464870220453
    Singles MP2 correlation energy            =   -0.000000000000000
    MP2 correlation energy                    =   -0.221264656276754
      * MP2 total energy                      = -398.371007364717457

    Opposite-spin CCSD correlation energy     =   -0.189802631324348
    Same-spin CCSD correlation energy         =   -0.044849801400581
    Singles CCSD correlation energy           =    0.000000000000000
    CCSD correlation energy                   =   -0.234652432724932
      * CCSD total energy                     = -398.384395141165669

            **************************
            *                        *
            *        CCTRIPLES       *
            *                        *
            **************************


    Wave function   =    CCSD_T
    Reference wfn   =      RHF

    Nuclear Rep. energy (wfn)                =    6.320037169671187
    SCF energy          (wfn)                = -398.149742708441181
    Reference energy    (file100)            = -398.149742708440726
    CCSD energy         (file100)            =   -0.234652432724932
    Total CCSD energy   (file100)            = -398.384395141165669

    Number of ijk index combinations:               20
    Memory available in words        :     31250000000
    ~Words needed per explicit thread:         1755904
    Number of threads for explicit ijk threading:   48

    (T) energy                                =   -0.012030211173968
      * CCSD(T) total energy                  = -398.396425352339634


    Psi4 stopped on: Friday, 22 January 2021 08:09AM
    Psi4 wall time for execution: 0:03:55.88

*** Psi4 exiting successfully. Buy a developer a beer!
