
    -----------------------------------------------------------------------
          Psi4: An Open-Source Ab Initio Electronic Structure Package
                               Psi4 1.4a3.dev88 

                         Git: Rev {master} 262e345 


    D. G. A. Smith, L. A. Burns, A. C. Simmonett, R. M. Parrish,
    M. C. Schieber, R. Galvelis, P. Kraus, H. Kruse, R. Di Remigio,
    A. Alenaizan, A. M. James, S. Lehtola, J. P. Misiewicz, M. Scheurer,
    R. A. Shaw, J. B. Schriber, Y. Xie, Z. L. Glick, D. A. Sirianni,
    J. S. O'Brien, J. M. Waldrop, A. Kumar, E. G. Hohenstein,
    B. P. Pritchard, B. R. Brooks, H. F. Schaefer III, A. Yu. Sokolov,
    K. Patkowski, A. E. DePrince III, U. Bozkaya, R. A. King,
    F. A. Evangelista, J. M. Turney, T. D. Crawford, C. D. Sherrill,
    J. Chem. Phys. 152(18) 184108 (2020). https://doi.org/10.1063/5.0006002

                            Additional Code Authors
    E. T. Seidl, C. L. Janssen, E. F. Valeev, M. L. Leininger,
    J. F. Gonthier, R. M. Richard, H. R. McAlexander, M. Saitow, X. Wang,
    P. Verma, and M. H. Lechner

             Previous Authors, Complete List of Code Contributors,
                       and Citations for Specific Modules
    https://github.com/psi4/psi4/blob/master/codemeta.json
    https://github.com/psi4/psi4/graphs/contributors
    http://psicode.org/psi4manual/master/introduction.html#citing-psifour

    -----------------------------------------------------------------------


    Psi4 started on: Tuesday, 26 January 2021 06:31PM

    Process ID: 410876
    Host:       n412-040.vsc4.prov
    PSIDATADIR: /home/fs71337/gallo4/psi4/eri-6/psi4/build/stage/share/psi4
    Memory:     500.0 MiB
    Threads:    48
    
  ==> Input File <==

--------------------------------------------------------------------------
# Any line starting with the # character is a comment line
memory 250000 mb
molecule molecule{
-1 1
S          0.0000000000        0.0000000000        0.0408346674
H          0.0000000000        0.0000000000       -1.2988465945
}

set {
  reference rhf
  basis aug-cc-pV(t+d)Z
  scf_type OUT_OF_CORE
  freeze_core true
}

energy('ccsd(t)')
--------------------------------------------------------------------------

  Memory set to 232.831 GiB by Python driver.

Scratch directory: /binfl/lv71337/airmler/temp/

*** tstart() called on n412-040.vsc4.prov
*** at Tue Jan 26 18:31:55 2021

   => Loading Basis Set <=

    Name: AUG-CC-PV(T+D)Z
    Role: ORBITAL
    Keyword: BASIS
    atoms 1 entry S          line   944 file /home/fs71337/gallo4/psi4/eri-6/psi4/build/stage/share/psi4/basis/aug-cc-pv_tpd_z.gbs 
    atoms 2 entry H          line    68 file /home/fs71337/gallo4/psi4/eri-6/psi4/build/stage/share/psi4/basis/aug-cc-pv_tpd_z.gbs 


         ---------------------------------------------------------
                                   SCF
               by Justin Turney, Rob Parrish, Andy Simmonett
                          and Daniel G. A. Smith
                              RHF Reference
                       48 Threads, 238418 MiB Core
         ---------------------------------------------------------

  ==> Geometry <==

    Molecular point group: c2v
    Full point group: C_inf_v

    Geometry (in Angstrom), charge = -1, multiplicity = 1:

       Center              X                  Y                   Z               Mass       
    ------------   -----------------  -----------------  -----------------  -----------------
         S            0.000000000000     0.000000000000     0.040939010314    31.972071174400
         H            0.000000000000     0.000000000000    -1.298742251586     1.007825032230

  Running in c2v symmetry.

  Rotational constants: A = ************  B =      9.61362  C =      9.61362 [cm^-1]
  Rotational constants: A = ************  B = 288209.04460  C = 288209.04460 [MHz]
  Nuclear repulsion =    6.320037169671187

  Charge       = -1
  Multiplicity = 1
  Electrons    = 18
  Nalpha       = 9
  Nbeta        = 9

  ==> Algorithm <==

  SCF Algorithm Type is OUT_OF_CORE.
  DIIS enabled.
  MOM disabled.
  Fractional occupation disabled.
  Guess Type is SAD.
  Energy threshold   = 1.00e-08
  Density threshold  = 1.00e-08
  Integral threshold = 1.00e-12

  ==> Primary Basis <==

  Basis Set: AUG-CC-PV(T+D)Z
    Blend: AUG-CC-PV(T+D)Z
    Number of shells: 26
    Number of basis function: 78
    Number of Cartesian functions: 90
    Spherical Harmonics?: true
    Max angular momentum: 3

  ==> Integral Setup <==

  ==> DiskJK: Disk-Based J/K Matrices <==

    J tasked:                  Yes
    K tasked:                  Yes
    wK tasked:                  No
    Memory [MiB]:           178813
    Schwarz Cutoff:          1E-12

  Minimum eigenvalue in the overlap matrix is 2.9778021722E-04.
  Reciprocal condition number of the overlap matrix is 6.0527281619E-05.
    Using symmetric orthogonalization.

  ==> Pre-Iterations <==

  SCF Guess: Superposition of Atomic Densities via on-the-fly atomic UHF (no occupation information).


 WARNING: Atomic UHF is not converging! Try casting from a smaller basis or call Rob at CCMST.

 WARNING: Atomic UHF is not converging! Try casting from a smaller basis or call Rob at CCMST.
   -------------------------
    Irrep   Nso     Nmo    
   -------------------------
     A1        34      34 
     A2         8       8 
     B1        18      18 
     B2        18      18 
   -------------------------
    Total      78      78
   -------------------------

  ==> Iterations <==

                        Total Energy        Delta E     RMS |[F,P]|

   @RHF iter SAD:  -395.07866323000673   -3.95079e+02   0.00000e+00 
   @RHF iter   1:  -397.89638001749535   -2.81772e+00   1.32484e-02 DIIS
   @RHF iter   2:  -398.09734629570221   -2.00966e-01   6.92203e-03 DIIS
   @RHF iter   3:  -398.14568134848793   -4.83351e-02   4.82977e-04 DIIS
   @RHF iter   4:  -398.14621366934944   -5.32321e-04   1.40334e-04 DIIS
   @RHF iter   5:  -398.14627338882383   -5.97195e-05   5.07946e-05 DIIS
   @RHF iter   6:  -398.14628266108724   -9.27226e-06   1.37880e-05 DIIS
   @RHF iter   7:  -398.14628354394523   -8.82858e-07   3.07247e-06 DIIS
   @RHF iter   8:  -398.14628359733615   -5.33909e-08   8.02761e-07 DIIS
   @RHF iter   9:  -398.14628360120156   -3.86541e-09   1.97785e-07 DIIS
   @RHF iter  10:  -398.14628360140148   -1.99918e-10   3.76079e-08 DIIS
   @RHF iter  11:  -398.14628360140853   -7.04858e-12   8.51544e-09 DIIS
  Energy and wave function converged.


  ==> Post-Iterations <==

    Orbital Energies [Eh]
    ---------------------

    Doubly Occupied:                                                      

       1A1   -91.663859     2A1    -8.664485     3A1    -6.346257  
       1B2    -6.344418     1B1    -6.344418     4A1    -0.645211  
       5A1    -0.254654     2B1    -0.094808     2B2    -0.094808  

    Virtual:                                                              

       6A1     0.157481     7A1     0.242658     3B1     0.258526  
       3B2     0.258526     8A1     0.317457     9A1     0.390469  
       4B2     0.440545     4B1     0.440545    10A1     0.491319  
       1A2     0.491319    11A1     0.517312     5B1     0.561611  
       5B2     0.561611    12A1     0.614325    13A1     0.741819  
       6B1     0.806247     6B2     0.806247    14A1     0.824530  
       7B1     0.948005     7B2     0.948005    15A1     0.989350  
       2A2     0.989350    16A1     1.069734     3A2     1.069734  
      17A1     1.089192     8B2     1.118435     8B1     1.118435  
       9B1     1.127765     9B2     1.127765    18A1     1.258262  
      19A1     1.312736    10B1     1.332254    10B2     1.332254  
       4A2     1.341232    20A1     1.341232    21A1     1.759642  
      11B2     1.869111    11B1     1.869111    22A1     1.946418  
       5A2     2.236786    23A1     2.236786    12B2     2.239804  
      12B1     2.239804    24A1     2.375751     6A2     2.640567  
      25A1     2.640567    13B2     2.642417    13B1     2.642417  
      14B2     2.658431    14B1     2.658431    26A1     2.728971  
      15B2     2.904355    15B1     2.904355    27A1     3.210936  
      28A1     3.635159     7A2     4.207482    29A1     4.207482  
      16B2     4.572453    16B1     4.572453    17B2     4.722385  
      17B1     4.722385    30A1     4.850517    31A1     5.234366  
      32A1     6.462419     8A2     7.633021    33A1     7.633021  
      18B2     7.708374    18B1     7.708374    34A1     8.752704  

    Final Occupation by Irrep:
             A1    A2    B1    B2 
    DOCC [     5,    0,    2,    2 ]

  @RHF Final Energy:  -398.14628360140853

   => Energetics <=

    Nuclear Repulsion Energy =              6.3200371696711866
    One-Electron Energy =                -568.0268059410352635
    Two-Electron Energy =                 163.5604851699555127
    Total Energy =                       -398.1462836014085269

Computation Completed


Properties will be evaluated at   0.000000,   0.000000,   0.000000 [a0]

Properties computed using the SCF density matrix

  Nuclear Dipole Moment: [e a0]
     X:     0.0000      Y:     0.0000      Z:    -1.2165

  Electronic Dipole Moment: [e a0]
     X:     0.0000      Y:     0.0000      Z:     1.0247

  Dipole Moment: [e a0]
     X:     0.0000      Y:     0.0000      Z:    -0.1918     Total:     0.1918

  Dipole Moment: [D]
     X:     0.0000      Y:     0.0000      Z:    -0.4874     Total:     0.4874


*** tstop() called on n412-040.vsc4.prov at Tue Jan 26 18:32:00 2021
Module time:
	user time   =      30.08 seconds =       0.50 minutes
	system time =       2.47 seconds =       0.04 minutes
	total time  =          5 seconds =       0.08 minutes
Total time:
	user time   =      30.08 seconds =       0.50 minutes
	system time =       2.47 seconds =       0.04 minutes
	total time  =          5 seconds =       0.08 minutes

*** tstart() called on n412-040.vsc4.prov
*** at Tue Jan 26 18:32:00 2021


	Wfn Parameters:
	--------------------
	Wavefunction         = CCSD_T
	Number of irreps     = 4
	Number of MOs        = 78
	Number of active MOs = 73
	AO-Basis             = NONE
	Semicanonical        = false
	Reference            = RHF
	Print Level          = 1

	IRREP	# MOs	# FZDC	# DOCC	# SOCC	# VIRT	# FZVR
	-----	-----	------	------	------	------	------
	 A1	   34	    3	    2	    0	    29	    0
	 A2	   8	    0	    0	    0	    8	    0
	 B1	   18	    1	    1	    0	    16	    0
	 B2	   18	    1	    1	    0	    16	    0
	Transforming integrals...
	IWL integrals will be deleted.
	(OO|OO)...
	Presorting SO-basis two-electron integrals.
	Sorting File: SO Ints (nn|nn) nbuckets = 1
	Constructing frozen core operators
	Starting first half-transformation.
	Sorting half-transformed integrals.
	First half integral transformation complete.
	Starting second half-transformation.
	Two-electron integral transformation complete.
	(OO|OV)...
	Starting second half-transformation.
	Two-electron integral transformation complete.
	(OO|VV)...
	Starting second half-transformation.
	Two-electron integral transformation complete.
	(OV|OO)...
	Starting first half-transformation.
	Sorting half-transformed integrals.
	First half integral transformation complete.
	Starting second half-transformation.
	Two-electron integral transformation complete.
	(OV|OV)...
	Starting second half-transformation.
	Two-electron integral transformation complete.
	(OV|VV)...
	Starting second half-transformation.
	Two-electron integral transformation complete.
	(VV|OO)...
	Starting first half-transformation.
	Sorting half-transformed integrals.
	First half integral transformation complete.
	Starting second half-transformation.
	Two-electron integral transformation complete.
	(VV|OV)...
	Starting second half-transformation.
	Two-electron integral transformation complete.
	(VV|VV)...
	Starting second half-transformation.
	Two-electron integral transformation complete.
	Frozen core energy     =   -391.50099224507164

	Size of irrep 0 of <ab|cd> integrals:      2.008 (MW) /     16.063 (MB)
	Size of irrep 1 of <ab|cd> integrals:      0.953 (MW) /      7.621 (MB)
	Size of irrep 2 of <ab|cd> integrals:      1.402 (MW) /     11.215 (MB)
	Size of irrep 3 of <ab|cd> integrals:      1.402 (MW) /     11.215 (MB)
	Total:                                     5.764 (MW) /     46.113 (MB)

	Size of irrep 0 of <ia|bc> integrals:      0.128 (MW) /      1.020 (MB)
	Size of irrep 1 of <ia|bc> integrals:      0.047 (MW) /      0.375 (MB)
	Size of irrep 2 of <ia|bc> integrals:      0.082 (MW) /      0.654 (MB)
	Size of irrep 3 of <ia|bc> integrals:      0.082 (MW) /      0.654 (MB)
	Total:                                     0.338 (MW) /      2.702 (MB)

	Size of irrep 0 of tijab amplitudes:       0.009 (MW) /      0.068 (MB)
	Size of irrep 1 of tijab amplitudes:       0.002 (MW) /      0.016 (MB)
	Size of irrep 2 of tijab amplitudes:       0.005 (MW) /      0.038 (MB)
	Size of irrep 3 of tijab amplitudes:       0.005 (MW) /      0.038 (MB)
	Total:                                     0.020 (MW) /      0.159 (MB)

	Nuclear Rep. energy          =      6.32003716967119
	SCF energy                   =   -398.14628360140853
	One-electron energy          =    -23.75169490030472
	Two-electron energy          =     10.78636637429729
	Reference energy             =   -398.14628360140790

*** tstop() called on n412-040.vsc4.prov at Tue Jan 26 18:32:03 2021
Module time:
	user time   =       0.46 seconds =       0.01 minutes
	system time =       0.39 seconds =       0.01 minutes
	total time  =          3 seconds =       0.05 minutes
Total time:
	user time   =      30.54 seconds =       0.51 minutes
	system time =       2.86 seconds =       0.05 minutes
	total time  =          8 seconds =       0.13 minutes
            **************************
            *                        *
            *        CCENERGY        *
            *                        *
            **************************

    Nuclear Rep. energy (wfn)     =    6.320037169671187
    SCF energy          (wfn)     = -398.146283601408527
    Reference energy    (file100) = -398.146283601407902

    Input parameters:
    -----------------
    Wave function   =     CCSD_T
    Reference wfn   =     RHF
    Brueckner       =     No
    Memory (Mbytes) =     250000.0
    Maxiter         =     50
    R_Convergence   =     1.0e-07
    E_Convergence   =     1.0e-06
    Restart         =     Yes
    DIIS            =     Yes
    AO Basis        =     NONE
    ABCD            =     NEW
    Cache Level     =     2
    Cache Type      =     LOW
    Print Level     =     1
    Num. of threads =     48
    # Amps to Print =     10
    Print MP2 Amps? =     No
    Analyze T2 Amps =     No
    Print Pair Ener =     No
    Local CC        =     No
    SCS-MP2         =     False
    SCSN-MP2        =     False
    SCS-CCSD        =     False

MP2 correlation energy -0.2002978818649560
                Solving CC Amplitude Equations
                ------------------------------
  Iter             Energy              RMS        T1Diag      D1Diag    New D1Diag    D2Diag
  ----     ---------------------    ---------   ----------  ----------  ----------   --------
     0        -0.200297881864956    0.000e+00    0.000000    0.000000    0.000000    0.144338
     1        -0.212885209900893    4.344e-02    0.006799    0.010342    0.010342    0.155148
     2        -0.217908651403281    1.421e-02    0.007936    0.013172    0.013172    0.161358
     3        -0.218594812665453    4.791e-03    0.008963    0.014803    0.014803    0.162582
     4        -0.218557572003130    1.314e-03    0.009307    0.015460    0.015460    0.162865
     5        -0.218558380517364    4.313e-04    0.009435    0.015675    0.015675    0.162917
     6        -0.218556603618268    1.356e-04    0.009477    0.015737    0.015737    0.162910
     7        -0.218555437512313    4.622e-05    0.009489    0.015754    0.015754    0.162905
     8        -0.218555732309694    1.421e-05    0.009493    0.015759    0.015759    0.162905
     9        -0.218555719121227    3.605e-06    0.009494    0.015758    0.015758    0.162905
    10        -0.218555651501723    1.188e-06    0.009494    0.015758    0.015758    0.162905
    11        -0.218555662716111    4.501e-07    0.009494    0.015758    0.015758    0.162905
    12        -0.218555663944767    1.236e-07    0.009494    0.015758    0.015758    0.162905
    13        -0.218555667019307    4.028e-08    0.009494    0.015758    0.015758    0.162905

    Iterations converged.


    Largest TIA Amplitudes:
              2  38         0.0100434689
              3  54         0.0100434684
              1   5        -0.0080406903
              1   3        -0.0073358741
              1  11         0.0068994681
              2  37        -0.0064253678
              3  53        -0.0064253612
              0   6         0.0056816023
              1   8        -0.0053022166
              3  57        -0.0050482528

    Largest TIjAb Amplitudes:
      1   1   3   3        -0.0342614354
      3   3  56  56        -0.0301354781
      2   2  40  40        -0.0301354780
      1   1   8   8        -0.0267624954
      3   3  53  53        -0.0244361890
      2   2  37  37        -0.0244361688
      1   1   3   8        -0.0244166960
      1   1   8   3        -0.0244166960
      2   2  30  30        -0.0235869248
      2   2   9   9        -0.0235869245

    SCF energy       (wfn)                    = -398.146283601408527
    Reference energy (file100)                = -398.146283601407902

    Opposite-spin MP2 correlation energy      =   -0.154524614125107
    Same-spin MP2 correlation energy          =   -0.045773267739849
    Singles MP2 correlation energy            =   -0.000000000000000
    MP2 correlation energy                    =   -0.200297881864956
      * MP2 total energy                      = -398.346581483272871

    Opposite-spin CCSD correlation energy     =   -0.175121285981820
    Same-spin CCSD correlation energy         =   -0.043434381037487
    Singles CCSD correlation energy           =    0.000000000000000
    CCSD correlation energy                   =   -0.218555667019307
      * CCSD total energy                     = -398.364839268427204

            **************************
            *                        *
            *        CCTRIPLES       *
            *                        *
            **************************


    Wave function   =    CCSD_T
    Reference wfn   =      RHF

    Nuclear Rep. energy (wfn)                =    6.320037169671187
    SCF energy          (wfn)                = -398.146283601408527
    Reference energy    (file100)            = -398.146283601407902
    CCSD energy         (file100)            =   -0.218555667019307
    Total CCSD energy   (file100)            = -398.364839268427204

    Number of ijk index combinations:               20
    Memory available in words        :     31250000000
    ~Words needed per explicit thread:           97556
    Number of threads for explicit ijk threading:   48

    (T) energy                                =   -0.010517096259729
      * CCSD(T) total energy                  = -398.375356364686922


    Psi4 stopped on: Tuesday, 26 January 2021 06:32PM
    Psi4 wall time for execution: 0:00:11.50

*** Psi4 exiting successfully. Buy a developer a beer!
