
    -----------------------------------------------------------------------
          Psi4: An Open-Source Ab Initio Electronic Structure Package
                               Psi4 1.4a3.dev88 

                         Git: Rev {master} 262e345 


    D. G. A. Smith, L. A. Burns, A. C. Simmonett, R. M. Parrish,
    M. C. Schieber, R. Galvelis, P. Kraus, H. Kruse, R. Di Remigio,
    A. Alenaizan, A. M. James, S. Lehtola, J. P. Misiewicz, M. Scheurer,
    R. A. Shaw, J. B. Schriber, Y. Xie, Z. L. Glick, D. A. Sirianni,
    J. S. O'Brien, J. M. Waldrop, A. Kumar, E. G. Hohenstein,
    B. P. Pritchard, B. R. Brooks, H. F. Schaefer III, A. Yu. Sokolov,
    K. Patkowski, A. E. DePrince III, U. Bozkaya, R. A. King,
    F. A. Evangelista, J. M. Turney, T. D. Crawford, C. D. Sherrill,
    J. Chem. Phys. 152(18) 184108 (2020). https://doi.org/10.1063/5.0006002

                            Additional Code Authors
    E. T. Seidl, C. L. Janssen, E. F. Valeev, M. L. Leininger,
    J. F. Gonthier, R. M. Richard, H. R. McAlexander, M. Saitow, X. Wang,
    P. Verma, and M. H. Lechner

             Previous Authors, Complete List of Code Contributors,
                       and Citations for Specific Modules
    https://github.com/psi4/psi4/blob/master/codemeta.json
    https://github.com/psi4/psi4/graphs/contributors
    http://psicode.org/psi4manual/master/introduction.html#citing-psifour

    -----------------------------------------------------------------------


    Psi4 started on: Tuesday, 26 January 2021 06:34PM

    Process ID: 409076
    Host:       n412-039.vsc4.prov
    PSIDATADIR: /home/fs71337/gallo4/psi4/eri-6/psi4/build/stage/share/psi4
    Memory:     500.0 MiB
    Threads:    48
    
  ==> Input File <==

--------------------------------------------------------------------------
# Any line starting with the # character is a comment line
memory 250000 mb
molecule molecule{
0 1
P          0.0000000000        0.0000000000        0.0676721068
H          1.1867955809        0.0000000000       -0.6931826617
H         -0.5933977905        1.0277951222       -0.6931826617
H         -0.5933977905       -1.0277951222       -0.6931826617
}

set {
  reference rhf
  basis aug-cc-pV(d+d)Z
  scf_type OUT_OF_CORE
  freeze_core true
}

energy('ccsd(t)')
--------------------------------------------------------------------------

  Memory set to 232.831 GiB by Python driver.

Scratch directory: /binfl/lv71337/airmler/temp/

*** tstart() called on n412-039.vsc4.prov
*** at Tue Jan 26 18:34:25 2021

   => Loading Basis Set <=

    Name: AUG-CC-PV(D+D)Z
    Role: ORBITAL
    Keyword: BASIS
    atoms 1   entry P          line   672 file /home/fs71337/gallo4/psi4/eri-6/psi4/build/stage/share/psi4/basis/aug-cc-pv_dpd_z.gbs 
    atoms 2-4 entry H          line    68 file /home/fs71337/gallo4/psi4/eri-6/psi4/build/stage/share/psi4/basis/aug-cc-pv_dpd_z.gbs 


         ---------------------------------------------------------
                                   SCF
               by Justin Turney, Rob Parrish, Andy Simmonett
                          and Daniel G. A. Smith
                              RHF Reference
                       48 Threads, 238418 MiB Core
         ---------------------------------------------------------

  ==> Geometry <==

    Molecular point group: cs
    Full point group: C3v

    Geometry (in Angstrom), charge = 0, multiplicity = 1:

       Center              X                  Y                   Z               Mass       
    ------------   -----------------  -----------------  -----------------  -----------------
         P           -0.000000000001    -0.067665070497     0.000000000000    30.973761998420
         H           -0.593397790457     0.693189698003     1.027795122191     1.007825032230
         H           -0.593397790457     0.693189698003    -1.027795122191     1.007825032230
         H            1.186795580959     0.693189698003     0.000000000000     1.007825032230

  Running in cs symmetry.

  Rotational constants: A =      4.52689  B =      4.52689  C =      3.95857 [cm^-1]
  Rotational constants: A = 135712.69443  B = 135712.69443  C = 118674.92404 [MHz]
  Nuclear repulsion =   17.663977166762152

  Charge       = 0
  Multiplicity = 1
  Electrons    = 18
  Nalpha       = 9
  Nbeta        = 9

  ==> Algorithm <==

  SCF Algorithm Type is OUT_OF_CORE.
  DIIS enabled.
  MOM disabled.
  Fractional occupation disabled.
  Guess Type is SAD.
  Energy threshold   = 1.00e-08
  Density threshold  = 1.00e-08
  Integral threshold = 1.00e-12

  ==> Primary Basis <==

  Basis Set: AUG-CC-PV(D+D)Z
    Blend: AUG-CC-PV(D+D)Z
    Number of shells: 27
    Number of basis function: 59
    Number of Cartesian functions: 62
    Spherical Harmonics?: true
    Max angular momentum: 2

  ==> Integral Setup <==

  ==> DiskJK: Disk-Based J/K Matrices <==

    J tasked:                  Yes
    K tasked:                  Yes
    wK tasked:                  No
    Memory [MiB]:           178813
    Schwarz Cutoff:          1E-12

  Minimum eigenvalue in the overlap matrix is 3.5089677225E-04.
  Reciprocal condition number of the overlap matrix is 5.8913028986E-05.
    Using symmetric orthogonalization.

  ==> Pre-Iterations <==

  SCF Guess: Superposition of Atomic Densities via on-the-fly atomic UHF (no occupation information).


 WARNING: Atomic UHF is not converging! Try casting from a smaller basis or call Rob at CCMST.

 WARNING: Atomic UHF is not converging! Try casting from a smaller basis or call Rob at CCMST.
   -------------------------
    Irrep   Nso     Nmo    
   -------------------------
     A'        38      38 
     A"        21      21 
   -------------------------
    Total      59      59
   -------------------------

  ==> Iterations <==

                        Total Energy        Delta E     RMS |[F,P]|

   @RHF iter SAD:  -340.27556322253042   -3.40276e+02   0.00000e+00 
   @RHF iter   1:  -342.41828308844140   -2.14272e+00   5.25417e-03 DIIS
   @RHF iter   2:  -342.47002397638875   -5.17409e-02   1.66166e-03 DIIS
   @RHF iter   3:  -342.47607246882990   -6.04849e-03   5.87597e-04 DIIS
   @RHF iter   4:  -342.47747744571529   -1.40498e-03   1.03197e-04 DIIS
   @RHF iter   5:  -342.47751910711281   -4.16614e-05   1.82179e-05 DIIS
   @RHF iter   6:  -342.47752016328474   -1.05617e-06   5.45446e-06 DIIS
   @RHF iter   7:  -342.47752029303388   -1.29749e-07   1.40025e-06 DIIS
   @RHF iter   8:  -342.47752030272096   -9.68708e-09   2.51543e-07 DIIS
   @RHF iter   9:  -342.47752030302956   -3.08603e-10   5.36560e-08 DIIS
   @RHF iter  10:  -342.47752030303684   -7.27596e-12   8.70580e-09 DIIS
  Energy and wave function converged.


  ==> Post-Iterations <==

    Orbital Energies [Eh]
    ---------------------

    Doubly Occupied:                                                      

       1Ap   -79.950412     2Ap    -7.491500     3Ap    -5.385520  
       1App   -5.385520     4Ap    -5.384113     5Ap    -0.857862  
       2App   -0.522514     6Ap    -0.522514     7Ap    -0.387154  

    Virtual:                                                              

       8Ap     0.034744     3App    0.070515     9Ap     0.070515  
      10Ap     0.098615     4App    0.098615    11Ap     0.102758  
      12Ap     0.167286    13Ap     0.208244     5App    0.208244  
      14Ap     0.262315     6App    0.264746    15Ap     0.264746  
      16Ap     0.362823     7App    0.392032    17Ap     0.392032  
       8App    0.474835     9App    0.478175    18Ap     0.478175  
      10App    0.489027    19Ap     0.489027    20Ap     0.499024  
      21Ap     0.555107    11App    0.613096    22Ap     0.613096  
      23Ap     0.834526    12App    0.846324    24Ap     0.846324  
      25Ap     0.899902    13App    0.932718    26Ap     0.932718  
      27Ap     0.978060    28Ap     0.989771    14App    0.989771  
      15App    1.251613    29Ap     1.251613    30Ap     1.499167  
      16App    1.778547    17App    1.814662    31Ap     1.814662  
      32Ap     1.997472    18App    1.997472    33Ap     2.035509  
      34Ap     2.355342    19App    2.394667    35Ap     2.394667  
      20App    4.411931    36Ap     4.411931    37Ap     4.416796  
      38Ap     4.510014    21App    4.510014  

    Final Occupation by Irrep:
             Ap   App 
    DOCC [     7,    2 ]

  @RHF Final Energy:  -342.47752030303684

   => Energetics <=

    Nuclear Repulsion Energy =             17.6639771667621517
    One-Electron Energy =                -508.5087809433686061
    Two-Electron Energy =                 148.3672834735695858
    Total Energy =                       -342.4775203030368402

Computation Completed


Properties will be evaluated at   0.000000,   0.000000,   0.000000 [a0]

Properties computed using the SCF density matrix

  Nuclear Dipole Moment: [e a0]
     X:     0.0000      Y:     2.0118      Z:     0.0000

  Electronic Dipole Moment: [e a0]
     X:    -0.0000      Y:    -1.7331      Z:     0.0000

  Dipole Moment: [e a0]
     X:    -0.0000      Y:     0.2787      Z:     0.0000     Total:     0.2787

  Dipole Moment: [D]
     X:    -0.0000      Y:     0.7083      Z:     0.0000     Total:     0.7083


*** tstop() called on n412-039.vsc4.prov at Tue Jan 26 18:34:28 2021
Module time:
	user time   =      22.50 seconds =       0.38 minutes
	system time =       1.58 seconds =       0.03 minutes
	total time  =          3 seconds =       0.05 minutes
Total time:
	user time   =      22.50 seconds =       0.38 minutes
	system time =       1.58 seconds =       0.03 minutes
	total time  =          3 seconds =       0.05 minutes

*** tstart() called on n412-039.vsc4.prov
*** at Tue Jan 26 18:34:28 2021


	Wfn Parameters:
	--------------------
	Wavefunction         = CCSD_T
	Number of irreps     = 2
	Number of MOs        = 59
	Number of active MOs = 54
	AO-Basis             = NONE
	Semicanonical        = false
	Reference            = RHF
	Print Level          = 1

	IRREP	# MOs	# FZDC	# DOCC	# SOCC	# VIRT	# FZVR
	-----	-----	------	------	------	------	------
	 Ap	   38	    4	    3	    0	    31	    0
	 App	   21	    1	    1	    0	    19	    0
	Transforming integrals...
	IWL integrals will be deleted.
	(OO|OO)...
	Presorting SO-basis two-electron integrals.
	Sorting File: SO Ints (nn|nn) nbuckets = 1
	Constructing frozen core operators
	Starting first half-transformation.
	Sorting half-transformed integrals.
	First half integral transformation complete.
	Starting second half-transformation.
	Two-electron integral transformation complete.
	(OO|OV)...
	Starting second half-transformation.
	Two-electron integral transformation complete.
	(OO|VV)...
	Starting second half-transformation.
	Two-electron integral transformation complete.
	(OV|OO)...
	Starting first half-transformation.
	Sorting half-transformed integrals.
	First half integral transformation complete.
	Starting second half-transformation.
	Two-electron integral transformation complete.
	(OV|OV)...
	Starting second half-transformation.
	Two-electron integral transformation complete.
	(OV|VV)...
	Starting second half-transformation.
	Two-electron integral transformation complete.
	(VV|OO)...
	Starting first half-transformation.
	Sorting half-transformed integrals.
	First half integral transformation complete.
	Starting second half-transformation.
	Two-electron integral transformation complete.
	(VV|OV)...
	Starting second half-transformation.
	Two-electron integral transformation complete.
	(VV|VV)...
	Starting second half-transformation.
	Two-electron integral transformation complete.
	Frozen core energy     =   -345.61769126188227

	Size of irrep 0 of <ab|cd> integrals:      1.748 (MW) /     13.981 (MB)
	Size of irrep 1 of <ab|cd> integrals:      1.388 (MW) /     11.101 (MB)
	Total:                                     3.135 (MW) /     25.083 (MB)

	Size of irrep 0 of <ia|bc> integrals:      0.148 (MW) /      1.185 (MB)
	Size of irrep 1 of <ia|bc> integrals:      0.104 (MW) /      0.829 (MB)
	Total:                                     0.252 (MW) /      2.014 (MB)

	Size of irrep 0 of tijab amplitudes:       0.013 (MW) /      0.106 (MB)
	Size of irrep 1 of tijab amplitudes:       0.007 (MW) /      0.057 (MB)
	Total:                                     0.020 (MW) /      0.162 (MB)

	Nuclear Rep. energy          =     17.66397716676215
	SCF energy                   =   -342.47752030303684
	One-electron energy          =    -24.46752650476274
	Two-electron energy          =      9.94372029684465
	Reference energy             =   -342.47752030303820

*** tstop() called on n412-039.vsc4.prov at Tue Jan 26 18:34:30 2021
Module time:
	user time   =       0.29 seconds =       0.00 minutes
	system time =       0.28 seconds =       0.00 minutes
	total time  =          2 seconds =       0.03 minutes
Total time:
	user time   =      22.79 seconds =       0.38 minutes
	system time =       1.86 seconds =       0.03 minutes
	total time  =          5 seconds =       0.08 minutes
            **************************
            *                        *
            *        CCENERGY        *
            *                        *
            **************************

    Nuclear Rep. energy (wfn)     =   17.663977166762152
    SCF energy          (wfn)     = -342.477520303036840
    Reference energy    (file100) = -342.477520303038204

    Input parameters:
    -----------------
    Wave function   =     CCSD_T
    Reference wfn   =     RHF
    Brueckner       =     No
    Memory (Mbytes) =     250000.0
    Maxiter         =     50
    R_Convergence   =     1.0e-07
    E_Convergence   =     1.0e-06
    Restart         =     Yes
    DIIS            =     Yes
    AO Basis        =     NONE
    ABCD            =     NEW
    Cache Level     =     2
    Cache Type      =     LOW
    Print Level     =     1
    Num. of threads =     48
    # Amps to Print =     10
    Print MP2 Amps? =     No
    Analyze T2 Amps =     No
    Print Pair Ener =     No
    Local CC        =     No
    SCS-MP2         =     False
    SCSN-MP2        =     False
    SCS-CCSD        =     False

MP2 correlation energy -0.1419554722787656
                Solving CC Amplitude Equations
                ------------------------------
  Iter             Energy              RMS        T1Diag      D1Diag    New D1Diag    D2Diag
  ----     ---------------------    ---------   ----------  ----------  ----------   --------
     0        -0.141955472278766    0.000e+00    0.000000    0.000000    0.000000    0.132761
     1        -0.163877684584690    5.306e-02    0.007445    0.011935    0.011935    0.158839
     2        -0.171447302755540    1.836e-02    0.011104    0.018034    0.018034    0.171283
     3        -0.171778306300452    4.304e-03    0.012312    0.020010    0.020010    0.173071
     4        -0.171795508826240    1.427e-03    0.012736    0.020683    0.020683    0.173546
     5        -0.171791348567448    3.994e-04    0.012854    0.020850    0.020850    0.173547
     6        -0.171790300818682    1.080e-04    0.012879    0.020886    0.020886    0.173534
     7        -0.171791357818561    3.550e-05    0.012883    0.020896    0.020896    0.173533
     8        -0.171791444343876    1.142e-05    0.012883    0.020899    0.020899    0.173533
     9        -0.171791281498922    3.140e-06    0.012883    0.020900    0.020900    0.173533
    10        -0.171791288838744    9.443e-07    0.012883    0.020900    0.020900    0.173534
    11        -0.171791302145838    2.785e-07    0.012883    0.020900    0.020900    0.173534
    12        -0.171791309025931    6.756e-08    0.012883    0.020900    0.020900    0.173534

    Iterations converged.


    Largest TIA Amplitudes:
              2   6        -0.0154641544
              1   5         0.0133471904
              3  33         0.0133471879
              1   2         0.0109431248
              3  32         0.0109431227
              2   8        -0.0092269293
              1  21        -0.0068441706
              3  43        -0.0068441706
              1  14         0.0059085342
              3  39         0.0059085338

    Largest TIjAb Amplitudes:
      2   2   5   5        -0.0355496374
      2   2  33  33        -0.0355496360
      3   3  33  33        -0.0333657595
      1   1   5   5        -0.0333657572
      2   2   6   6        -0.0318970417
      2   2   2   5        -0.0215935889
      2   2   5   2        -0.0215935889
      2   2  32  33        -0.0215935864
      2   2  33  32        -0.0215935864
      2   2  15  15        -0.0212141171

    SCF energy       (wfn)                    = -342.477520303036840
    Reference energy (file100)                = -342.477520303038204

    Opposite-spin MP2 correlation energy      =   -0.117810418273937
    Same-spin MP2 correlation energy          =   -0.024145054004828
    Singles MP2 correlation energy            =   -0.000000000000000
    MP2 correlation energy                    =   -0.141955472278766
      * MP2 total energy                      = -342.619475775316971

    Opposite-spin CCSD correlation energy     =   -0.146500698617343
    Same-spin CCSD correlation energy         =   -0.025290610408588
    Singles CCSD correlation energy           =    0.000000000000000
    CCSD correlation energy                   =   -0.171791309025931
      * CCSD total energy                     = -342.649311612064139

            **************************
            *                        *
            *        CCTRIPLES       *
            *                        *
            **************************


    Wave function   =    CCSD_T
    Reference wfn   =      RHF

    Nuclear Rep. energy (wfn)                =   17.663977166762152
    SCF energy          (wfn)                = -342.477520303036840
    Reference energy    (file100)            = -342.477520303038204
    CCSD energy         (file100)            =   -0.171791309025931
    Total CCSD energy   (file100)            = -342.649311612064139

    Number of ijk index combinations:               20
    Memory available in words        :     31250000000
    ~Words needed per explicit thread:          119164
    Number of threads for explicit ijk threading:   48

    (T) energy                                =   -0.004747761329903
      * CCSD(T) total energy                  = -342.654059373394034


    Psi4 stopped on: Tuesday, 26 January 2021 06:34PM
    Psi4 wall time for execution: 0:00:07.77

*** Psi4 exiting successfully. Buy a developer a beer!
