
    -----------------------------------------------------------------------
          Psi4: An Open-Source Ab Initio Electronic Structure Package
                               Psi4 1.2a1.dev939 

                         Git: Rev {HEAD} fa1ec19 


    R. M. Parrish, L. A. Burns, D. G. A. Smith, A. C. Simmonett,
    A. E. DePrince III, E. G. Hohenstein, U. Bozkaya, A. Yu. Sokolov,
    R. Di Remigio, R. M. Richard, J. F. Gonthier, A. M. James,
    H. R. McAlexander, A. Kumar, M. Saitow, X. Wang, B. P. Pritchard,
    P. Verma, H. F. Schaefer III, K. Patkowski, R. A. King, E. F. Valeev,
    F. A. Evangelista, J. M. Turney, T. D. Crawford, and C. D. Sherrill,
    J. Chem. Theory Comput. 13(7) pp 3185--3197 (2017).
    (doi: 10.1021/acs.jctc.7b00174)

    -----------------------------------------------------------------------


    Psi4 started on: Friday, 26 April 2019 06:05PM

    Process ID:  21665
    PSIDATADIR: /home/grueneis/src/psi4/objdir/stage/usr/local/psi4/share/psi4
    Memory:     500.0 MiB
    Threads:    1
    
  ==> Input File <==

--------------------------------------------------------------------------
# Any line starting with the # character is a comment line

memory 32000 mb

molecule molecule {
0 1
S          0.0000000000        0.0438015885       -0.5846592572
C          0.0000000000       -0.0114958136        1.2261415687
H          0.0000000000       -1.2752662122       -0.7816543571
H          0.0000000000        1.0231583645        1.5597948597
H          0.8921706266       -0.5020602051        1.6036026281
H         -0.8921706266       -0.5020602051        1.6036026281
}

set {
  reference rhf
  basis aug-cc-pv(T+d)z
  scf_type OUT_OF_CORE
  freeze_core true
}

energy('ccsd')
--------------------------------------------------------------------------

  Memory set to  29.802 GiB by Python driver.

*** tstart() called on cqc01
*** at Fri Apr 26 18:05:32 2019

   => Loading Basis Set <=

    Name: AUG-CC-PV(T+D)Z
    Role: ORBITAL
    Keyword: BASIS
    atoms 1   entry S          line   928 file /home/grueneis/src/psi4/objdir/stage/usr/local/psi4/share/psi4/basis/aug-cc-pv_tpd_z.gbs 
    atoms 2   entry C          line   255 file /home/grueneis/src/psi4/objdir/stage/usr/local/psi4/share/psi4/basis/aug-cc-pv_tpd_z.gbs 
    atoms 3-6 entry H          line    56 file /home/grueneis/src/psi4/objdir/stage/usr/local/psi4/share/psi4/basis/aug-cc-pv_tpd_z.gbs 


         ---------------------------------------------------------
                                   SCF
            by Justin Turney, Rob Parrish, Andy Simmonett
                             and Daniel Smith
                              RHF Reference
                        1 Threads,  30517 MiB Core
         ---------------------------------------------------------

  ==> Geometry <==

    Molecular point group: cs
    Full point group: Cs

    Geometry (in Angstrom), charge = 0, multiplicity = 1:

       Center              X                  Y                   Z               Mass       
    ------------   -----------------  -----------------  -----------------  -----------------
           S         -0.043876178055     0.585439676560     0.000000000000    31.972070999000
           C          0.011421224045    -1.225361149340     0.000000000000    12.000000000000
           H          1.275191622645     0.782434776460     0.000000000000     1.007825032070
           H         -1.023232954055    -1.559014440340     0.000000000000     1.007825032070
           H          0.501985615545    -1.602822208740     0.892170626600     1.007825032070
           H          0.501985615545    -1.602822208740    -0.892170626600     1.007825032070

  Running in cs symmetry.

  Rotational constants: A =      3.46190  B =      0.43419  C =      0.41638 [cm^-1]
  Rotational constants: A = 103785.25209  B =  13016.70012  C =  12482.77423 [MHz]
  Nuclear repulsion =   56.524325446601146

  Charge       = 0
  Multiplicity = 1
  Electrons    = 26
  Nalpha       = 13
  Nbeta        = 13

  ==> Algorithm <==

  SCF Algorithm Type is OUT_OF_CORE.
  DIIS enabled.
  MOM disabled.
  Fractional occupation disabled.
  Guess Type is SAD.
  Energy threshold   = 1.00e-08
  Density threshold  = 1.00e-08
  Integral threshold = 0.00e+00

  ==> Primary Basis <==

  Basis Set: AUG-CC-PV(T+D)Z
    Blend: AUG-CC-PV(T+D)Z
    Number of shells: 67
    Number of basis function: 193
    Number of Cartesian functions: 220
    Spherical Harmonics?: true
    Max angular momentum: 3

  ==> Pre-Iterations <==

   -------------------------------------------------------
    Irrep   Nso     Nmo     Nalpha   Nbeta   Ndocc  Nsocc
   -------------------------------------------------------
     A'       121     121       0       0       0       0
     A"        72      72       0       0       0       0
   -------------------------------------------------------
    Total     193     193      13      13      13       0
   -------------------------------------------------------

  ==> Integral Setup <==

  ==> DiskJK: Disk-Based J/K Matrices <==

    J tasked:                  Yes
    K tasked:                  Yes
    wK tasked:                  No
    Memory (MB):             22888
    Schwarz Cutoff:          1E-12

  Minimum eigenvalue in the overlap matrix is 6.9041949198E-05.
  Using Symmetric Orthogonalization.

  SCF Guess: Superposition of Atomic Densities via on-the-fly atomic UHF.

  ==> Iterations <==

                        Total Energy        Delta E     RMS |[F,P]|

   @RHF iter   0:  -438.10043628525290   -4.38100e+02   1.70858e-02 
   @RHF iter   1:  -437.69281242517593    4.07624e-01   2.01953e-03 
   @RHF iter   2:  -437.74920236075741   -5.63899e-02   8.84495e-04 DIIS
   @RHF iter   3:  -437.75792900144376   -8.72664e-03   2.47361e-04 DIIS
   @RHF iter   4:  -437.75963394425179   -1.70494e-03   7.93541e-05 DIIS
   @RHF iter   5:  -437.75981538295281   -1.81439e-04   2.78722e-05 DIIS
   @RHF iter   6:  -437.75983716494642   -2.17820e-05   6.97448e-06 DIIS
   @RHF iter   7:  -437.75983846217480   -1.29723e-06   1.43144e-06 DIIS
   @RHF iter   8:  -437.75983852511899   -6.29442e-08   3.72426e-07 DIIS
   @RHF iter   9:  -437.75983852941914   -4.30015e-09   1.07322e-07 DIIS
   @RHF iter  10:  -437.75983852986423   -4.45084e-10   3.04988e-08 DIIS
   @RHF iter  11:  -437.75983852989356   -2.93312e-11   7.54085e-09 DIIS

  ==> Post-Iterations <==

    Orbital Energies (a.u.)
    -----------------------

    Doubly Occupied:                                                      

       1Ap   -91.952026     2Ap   -11.256957     3Ap    -8.953142  
       4Ap    -6.634621     5Ap    -6.633607     1App   -6.632497  
       6Ap    -1.039083     7Ap    -0.867059     8Ap    -0.609518  
       2App   -0.593630     9Ap    -0.529103    10Ap    -0.460422  
       3App   -0.356947  

    Virtual:                                                              

      11Ap     0.029460    12Ap     0.040865     4App    0.046920  
      13Ap     0.051091    14Ap     0.085049    15Ap     0.097779  
      16Ap     0.115368     5App    0.116366     6App    0.133393  
      17Ap     0.135877    18Ap     0.139350    19Ap     0.175684  
       7App    0.196942    20Ap     0.211100    21Ap     0.218540  
      22Ap     0.244094     8App    0.262512    23Ap     0.269985  
      24Ap     0.286516     9App    0.287117    25Ap     0.320569  
      26Ap     0.332648    10App    0.333407    11App    0.343789  
      27Ap     0.368974    28Ap     0.378643    12App    0.389219  
      29Ap     0.391164    13App    0.406009    30Ap     0.406827  
      31Ap     0.418250    32Ap     0.431700    33Ap     0.439664  
      14App    0.440081    34Ap     0.451453    15App    0.462075  
      35Ap     0.481593    36Ap     0.496216    16App    0.497690  
      37Ap     0.633418    17App    0.635688    38Ap     0.659459  
      18App    0.673692    39Ap     0.690974    40Ap     0.705173  
      19App    0.719122    41Ap     0.769362    42Ap     0.799554  
      20App    0.815488    43Ap     0.833735    44Ap     0.838254  
      21App    0.849124    45Ap     0.866594    22App    0.868138  
      46Ap     0.888195    23App    0.912995    24App    0.934848  
      47Ap     0.941380    48Ap     0.958332    25App    0.976709  
      49Ap     0.982605    50Ap     0.992650    51Ap     1.014263  
      52Ap     1.022488    26App    1.031683    27App    1.074684  
      53Ap     1.079088    28App    1.086343    54Ap     1.095900  
      29App    1.110981    55Ap     1.123300    30App    1.169435  
      56Ap     1.175081    57Ap     1.201471    31App    1.214568  
      58Ap     1.251364    32App    1.269639    33App    1.301681  
      59Ap     1.305386    60Ap     1.322581    61Ap     1.345447  
      34App    1.375033    62Ap     1.389639    63Ap     1.470056  
      64Ap     1.568798    35App    1.587403    65Ap     1.610479  
      36App    1.634635    66Ap     1.638229    37App    1.655705  
      67Ap     1.671893    38App    1.676772    68Ap     1.696666  
      69Ap     1.705237    39App    1.738966    70Ap     1.745410  
      71Ap     1.797492    72Ap     1.882105    40App    1.925058  
      73Ap     1.937119    41App    1.988502    42App    2.003195  
      74Ap     2.066457    43App    2.105016    75Ap     2.114496  
      76Ap     2.157119    44App    2.173651    77Ap     2.192033  
      45App    2.214870    78Ap     2.303050    79Ap     2.338288  
      46App    2.450026    80Ap     2.482059    47App    2.540008  
      81Ap     2.576933    48App    2.639864    82Ap     2.645225  
      83Ap     2.689871    84Ap     2.754091    49App    2.813558  
      85Ap     3.017266    86Ap     3.056316    87Ap     3.088111  
      88Ap     3.344531    50App    3.351441    89Ap     3.507075  
      51App    3.526127    90Ap     3.579991    52App    3.589481  
      91Ap     3.591920    53App    3.610932    92Ap     3.645833  
      54App    3.767335    93Ap     3.786828    55App    3.923194  
      94Ap     3.934004    56App    3.997712    95Ap     4.006997  
      57App    4.073556    58App    4.099794    96Ap     4.100055  
      97Ap     4.123430    98Ap     4.163557    59App    4.200412  
      99Ap     4.241996    60App    4.349948   100Ap     4.432635  
      61App    4.472020   101Ap     4.480407    62App    4.497888  
     102Ap     4.541725   103Ap     4.549932   104Ap     4.656740  
     105Ap     4.700050    63App    4.756691   106Ap     4.785256  
     107Ap     4.896952    64App    4.912143    65App    4.962615  
     108Ap     4.999374   109Ap     5.124587    66App    5.169670  
     110Ap     5.235074   111Ap     5.274242    67App    5.545951  
     112Ap     5.565669   113Ap     5.577393    68App    5.614242  
     114Ap     5.953060   115Ap     6.064466    69App    6.079311  
      70App    6.610772   116Ap     6.653762   117Ap     6.971381  
      71App    7.465263    72App    7.512427   118Ap     7.584100  
     119Ap     8.066684   120Ap     8.626163   121Ap    16.965720  

    Final Occupation by Irrep:
             Ap   App 
    DOCC [    10,    3 ]

  Energy converged.

  @RHF Final Energy:  -437.75983852989356

   => Energetics <=

    Nuclear Repulsion Energy =             56.5243254466011464
    One-Electron Energy =                -715.5311060182490337
    Two-Electron Energy =                 221.2469420417544086
    Total Energy =                       -437.7598385298935000



Properties will be evaluated at   0.000000,   0.000000,   0.000000 Bohr

Properties computed using the SCF density matrix

  Nuclear Dipole Moment: (a.u.)
     X:     1.1762      Y:    -3.7178      Z:     0.0000

  Electronic Dipole Moment: (a.u.)
     X:    -0.8641      Y:     3.1443      Z:     0.0000

  Dipole Moment: (a.u.)
     X:     0.3121      Y:    -0.5735      Z:     0.0000     Total:     0.6529

  Dipole Moment: (Debye)
     X:     0.7933      Y:    -1.4576      Z:     0.0000     Total:     1.6595


*** tstop() called on cqc01 at Fri Apr 26 18:06:43 2019
Module time:
	user time   =      30.68 seconds =       0.51 minutes
	system time =       6.46 seconds =       0.11 minutes
	total time  =         71 seconds =       1.18 minutes
Total time:
	user time   =      30.68 seconds =       0.51 minutes
	system time =       6.46 seconds =       0.11 minutes
	total time  =         71 seconds =       1.18 minutes

*** tstart() called on cqc01
*** at Fri Apr 26 18:06:43 2019


	Wfn Parameters:
	--------------------
	Wavefunction         = CCSD
	Number of irreps     = 2
	Number of MOs        = 193
	Number of active MOs = 187
	AO-Basis             = NONE
	Semicanonical        = false
	Reference            = RHF
	Print Level          = 1

	IRREP	# MOs	# FZDC	# DOCC	# SOCC	# VIRT	# FZVR
	-----	-----	------	------	------	------	------
	 Ap	   121	    5	    5	    0	    111	    0
	 App	   72	    1	    2	    0	    69	    0
	Transforming integrals...
	IWL integrals will be deleted.
	(OO|OO)...
	Presorting SO-basis two-electron integrals.
	Sorting File: SO Ints (nn|nn) nbuckets = 1
	Transforming the one-electron integrals and constructing Fock matrices
	Starting first half-transformation.
	Sorting half-transformed integrals.
	First half integral transformation complete.
	Starting second half-transformation.
	Two-electron integral transformation complete.
	(OO|OV)...
	Starting second half-transformation.
	Two-electron integral transformation complete.
	(OO|VV)...
	Starting second half-transformation.
	Two-electron integral transformation complete.
	(OV|OO)...
	Starting first half-transformation.
	Sorting half-transformed integrals.
	First half integral transformation complete.
	Starting second half-transformation.
	Two-electron integral transformation complete.
	(OV|OV)...
	Starting second half-transformation.
	Two-electron integral transformation complete.
	(OV|VV)...
	Starting second half-transformation.
	Two-electron integral transformation complete.
	(VV|OO)...
	Starting first half-transformation.
	Sorting half-transformed integrals.
	First half integral transformation complete.
	Starting second half-transformation.
	Two-electron integral transformation complete.
	(VV|OV)...
	Starting second half-transformation.
	Two-electron integral transformation complete.
	(VV|VV)...
	Starting second half-transformation.
	Two-electron integral transformation complete.
	Frozen core energy     =   -454.88672477042257

	Size of irrep 0 of <ab|cd> integrals:    291.795 (MW) /   2334.358 (MB)
	Size of irrep 1 of <ab|cd> integrals:    234.641 (MW) /   1877.129 (MB)
	Total:                                   526.436 (MW) /   4211.487 (MB)

	Size of irrep 0 of <ia|bc> integrals:     11.838 (MW) /     94.703 (MB)
	Size of irrep 1 of <ia|bc> integrals:      8.685 (MW) /     69.482 (MB)
	Total:                                    20.523 (MW) /    164.185 (MB)

	Size of irrep 0 of tijab amplitudes:       0.495 (MW) /      3.963 (MB)
	Size of irrep 1 of tijab amplitudes:       0.306 (MW) /      2.451 (MB)
	Total:                                     0.802 (MW) /      6.414 (MB)

	Nuclear Rep. energy          =     56.52432544660115
	SCF energy                   =   -437.75983852989356
	One-electron energy          =    -69.88335477521761
	Two-electron energy          =     30.48591556914123
	Reference energy             =   -437.75983852989782

*** tstop() called on cqc01 at Fri Apr 26 18:12:36 2019
Module time:
	user time   =      56.27 seconds =       0.94 minutes
	system time =      50.16 seconds =       0.84 minutes
	total time  =        353 seconds =       5.88 minutes
Total time:
	user time   =      86.95 seconds =       1.45 minutes
	system time =      56.62 seconds =       0.94 minutes
	total time  =        424 seconds =       7.07 minutes

*** tstart() called on cqc01
*** at Fri Apr 26 18:12:36 2019

            **************************
            *                        *
            *        CCENERGY        *
            *                        *
            **************************

    Nuclear Rep. energy (wfn)     =   56.524325446601146
    SCF energy          (wfn)     = -437.759838529893557
    Reference energy    (file100) = -437.759838529897820

    Input parameters:
    -----------------
    Wave function   =     CCSD
    Reference wfn   =     RHF
    Brueckner       =     No
    Memory (Mbytes) =     32000.0
    Maxiter         =     50
    R_Convergence   =     1.0e-07
    E_Convergence   =     1.0e-06
    Restart         =     Yes
    DIIS            =     Yes
    AO Basis        =     NONE
    ABCD            =     NEW
    Cache Level     =     2
    Cache Type      =     LOW
    Print Level     =     1
    Num. of threads =     1
    # Amps to Print =     10
    Print MP2 Amps? =     No
    Analyze T2 Amps =     No
    Print Pair Ener =     No
    Local CC        =     No
    SCS-MP2         =     False
    SCSN-MP2        =     False
    SCS-CCSD        =     False

MP2 correlation energy -0.3706760136548860
                Solving CC Amplitude Equations
                ------------------------------
  Iter             Energy              RMS        T1Diag      D1Diag    New D1Diag    D2Diag
  ----     ---------------------    ---------   ----------  ----------  ----------   --------
     0        -0.370676013654513    0.000e+00    0.000000    0.000000    0.000000    0.141895
     1        -0.433441848276353    2.589e-01    0.014279    0.029821    0.029821    0.175881
     2        -0.408813410331077    3.885e-02    0.009511    0.020218    0.020218    0.164864
     3        -0.404422772766754    8.282e-03    0.009694    0.020857    0.020857    0.162175
     4        -0.404109690504392    1.934e-03    0.009539    0.020480    0.020480    0.161798
     5        -0.403968372856816    5.256e-04    0.009512    0.020435    0.020435    0.161624
     6        -0.403948078460480    1.467e-04    0.009508    0.020422    0.020422    0.161583
     7        -0.403953978319693    4.405e-05    0.009508    0.020417    0.020417    0.161578
     8        -0.403954682617183    1.322e-05    0.009508    0.020416    0.020416    0.161577
     9        -0.403953868826885    4.443e-06    0.009508    0.020416    0.020416    0.161576
    10        -0.403953871322917    1.511e-06    0.009508    0.020416    0.020416    0.161576
    11        -0.403953917120114    5.756e-07    0.009508    0.020416    0.020416    0.161576
    12        -0.403953923988535    2.059e-07    0.009508    0.020416    0.020416    0.161576
    13        -0.403953927378517    6.033e-08    0.009508    0.020416    0.020416    0.161576
    13        -0.403953927378517    6.033e-08    0.009508    0.020416    0.020416    0.161576

    Iterations converged.


    CCSD corr. energy   =   -0.403953927378517
    PPL corr. energy    =    0.106624865784157
    OS PPL corr. energy =    0.091524340481547
    SS PPL corr. energy =    0.015100525302619
    Largest TIA Amplitudes:
              4  33         0.0079194784
              6 115         0.0071339493
              2   9         0.0067239549
              4  11         0.0060265191
              4  23        -0.0059697134
              2  11         0.0055754392
              5 115         0.0054433063
              6 119        -0.0053529066
              5 121        -0.0048049555
              6 114         0.0045142021

    Largest TIjAb Amplitudes:
      4   4   9   9        -0.0375992229
      3   3   9   9        -0.0293434613
      6   6 126 126        -0.0249692463
      4   4  27  27        -0.0201281548
      5   5 121 121        -0.0189181950
      4   4  12  12        -0.0186418182
      6   6 119 119        -0.0185275275
      6   6  11  11        -0.0176219597
      6   6 125 125        -0.0175219339
      6   6 124 124        -0.0166416655

    SCF energy       (wfn)                    = -437.759838529893557
    Reference energy (file100)                = -437.759838529897820

    Opposite-spin MP2 correlation energy      =   -0.291715904420810
    Same-spin MP2 correlation energy          =   -0.078960109233703
    MP2 correlation energy                    =   -0.370676013654886
      * MP2 total energy                      = -438.130514543552692

    Opposite-spin CCSD correlation energy     =   -0.328589372417945
    Same-spin CCSD correlation energy         =   -0.075364558115692
    CCSD correlation energy                   =   -0.403953927378517
      * CCSD total energy                     = -438.163792457276315


*** tstop() called on cqc01 at Fri Apr 26 18:18:26 2019
Module time:
	user time   =      36.22 seconds =       0.60 minutes
	system time =      40.19 seconds =       0.67 minutes
	total time  =        350 seconds =       5.83 minutes
Total time:
	user time   =     123.17 seconds =       2.05 minutes
	system time =      96.81 seconds =       1.61 minutes
	total time  =        774 seconds =      12.90 minutes

*** Psi4 exiting successfully. Buy a developer a beer!
