
    -----------------------------------------------------------------------
          Psi4: An Open-Source Ab Initio Electronic Structure Package
                               Psi4 1.2a1.dev939 

                         Git: Rev {HEAD} fa1ec19 


    R. M. Parrish, L. A. Burns, D. G. A. Smith, A. C. Simmonett,
    A. E. DePrince III, E. G. Hohenstein, U. Bozkaya, A. Yu. Sokolov,
    R. Di Remigio, R. M. Richard, J. F. Gonthier, A. M. James,
    H. R. McAlexander, A. Kumar, M. Saitow, X. Wang, B. P. Pritchard,
    P. Verma, H. F. Schaefer III, K. Patkowski, R. A. King, E. F. Valeev,
    F. A. Evangelista, J. M. Turney, T. D. Crawford, and C. D. Sherrill,
    J. Chem. Theory Comput. 13(7) pp 3185--3197 (2017).
    (doi: 10.1021/acs.jctc.7b00174)

    -----------------------------------------------------------------------


    Psi4 started on: Saturday, 27 April 2019 10:36PM

    Process ID:   7777
    PSIDATADIR: /home/grueneis/src/psi4/objdir/stage/usr/local/psi4/share/psi4
    Memory:     500.0 MiB
    Threads:    1
    
  ==> Input File <==

--------------------------------------------------------------------------
# Any line starting with the # character is a comment line

memory 32000 mb

molecule molecule {
0 1
S          0.0000000000        0.0438015885       -0.5846592572
C          0.0000000000       -0.0114958136        1.2261415687
H          0.0000000000       -1.2752662122       -0.7816543571
H          0.0000000000        1.0231583645        1.5597948597
H          0.8921706266       -0.5020602051        1.6036026281
H         -0.8921706266       -0.5020602051        1.6036026281
}

set {
  reference rhf
  basis aug-cc-pv(Q+d)z
  scf_type OUT_OF_CORE
  freeze_core true
}

energy('ccsd')
--------------------------------------------------------------------------

  Memory set to  29.802 GiB by Python driver.

*** tstart() called on cqc01
*** at Sat Apr 27 22:36:20 2019

   => Loading Basis Set <=

    Name: AUG-CC-PV(Q+D)Z
    Role: ORBITAL
    Keyword: BASIS
    atoms 1   entry S          line  1148 file /home/grueneis/src/psi4/objdir/stage/usr/local/psi4/share/psi4/basis/aug-cc-pv_qpd_z.gbs 
    atoms 2   entry C          line   319 file /home/grueneis/src/psi4/objdir/stage/usr/local/psi4/share/psi4/basis/aug-cc-pv_qpd_z.gbs 
    atoms 3-6 entry H          line    56 file /home/grueneis/src/psi4/objdir/stage/usr/local/psi4/share/psi4/basis/aug-cc-pv_qpd_z.gbs 


         ---------------------------------------------------------
                                   SCF
            by Justin Turney, Rob Parrish, Andy Simmonett
                             and Daniel Smith
                              RHF Reference
                        1 Threads,  30517 MiB Core
         ---------------------------------------------------------

  ==> Geometry <==

    Molecular point group: cs
    Full point group: Cs

    Geometry (in Angstrom), charge = 0, multiplicity = 1:

       Center              X                  Y                   Z               Mass       
    ------------   -----------------  -----------------  -----------------  -----------------
           S         -0.043876178055     0.585439676560     0.000000000000    31.972070999000
           C          0.011421224045    -1.225361149340     0.000000000000    12.000000000000
           H          1.275191622645     0.782434776460     0.000000000000     1.007825032070
           H         -1.023232954055    -1.559014440340     0.000000000000     1.007825032070
           H          0.501985615545    -1.602822208740     0.892170626600     1.007825032070
           H          0.501985615545    -1.602822208740    -0.892170626600     1.007825032070

  Running in cs symmetry.

  Rotational constants: A =      3.46190  B =      0.43419  C =      0.41638 [cm^-1]
  Rotational constants: A = 103785.25209  B =  13016.70012  C =  12482.77423 [MHz]
  Nuclear repulsion =   56.524325446601146

  Charge       = 0
  Multiplicity = 1
  Electrons    = 26
  Nalpha       = 13
  Nbeta        = 13

  ==> Algorithm <==

  SCF Algorithm Type is OUT_OF_CORE.
  DIIS enabled.
  MOM disabled.
  Fractional occupation disabled.
  Guess Type is SAD.
  Energy threshold   = 1.00e-08
  Density threshold  = 1.00e-08
  Integral threshold = 0.00e+00

  ==> Primary Basis <==

  Basis Set: AUG-CC-PV(Q+D)Z
    Blend: AUG-CC-PV(Q+D)Z
    Number of shells: 99
    Number of basis function: 353
    Number of Cartesian functions: 440
    Spherical Harmonics?: true
    Max angular momentum: 4

  ==> Pre-Iterations <==

   -------------------------------------------------------
    Irrep   Nso     Nmo     Nalpha   Nbeta   Ndocc  Nsocc
   -------------------------------------------------------
     A'       212     212       0       0       0       0
     A"       141     141       0       0       0       0
   -------------------------------------------------------
    Total     353     353      13      13      13       0
   -------------------------------------------------------

  ==> Integral Setup <==

  ==> DiskJK: Disk-Based J/K Matrices <==

    J tasked:                  Yes
    K tasked:                  Yes
    wK tasked:                  No
    Memory (MB):             22888
    Schwarz Cutoff:          1E-12

  Minimum eigenvalue in the overlap matrix is 1.5453543899E-05.
  Using Symmetric Orthogonalization.

  SCF Guess: Superposition of Atomic Densities via on-the-fly atomic UHF.

  ==> Iterations <==

                        Total Energy        Delta E     RMS |[F,P]|

   @RHF iter   0:  -438.15468173158200   -4.38155e+02   9.43464e-03 
   @RHF iter   1:  -437.70698553175993    4.47696e-01   1.05003e-03 
   @RHF iter   2:  -437.75805556950934   -5.10700e-02   3.78565e-04 DIIS
   @RHF iter   3:  -437.76417377633004   -6.11821e-03   1.25085e-04 DIIS
   @RHF iter   4:  -437.76541877788259   -1.24500e-03   3.01924e-05 DIIS
   @RHF iter   5:  -437.76552424319885   -1.05465e-04   7.44050e-06 DIIS
   @RHF iter   6:  -437.76553034820483   -6.10501e-06   2.49668e-06 DIIS
   @RHF iter   7:  -437.76553094251614   -5.94311e-07   6.57282e-07 DIIS
   @RHF iter   8:  -437.76553098737361   -4.48575e-08   2.40105e-07 DIIS
   @RHF iter   9:  -437.76553099186214   -4.48853e-09   4.88834e-08 DIIS
   @RHF iter  10:  -437.76553099211537   -2.53237e-10   1.24484e-08 DIIS
   @RHF iter  11:  -437.76553099213174   -1.63709e-11   3.96929e-09 DIIS

  ==> Post-Iterations <==

    Orbital Energies (a.u.)
    -----------------------

    Doubly Occupied:                                                      

       1Ap   -91.949967     2Ap   -11.255729     3Ap    -8.952356  
       4Ap    -6.634057     5Ap    -6.633103     1App   -6.632124  
       6Ap    -1.038829     7Ap    -0.866928     8Ap    -0.609551  
       2App   -0.593720     9Ap    -0.529142    10Ap    -0.460465  
       3App   -0.357038  

    Virtual:                                                              

      11Ap     0.026155    12Ap     0.036788     4App    0.042187  
      13Ap     0.045523    14Ap     0.072170    15Ap     0.083812  
       5App    0.094905    16Ap     0.096383     6App    0.114578  
      17Ap     0.118869    18Ap     0.122891    19Ap     0.149495  
       7App    0.168944    20Ap     0.183749    21Ap     0.185527  
      22Ap     0.216205     8App    0.222797    23Ap     0.231142  
      24Ap     0.235166     9App    0.242097    25Ap     0.255856  
      10App    0.261511    26Ap     0.265989    11App    0.274982  
      27Ap     0.290282    12App    0.295093    28Ap     0.304945  
      29Ap     0.312611    30Ap     0.314633    13App    0.323724  
      31Ap     0.331417    32Ap     0.338007    14App    0.342865  
      33Ap     0.345588    15App    0.368306    34Ap     0.369267  
      16App    0.391963    35Ap     0.391969    36Ap     0.405535  
      37Ap     0.471696    38Ap     0.492684    17App    0.497579  
      39Ap     0.498417    18App    0.505462    19App    0.523452  
      40Ap     0.540690    41Ap     0.589182    42Ap     0.595279  
      20App    0.599799    21App    0.632508    43Ap     0.639378  
      44Ap     0.640664    45Ap     0.659483    22App    0.671051  
      46Ap     0.678933    23App    0.689348    47Ap     0.695405  
      24App    0.702164    48Ap     0.707855    25App    0.719943  
      49Ap     0.733293    50Ap     0.744348    26App    0.761098  
      51Ap     0.761431    27App    0.786859    52Ap     0.791996  
      28App    0.792338    53Ap     0.793759    54Ap     0.808759  
      29App    0.821386    30App    0.829147    55Ap     0.835313  
      56Ap     0.860632    57Ap     0.894766    31App    0.897038  
      58Ap     0.916289    59Ap     0.940825    32App    0.944597  
      33App    0.976469    60Ap     0.988385    61Ap     1.003165  
      62Ap     1.024499    63Ap     1.053263    34App    1.062229  
      64Ap     1.081231    65Ap     1.117336    35App    1.133970  
      66Ap     1.158359    36App    1.162252    37App    1.169137  
      67Ap     1.179610    68Ap     1.191844    69Ap     1.215058  
      70Ap     1.241856    38App    1.247059    71Ap     1.286637  
      39App    1.296283    40App    1.356710    72Ap     1.389764  
      41App    1.405091    73Ap     1.433035    42App    1.450032  
      74Ap     1.487781    75Ap     1.500411    43App    1.508050  
      76Ap     1.520274    77Ap     1.532737    44App    1.557344  
      78Ap     1.557837    45App    1.611371    79Ap     1.620581  
      80Ap     1.651101    46App    1.656201    47App    1.667025  
      81Ap     1.670071    82Ap     1.695235    48App    1.697632  
      83Ap     1.738364    49App    1.739388    84Ap     1.751570  
      85Ap     1.777142    50App    1.800757    51App    1.814191  
      86Ap     1.818965    87Ap     1.850712    52App    1.854485  
      53App    1.880452    88Ap     1.885619    89Ap     1.890124  
      90Ap     1.928039    91Ap     1.938281    54App    1.947308  
      92Ap     1.968795    55App    1.971325    93Ap     1.990594  
      56App    1.993056    57App    1.998401    94Ap     2.009406  
      95Ap     2.030594    58App    2.050283    96Ap     2.060201  
      59App    2.081165    97Ap     2.118476    60App    2.137537  
      98Ap     2.138382    61App    2.155567    99Ap     2.168515  
      62App    2.191783   100Ap     2.219467   101Ap     2.242462  
      63App    2.249554   102Ap     2.266036   103Ap     2.300443  
      64App    2.307018   104Ap     2.327739    65App    2.340037  
     105Ap     2.342695   106Ap     2.387938    66App    2.395831  
     107Ap     2.414476    67App    2.428924   108Ap     2.477659  
     109Ap     2.561013   110Ap     2.570671    68App    2.599911  
     111Ap     2.628106    69App    2.656508    70App    2.715770  
     112Ap     2.722249   113Ap     2.757238    71App    2.796569  
     114Ap     2.800727    72App    2.813456   115Ap     2.815542  
      73App    2.842891   116Ap     2.901870    74App    2.952318  
     117Ap     2.981909   118Ap     3.025031    75App    3.029229  
     119Ap     3.043353    76App    3.046056   120Ap     3.069598  
      77App    3.073983   121Ap     3.088001   122Ap     3.150759  
     123Ap     3.184758   124Ap     3.196593    78App    3.212008  
     125Ap     3.220208    79App    3.253637    80App    3.328395  
     126Ap     3.337995   127Ap     3.372631    81App    3.493124  
     128Ap     3.551996    82App    3.603167   129Ap     3.603398  
      83App    3.654167   130Ap     3.658266    84App    3.711106  
     131Ap     3.713927   132Ap     3.730348    85App    3.770681  
     133Ap     3.788096   134Ap     3.802592    86App    3.847459  
      87App    3.871552   135Ap     3.880007    88App    3.960327  
     136Ap     3.970607    89App    3.983530   137Ap     3.992821  
     138Ap     4.033106    90App    4.039855   139Ap     4.099370  
     140Ap     4.107557    91App    4.114038   141Ap     4.136001  
     142Ap     4.152578    92App    4.182894   143Ap     4.252183  
      93App    4.252646   144Ap     4.310181   145Ap     4.346252  
      94App    4.357450    95App    4.454144   146Ap     4.466496  
     147Ap     4.504273    96App    4.512617   148Ap     4.548412  
     149Ap     4.591519    97App    4.633686   150Ap     4.708019  
     151Ap     4.762248    98App    4.763421   152Ap     4.855949  
      99App    4.955610   153Ap     4.959672   100App    5.021711  
     154Ap     5.052295   155Ap     5.197162   101App    6.120617  
     156Ap     6.156307   102App    6.222104   157Ap     6.273414  
     103App    6.312064   104App    6.365368   158Ap     6.368033  
     159Ap     6.434905   160Ap     6.584375   105App    6.609000  
     161Ap     6.720697   106App    6.730728   107App    6.743724  
     162Ap     6.747105   108App    6.774746   163Ap     6.786187  
     109App    6.856713   110App    6.925719   164Ap     6.950192  
     165Ap     6.985046   111App    6.987273   112App    7.060157  
     166Ap     7.084803   113App    7.117334   167Ap     7.126327  
     168Ap     7.171369   169Ap     7.184442   114App    7.212219  
     170Ap     7.308719   171Ap     7.313428   172Ap     7.454825  
     115App    7.489432   173Ap     7.501770   174Ap     7.596726  
     116App    7.606108   117App    7.651276   175Ap     7.683002  
     118App    7.728456   176Ap     7.739382   177Ap     7.792079  
     178Ap     7.917805   119App    7.942607   179Ap     7.957183  
     180Ap     8.276801   181Ap     8.296129   120App    8.339185  
     182Ap     8.352582   121App    8.388288   183Ap     8.422099  
     184Ap     8.497803   122App    8.628325   185Ap     8.643031  
     123App    8.690515   124App    8.750118   186Ap     8.830282  
     187Ap     8.888770   188Ap     8.923498   189Ap     8.952783  
     125App    8.974844   126App    9.059710   127App    9.196376  
     190Ap     9.208841   191Ap     9.235100   128App    9.245394  
     129App    9.332842   130App    9.398300   192Ap     9.449659  
     131App    9.491931   193Ap     9.522845   194Ap     9.540679  
     195Ap     9.620605   196Ap     9.634631   132App    9.667997  
     133App    9.743670   197Ap     9.766024   134App    9.852332  
     198Ap     9.867608   199Ap     9.931719   200Ap     9.987611  
     135App   10.029127   136App   10.157039   201Ap    10.205297  
     202Ap    10.393642   137App   10.410656   203Ap    10.427468  
     204Ap    10.458457   205Ap    10.822610   138App   10.823560  
     206Ap    10.920454   139App   11.038567   207Ap    11.085207  
     140App   11.468184   208Ap    11.546719   141App   13.203609  
     209Ap    13.205875   210Ap    13.329249   211Ap    22.280116  
     212Ap    28.629173  

    Final Occupation by Irrep:
             Ap   App 
    DOCC [    10,    3 ]

  Energy converged.

  @RHF Final Energy:  -437.76553099213174

   => Energetics <=

    Nuclear Repulsion Energy =             56.5243254466011464
    One-Electron Energy =                -715.5536913277801432
    Two-Electron Energy =                 221.2638348890472741
    Total Energy =                       -437.7655309921317439



Properties will be evaluated at   0.000000,   0.000000,   0.000000 Bohr

Properties computed using the SCF density matrix

  Nuclear Dipole Moment: (a.u.)
     X:     1.1762      Y:    -3.7178      Z:     0.0000

  Electronic Dipole Moment: (a.u.)
     X:    -0.8652      Y:     3.1455      Z:     0.0000

  Dipole Moment: (a.u.)
     X:     0.3110      Y:    -0.5722      Z:     0.0000     Total:     0.6513

  Dipole Moment: (Debye)
     X:     0.7906      Y:    -1.4545      Z:     0.0000     Total:     1.6554


*** tstop() called on cqc01 at Sat Apr 27 22:52:27 2019
Module time:
	user time   =     323.56 seconds =       5.39 minutes
	system time =      67.61 seconds =       1.13 minutes
	total time  =        967 seconds =      16.12 minutes
Total time:
	user time   =     323.56 seconds =       5.39 minutes
	system time =      67.61 seconds =       1.13 minutes
	total time  =        967 seconds =      16.12 minutes

*** tstart() called on cqc01
*** at Sat Apr 27 22:52:27 2019


	Wfn Parameters:
	--------------------
	Wavefunction         = CCSD
	Number of irreps     = 2
	Number of MOs        = 353
	Number of active MOs = 347
	AO-Basis             = NONE
	Semicanonical        = false
	Reference            = RHF
	Print Level          = 1

	IRREP	# MOs	# FZDC	# DOCC	# SOCC	# VIRT	# FZVR
	-----	-----	------	------	------	------	------
	 Ap	   212	    5	    5	    0	    202	    0
	 App	   141	    1	    2	    0	    138	    0
	Transforming integrals...
	IWL integrals will be deleted.
	(OO|OO)...
	Presorting SO-basis two-electron integrals.
	Sorting File: SO Ints (nn|nn) nbuckets = 1
	Transforming the one-electron integrals and constructing Fock matrices
	Starting first half-transformation.
	Sorting half-transformed integrals.
	First half integral transformation complete.
	Starting second half-transformation.
	Two-electron integral transformation complete.
	(OO|OV)...
	Starting second half-transformation.
	Two-electron integral transformation complete.
	(OO|VV)...
	Starting second half-transformation.
	Two-electron integral transformation complete.
	(OV|OO)...
	Starting first half-transformation.
	Sorting half-transformed integrals.
	First half integral transformation complete.
	Starting second half-transformation.
	Two-electron integral transformation complete.
	(OV|OV)...
	Starting second half-transformation.
	Two-electron integral transformation complete.
	(OV|VV)...
	Starting second half-transformation.
	Two-electron integral transformation complete.
	(VV|OO)...
	Starting first half-transformation.
	Sorting half-transformed integrals.
	First half integral transformation complete.
	Starting second half-transformation.
	Two-electron integral transformation complete.
	(VV|OV)...
	Starting second half-transformation.
	Two-electron integral transformation complete.
	(VV|VV)...
	Starting second half-transformation.
	Two-electron integral transformation complete.
	Frozen core energy     =   -454.88978487956899

	Size of irrep 0 of <ab|cd> integrals:   3581.783 (MW) /  28654.265 (MB)
	Size of irrep 1 of <ab|cd> integrals:   3108.286 (MW) /  24866.284 (MB)
	Total:                                  6690.069 (MW) /  53520.549 (MB)

	Size of irrep 0 of <ia|bc> integrals:     76.965 (MW) /    615.716 (MB)
	Size of irrep 1 of <ia|bc> integrals:     60.993 (MW) /    487.942 (MB)
	Total:                                   137.957 (MW) /   1103.658 (MB)

	Size of irrep 0 of tijab amplitudes:       1.736 (MW) /     13.885 (MB)
	Size of irrep 1 of tijab amplitudes:       1.115 (MW) /      8.920 (MB)
	Total:                                     2.851 (MW) /     22.805 (MB)

	Nuclear Rep. energy          =     56.52432544660115
	SCF energy                   =   -437.76553099213174
	One-electron energy          =    -69.88879414448662
	Two-electron energy          =     30.48872258531894
	Reference energy             =   -437.76553099213555

*** tstop() called on cqc01 at Sun Apr 28 01:54:02 2019
Module time:
	user time   =    1035.19 seconds =      17.25 minutes
	system time =     288.60 seconds =       4.81 minutes
	total time  =      10895 seconds =     181.58 minutes
Total time:
	user time   =    1358.75 seconds =      22.65 minutes
	system time =     356.21 seconds =       5.94 minutes
	total time  =      11862 seconds =     197.70 minutes

*** tstart() called on cqc01
*** at Sun Apr 28 01:54:02 2019

            **************************
            *                        *
            *        CCENERGY        *
            *                        *
            **************************

    Nuclear Rep. energy (wfn)     =   56.524325446601146
    SCF energy          (wfn)     = -437.765530992131744
    Reference energy    (file100) = -437.765530992135552

    Input parameters:
    -----------------
    Wave function   =     CCSD
    Reference wfn   =     RHF
    Brueckner       =     No
    Memory (Mbytes) =     32000.0
    Maxiter         =     50
    R_Convergence   =     1.0e-07
    E_Convergence   =     1.0e-06
    Restart         =     Yes
    DIIS            =     Yes
    AO Basis        =     NONE
    ABCD            =     NEW
    Cache Level     =     2
    Cache Type      =     LOW
    Print Level     =     1
    Num. of threads =     1
    # Amps to Print =     10
    Print MP2 Amps? =     No
    Analyze T2 Amps =     No
    Print Pair Ener =     No
    Local CC        =     No
    SCS-MP2         =     False
    SCSN-MP2        =     False
    SCS-CCSD        =     False

MP2 correlation energy -0.3935696317510879
                Solving CC Amplitude Equations
                ------------------------------
  Iter             Energy              RMS        T1Diag      D1Diag    New D1Diag    D2Diag
  ----     ---------------------    ---------   ----------  ----------  ----------   --------
     0        -0.393569631750807    0.000e+00    0.000000    0.000000    0.000000    0.143595
     1        -0.447143128246253    2.701e-01    0.014841    0.029687    0.029687    0.174209
     2        -0.427932759440983    3.919e-02    0.009578    0.019639    0.019639    0.164954
     3        -0.422707509833341    9.160e-03    0.009858    0.020443    0.020443    0.161963
     4        -0.422315657257718    2.067e-03    0.009696    0.020050    0.020050    0.161541
     5        -0.422195946969339    5.500e-04    0.009670    0.020009    0.020009    0.161369
     6        -0.422171110517187    1.564e-04    0.009668    0.019995    0.019995    0.161323
     7        -0.422175062216592    4.805e-05    0.009668    0.019989    0.019989    0.161315
     8        -0.422176579681926    1.435e-05    0.009668    0.019987    0.019987    0.161314
     9        -0.422175850693979    4.856e-06    0.009668    0.019987    0.019987    0.161313
    10        -0.422175766937187    1.668e-06    0.009668    0.019987    0.019987    0.161313
    11        -0.422175813922462    6.465e-07    0.009668    0.019987    0.019987    0.161313
    12        -0.422175825814875    2.413e-07    0.009668    0.019987    0.019987    0.161313
    13        -0.422175830320056    7.078e-08    0.009668    0.019987    0.019987    0.161313
    13        -0.422175830320056    7.078e-08    0.009668    0.019987    0.019987    0.161313

    Iterations converged.


    CCSD corr. energy   =   -0.422175830320056
    PPL corr. energy    =    0.116544893124710
    OS PPL corr. energy =    0.100743082605187
    SS PPL corr. energy =    0.015801810519518
    Largest TIA Amplitudes:
              6 216         0.0074802841
              6 206        -0.0064770335
              2  23         0.0061390909
              2   9        -0.0060575296
              5 213         0.0057278201
              4  11         0.0056399859
              3  10         0.0054701723
              2  11         0.0050253251
              4  27        -0.0049709678
              4  32        -0.0045976676

    Largest TIjAb Amplitudes:
      6   6 217 217        -0.0253550087
      5   5 213 213        -0.0213805083
      6   6 216 216        -0.0209860820
      4   4   9   9        -0.0206585109
      4   4  10  10        -0.0187979224
      6   6 215 215        -0.0186049576
      3   3   9   9        -0.0180410961
      4   4  28  28        -0.0168751186
      4   4   9  10         0.0163130498
      4   4  10   9         0.0163130498

    SCF energy       (wfn)                    = -437.765530992131744
    Reference energy (file100)                = -437.765530992135552

    Opposite-spin MP2 correlation energy      =   -0.312462195970433
    Same-spin MP2 correlation energy          =   -0.081107435780373
    MP2 correlation energy                    =   -0.393569631751088
      * MP2 total energy                      = -438.159100623886616

    Opposite-spin CCSD correlation energy     =   -0.344978700477909
    Same-spin CCSD correlation energy         =   -0.077197131353653
    CCSD correlation energy                   =   -0.422175830320056
      * CCSD total energy                     = -438.187706822455596


*** tstop() called on cqc01 at Sun Apr 28 02:30:55 2019
Module time:
	user time   =     356.62 seconds =       5.94 minutes
	system time =     381.21 seconds =       6.35 minutes
	total time  =       2213 seconds =      36.88 minutes
Total time:
	user time   =    1715.37 seconds =      28.59 minutes
	system time =     737.44 seconds =      12.29 minutes
	total time  =      14075 seconds =     234.58 minutes

*** Psi4 exiting successfully. Buy a developer a beer!
