
    -----------------------------------------------------------------------
          Psi4: An Open-Source Ab Initio Electronic Structure Package
                               Psi4 1.2a1.dev938 

                         Git: Rev {HEAD} fc51d9a dirty


    R. M. Parrish, L. A. Burns, D. G. A. Smith, A. C. Simmonett,
    A. E. DePrince III, E. G. Hohenstein, U. Bozkaya, A. Yu. Sokolov,
    R. Di Remigio, R. M. Richard, J. F. Gonthier, A. M. James,
    H. R. McAlexander, A. Kumar, M. Saitow, X. Wang, B. P. Pritchard,
    P. Verma, H. F. Schaefer III, K. Patkowski, R. A. King, E. F. Valeev,
    F. A. Evangelista, J. M. Turney, T. D. Crawford, and C. D. Sherrill,
    J. Chem. Theory Comput. 13(7) pp 3185--3197 (2017).
    (doi: 10.1021/acs.jctc.7b00174)

    -----------------------------------------------------------------------


    Psi4 started on: Thursday, 20 August 2020 08:11PM

    Process ID: 424132
    PSIDATADIR: /home/irmler/Programs/psi4/beforeGrueneis3/stage/usr/local/psi4/share/psi4
    Memory:     500.0 MiB
    Threads:    4
    
  ==> Input File <==

--------------------------------------------------------------------------
# Any line starting with the # character is a comment line
memory 250000 mb
molecule molecule{
1 2
C          0.0000000000        0.0000000000        0.0000000000
}

set {
  reference uhf
  basis aug-cc-pv(t+d)z
  scf_type OUT_OF_CORE
  freeze_core true
}

energy('ccsd')
--------------------------------------------------------------------------

  Memory set to 232.831 GiB by Python driver.

*** tstart() called on cqc05
*** at Thu Aug 20 20:11:06 2020

   => Loading Basis Set <=

    Name: AUG-CC-PV(T+D)Z
    Role: ORBITAL
    Keyword: BASIS
    atoms 1 entry C          line   255 file /home/irmler/Programs/psi4/beforeGrueneis3/stage/usr/local/psi4/share/psi4/basis/aug-cc-pv_tpd_z.gbs 


         ---------------------------------------------------------
                                   SCF
            by Justin Turney, Rob Parrish, Andy Simmonett
                             and Daniel Smith
                              UHF Reference
                        4 Threads, 238418 MiB Core
         ---------------------------------------------------------

  ==> Geometry <==

    Molecular point group: d2h
    Geometry (in Angstrom), charge = 1, multiplicity = 2:

       Center              X                  Y                   Z               Mass       
    ------------   -----------------  -----------------  -----------------  -----------------
           C          0.000000000000     0.000000000000     0.000000000000    12.000000000000

  Running in d2h symmetry.

  Rotational constants: A = ************  B = ************  C = ************ [cm^-1]
  Rotational constants: A = ************  B = ************  C = ************ [MHz]
  Nuclear repulsion =    0.000000000000000

  Charge       = 1
  Multiplicity = 2
  Electrons    = 5
  Nalpha       = 3
  Nbeta        = 2

  ==> Algorithm <==

  SCF Algorithm Type is OUT_OF_CORE.
  DIIS enabled.
  MOM disabled.
  Fractional occupation disabled.
  Guess Type is GWH.
  Energy threshold   = 1.00e-08
  Density threshold  = 1.00e-08
  Integral threshold = 0.00e+00

  ==> Primary Basis <==

  Basis Set: AUG-CC-PV(T+D)Z
    Blend: AUG-CC-PV(T+D)Z
    Number of shells: 14
    Number of basis function: 46
    Number of Cartesian functions: 55
    Spherical Harmonics?: true
    Max angular momentum: 3

  ==> Pre-Iterations <==

   -------------------------------------------------------
    Irrep   Nso     Nmo     Nalpha   Nbeta   Ndocc  Nsocc
   -------------------------------------------------------
     Ag        11      11       0       0       0       0
     B1g        3       3       0       0       0       0
     B2g        3       3       0       0       0       0
     B3g        3       3       0       0       0       0
     Au         2       2       0       0       0       0
     B1u        8       8       0       0       0       0
     B2u        8       8       0       0       0       0
     B3u        8       8       0       0       0       0
   -------------------------------------------------------
    Total      46      46       3       2       2       1
   -------------------------------------------------------

  ==> Integral Setup <==

  ==> DiskJK: Disk-Based J/K Matrices <==

    J tasked:                  Yes
    K tasked:                  Yes
    wK tasked:                  No
    Memory (MB):            178813
    Schwarz Cutoff:          1E-12

  Minimum eigenvalue in the overlap matrix is 2.5247151994E-02.
  Using Symmetric Orthogonalization.

  SCF Guess: Generalized Wolfsberg-Helmholtz.

  ==> Iterations <==

                        Total Energy        Delta E     RMS |[F,P]|

   @UHF iter   1:   -36.71592084277179   -3.67159e+01   1.24759e-01 
   @UHF iter   2:   -37.28618026191670   -5.70259e-01   1.15882e-02 DIIS
   @UHF iter   3:   -37.29466513492194   -8.48487e-03   1.30569e-03 DIIS
   @UHF iter   4:   -37.29494111923108   -2.75984e-04   3.01922e-04 DIIS
   @UHF iter   5:   -37.29495935731413   -1.82381e-05   4.59517e-05 DIIS
   @UHF iter   6:   -37.29495983467145   -4.77357e-07   6.03987e-06 DIIS
   @UHF iter   7:   -37.29495984140856   -6.73710e-09   4.39207e-07 DIIS
   @UHF iter   8:   -37.29495984143968   -3.11289e-11   1.98116e-08 DIIS
   @UHF iter   9:   -37.29495984143971   -2.13163e-14   1.95644e-09 DIIS

  ==> Post-Iterations <==

   @Spin Contamination Metric:   6.611349486E-03
   @S^2 Expected:                7.500000000E-01
   @S^2 Observed:                7.566113495E-01
   @S   Expected:                5.000000000E-01
   @S   Observed:                5.000000000E-01

    Orbital Energies (a.u.)
    -----------------------

    Alpha Occupied:                                                       

       1Ag   -11.912535     2Ag    -1.224119     1B1u   -0.913509  

    Alpha Virtual:                                                        

       1B2u   -0.362239     1B3u   -0.362239     3Ag    -0.118703  
       2B1u   -0.082172     2B2u   -0.074071     2B3u   -0.074071  
       1B1g    0.060904     4Ag     0.060904     1B2g    0.062563  
       1B3g    0.062563     5Ag     0.063503     3B1u    0.221306  
       3B2u    0.258213     3B3u    0.258213     6Ag     0.390797  
       7Ag     0.672623     2B2g    0.675604     2B3g    0.675604  
       8Ag     0.689191     2B1g    0.689191     4B3u    0.756971  
       4B2u    0.756971     1Au     0.765255     4B1u    0.765255  
       5B2u    0.770257     5B3u    0.770257     5B1u    0.771921  
       6B1u    1.866905     6B2u    1.913937     6B3u    1.913937  
       9Ag     2.912221     3B2g    2.915437     3B3g    2.915437  
      10Ag     2.926713     3B1g    2.926713     7B3u    2.993613  
       7B2u    2.993613     2Au     3.005926     7B1u    3.005926  
       8B2u    3.013242     8B3u    3.013242     8B1u    3.015666  
      11Ag     4.164628  

    Beta Occupied:                                                        

       1Ag   -11.882653     2Ag    -1.087682  

    Beta Virtual:                                                         

       1B2u   -0.340315     1B3u   -0.340315     1B1u   -0.273800  
       3Ag    -0.113443     2B3u   -0.071867     2B2u   -0.071867  
       2B1u   -0.061431     4Ag     0.061092     1B1g    0.061092  
       1B2g    0.071359     1B3g    0.071359     5Ag     0.074982  
       3B3u    0.266858     3B2u    0.266858     3B1u    0.301901  
       6Ag     0.416744     7Ag     0.692724     2B1g    0.692724  
       2B2g    0.726933     2B3g    0.726933     8Ag     0.739546  
       4B3u    0.756946     4B2u    0.756946     1Au     0.772780  
       4B1u    0.772780     5B3u    0.782511     5B2u    0.782511  
       5B1u    0.785806     6B3u    1.928368     6B2u    1.928368  
       6B1u    1.989098     9Ag     2.936787     3B1g    2.936787  
       3B2g    2.993656     3B3g    2.993656     7B3u    2.996572  
       7B2u    2.996572    10Ag     3.013717     2Au     3.035185  
       7B1u    3.035185     8B2u    3.058961     8B3u    3.058961  
       8B1u    3.067009    11Ag     4.198418  

    Final Occupation by Irrep:
             Ag   B1g   B2g   B3g    Au   B1u   B2u   B3u 
    DOCC [     2,    0,    0,    0,    0,    0,    0,    0 ]
    SOCC [     0,    0,    0,    0,    0,    1,    0,    0 ]

  Energy converged.

  @UHF Final Energy:   -37.29495984143971

   => Energetics <=

    Nuclear Repulsion Energy =              0.0000000000000000
    One-Electron Energy =                 -47.5694220556572205
    Two-Electron Energy =                  10.2744622142175093
    Total Energy =                        -37.2949598414397130


  UHF NO Occupations:
  HONO-2 :    1 Ag 1.9999981
  HONO-1 :    2 Ag 1.9966908
  HONO-0 :    1B1u 1.0000000
  LUNO+0 :    3 Ag 0.0033092
  LUNO+1 :    4 Ag 0.0000019
  LUNO+2 :    5 Ag 0.0000000
  LUNO+3 :    2B1u 0.0000000



Properties will be evaluated at   0.000000,   0.000000,   0.000000 Bohr

Properties computed using the SCF density matrix

  Nuclear Dipole Moment: (a.u.)
     X:     0.0000      Y:     0.0000      Z:     0.0000

  Electronic Dipole Moment: (a.u.)
     X:     0.0000      Y:     0.0000      Z:     0.0000

  Dipole Moment: (a.u.)
     X:     0.0000      Y:     0.0000      Z:     0.0000     Total:     0.0000

  Dipole Moment: (Debye)
     X:     0.0000      Y:     0.0000      Z:     0.0000     Total:     0.0000


*** tstop() called on cqc05 at Thu Aug 20 20:11:07 2020
Module time:
	user time   =       0.35 seconds =       0.01 minutes
	system time =       0.02 seconds =       0.00 minutes
	total time  =          1 seconds =       0.02 minutes
Total time:
	user time   =       0.35 seconds =       0.01 minutes
	system time =       0.02 seconds =       0.00 minutes
	total time  =          1 seconds =       0.02 minutes

*** tstart() called on cqc05
*** at Thu Aug 20 20:11:07 2020


	Wfn Parameters:
	--------------------
	Wavefunction         = CCSD
	Number of irreps     = 8
	Number of MOs        = 46
	Number of active MOs = 45
	AO-Basis             = NONE
	Semicanonical        = false
	Reference            = UHF
	Print Level          = 1

	IRREP	# MOs	# FZDC	# DOCC	# SOCC	# VIRT	# FZVR
	-----	-----	------	------	------	------	------
	 Ag	   11	    1	    1	    0	    9	    0
	 B1g	   3	    0	    0	    0	    3	    0
	 B2g	   3	    0	    0	    0	    3	    0
	 B3g	   3	    0	    0	    0	    3	    0
	 Au	   2	    0	    0	    0	    2	    0
	 B1u	   8	    0	    0	    1	    7	    0
	 B2u	   8	    0	    0	    0	    8	    0
	 B3u	   8	    0	    0	    0	    8	    0
	Transforming integrals...
	IWL integrals will be deleted.
	(OO|OO)...
	Presorting SO-basis two-electron integrals.
	Sorting File: SO Ints (nn|nn) nbuckets = 1
	Transforming the one-electron integrals and constructing Fock matrices
	Starting AA/AB first half-transformation.
	Sorting AA/AB half-transformed integrals.
	Starting BB first half-transformation.
	Sorting BB half-transformed integrals.
	First half integral transformation complete.
	Starting AA second half-transformation.
	Starting AB second half-transformation.
	Starting BB second half-transformation.
	Two-electron integral transformation complete.
	(OO|OV)...
	Starting AA second half-transformation.
	Starting AB second half-transformation.
	Starting BB second half-transformation.
	Two-electron integral transformation complete.
	(OO|VV)...
	Starting AA second half-transformation.
	Starting AB second half-transformation.
	Starting BB second half-transformation.
	Two-electron integral transformation complete.
	(OV|OO)...
	Starting AA/AB first half-transformation.
	Sorting AA/AB half-transformed integrals.
	Starting BB first half-transformation.
	Sorting BB half-transformed integrals.
	First half integral transformation complete.
	Starting AA second half-transformation.
	Starting AB second half-transformation.
	Starting BB second half-transformation.
	Two-electron integral transformation complete.
	(OV|OV)...
	Starting AA second half-transformation.
	Starting AB second half-transformation.
	Starting BB second half-transformation.
	Two-electron integral transformation complete.
	(OV|VV)...
	Starting AA second half-transformation.
	Starting AB second half-transformation.
	Starting BB second half-transformation.
	Two-electron integral transformation complete.
	(VV|OO)...
	Starting AA/AB first half-transformation.
	Sorting AA/AB half-transformed integrals.
	Starting BB first half-transformation.
	Sorting BB half-transformed integrals.
	First half integral transformation complete.
	Starting AA second half-transformation.
	Starting AB second half-transformation.
	Starting BB second half-transformation.
	Two-electron integral transformation complete.
	(VV|OV)...
	Starting AA second half-transformation.
	Starting AB second half-transformation.
	Starting BB second half-transformation.
	Two-electron integral transformation complete.
	(VV|VV)...
	Starting AA second half-transformation.
	Starting AB second half-transformation.
	Starting BB second half-transformation.
	Two-electron integral transformation complete.
	Frozen core energy     =    -32.35963658665979

	Size of irrep 0 of <AB|CD> integrals:      0.015 (MW) /      0.121 (MB)
	Size of irrep 1 of <AB|CD> integrals:      0.013 (MW) /      0.104 (MB)
	Size of irrep 2 of <AB|CD> integrals:      0.012 (MW) /      0.093 (MB)
	Size of irrep 3 of <AB|CD> integrals:      0.012 (MW) /      0.093 (MB)
	Size of irrep 4 of <AB|CD> integrals:      0.008 (MW) /      0.061 (MB)
	Size of irrep 5 of <AB|CD> integrals:      0.014 (MW) /      0.110 (MB)
	Size of irrep 6 of <AB|CD> integrals:      0.015 (MW) /      0.121 (MB)
	Size of irrep 7 of <AB|CD> integrals:      0.015 (MW) /      0.121 (MB)
	Total:                                     0.103 (MW) /      0.824 (MB)

	Size of irrep 0 of <ab|cd> integrals:      0.017 (MW) /      0.135 (MB)
	Size of irrep 1 of <ab|cd> integrals:      0.013 (MW) /      0.108 (MB)
	Size of irrep 2 of <ab|cd> integrals:      0.013 (MW) /      0.108 (MB)
	Size of irrep 3 of <ab|cd> integrals:      0.013 (MW) /      0.108 (MB)
	Size of irrep 4 of <ab|cd> integrals:      0.008 (MW) /      0.065 (MB)
	Size of irrep 5 of <ab|cd> integrals:      0.016 (MW) /      0.127 (MB)
	Size of irrep 6 of <ab|cd> integrals:      0.016 (MW) /      0.127 (MB)
	Size of irrep 7 of <ab|cd> integrals:      0.016 (MW) /      0.127 (MB)
	Total:                                     0.113 (MW) /      0.904 (MB)

	Size of irrep 0 of <Ab|Cd> integrals:      0.088 (MW) /      0.701 (MB)
	Size of irrep 1 of <Ab|Cd> integrals:      0.053 (MW) /      0.423 (MB)
	Size of irrep 2 of <Ab|Cd> integrals:      0.050 (MW) /      0.401 (MB)
	Size of irrep 3 of <Ab|Cd> integrals:      0.050 (MW) /      0.401 (MB)
	Size of irrep 4 of <Ab|Cd> integrals:      0.031 (MW) /      0.251 (MB)
	Size of irrep 5 of <Ab|Cd> integrals:      0.059 (MW) /      0.472 (MB)
	Size of irrep 6 of <Ab|Cd> integrals:      0.062 (MW) /      0.496 (MB)
	Size of irrep 7 of <Ab|Cd> integrals:      0.062 (MW) /      0.496 (MB)
	Total:                                     0.455 (MW) /      3.642 (MB)

	Size of irrep 0 of <IA|BC> integrals:      0.005 (MW) /      0.037 (MB)
	Size of irrep 1 of <IA|BC> integrals:      0.001 (MW) /      0.009 (MB)
	Size of irrep 2 of <IA|BC> integrals:      0.002 (MW) /      0.019 (MB)
	Size of irrep 3 of <IA|BC> integrals:      0.002 (MW) /      0.019 (MB)
	Size of irrep 4 of <IA|BC> integrals:      0.001 (MW) /      0.007 (MB)
	Size of irrep 5 of <IA|BC> integrals:      0.004 (MW) /      0.030 (MB)
	Size of irrep 6 of <IA|BC> integrals:      0.003 (MW) /      0.022 (MB)
	Size of irrep 7 of <IA|BC> integrals:      0.003 (MW) /      0.022 (MB)
	Total:                                     0.021 (MW) /      0.164 (MB)

	Size of irrep 0 of <ia|bc> integrals:      0.003 (MW) /      0.022 (MB)
	Size of irrep 1 of <ia|bc> integrals:      0.001 (MW) /      0.006 (MB)
	Size of irrep 2 of <ia|bc> integrals:      0.001 (MW) /      0.006 (MB)
	Size of irrep 3 of <ia|bc> integrals:      0.001 (MW) /      0.006 (MB)
	Size of irrep 4 of <ia|bc> integrals:      0.000 (MW) /      0.003 (MB)
	Size of irrep 5 of <ia|bc> integrals:      0.002 (MW) /      0.016 (MB)
	Size of irrep 6 of <ia|bc> integrals:      0.002 (MW) /      0.016 (MB)
	Size of irrep 7 of <ia|bc> integrals:      0.002 (MW) /      0.016 (MB)
	Total:                                     0.011 (MW) /      0.090 (MB)

	Size of irrep 0 of <Ia|Bc> integrals:      0.005 (MW) /      0.040 (MB)
	Size of irrep 1 of <Ia|Bc> integrals:      0.001 (MW) /      0.009 (MB)
	Size of irrep 2 of <Ia|Bc> integrals:      0.002 (MW) /      0.020 (MB)
	Size of irrep 3 of <Ia|Bc> integrals:      0.002 (MW) /      0.020 (MB)
	Size of irrep 4 of <Ia|Bc> integrals:      0.001 (MW) /      0.007 (MB)
	Size of irrep 5 of <Ia|Bc> integrals:      0.004 (MW) /      0.033 (MB)
	Size of irrep 6 of <Ia|Bc> integrals:      0.003 (MW) /      0.022 (MB)
	Size of irrep 7 of <Ia|Bc> integrals:      0.003 (MW) /      0.022 (MB)
	Total:                                     0.022 (MW) /      0.173 (MB)

	Size of irrep 0 of <iA|bC> integrals:      0.003 (MW) /      0.021 (MB)
	Size of irrep 1 of <iA|bC> integrals:      0.001 (MW) /      0.006 (MB)
	Size of irrep 2 of <iA|bC> integrals:      0.001 (MW) /      0.005 (MB)
	Size of irrep 3 of <iA|bC> integrals:      0.001 (MW) /      0.005 (MB)
	Size of irrep 4 of <iA|bC> integrals:      0.000 (MW) /      0.003 (MB)
	Size of irrep 5 of <iA|bC> integrals:      0.002 (MW) /      0.014 (MB)
	Size of irrep 6 of <iA|bC> integrals:      0.002 (MW) /      0.016 (MB)
	Size of irrep 7 of <iA|bC> integrals:      0.002 (MW) /      0.016 (MB)
	Total:                                     0.011 (MW) /      0.086 (MB)

	Size of irrep 0 of tIjAb amplitudes:       0.000 (MW) /      0.002 (MB)
	Size of irrep 1 of tIjAb amplitudes:       0.000 (MW) /      0.000 (MB)
	Size of irrep 2 of tIjAb amplitudes:       0.000 (MW) /      0.000 (MB)
	Size of irrep 3 of tIjAb amplitudes:       0.000 (MW) /      0.000 (MB)
	Size of irrep 4 of tIjAb amplitudes:       0.000 (MW) /      0.000 (MB)
	Size of irrep 5 of tIjAb amplitudes:       0.000 (MW) /      0.002 (MB)
	Size of irrep 6 of tIjAb amplitudes:       0.000 (MW) /      0.000 (MB)
	Size of irrep 7 of tIjAb amplitudes:       0.000 (MW) /      0.000 (MB)
	Total:                                     0.001 (MW) /      0.004 (MB)

	Nuclear Rep. energy          =      0.00000000000000
	SCF energy                   =    -37.29495984143971
	One-electron energy          =     -6.64533647340531
	Two-electron (AA) energy     =      0.48719892087949
	Two-electron (BB) energy     =      0.00000000000000
	Two-electron (AB) energy     =      1.22281429774589
	Two-electron energy          =      1.71001321862538
	Reference energy             =    -37.29495984143971

*** tstop() called on cqc05 at Thu Aug 20 20:11:07 2020
Module time:
	user time   =       0.11 seconds =       0.00 minutes
	system time =       0.03 seconds =       0.00 minutes
	total time  =          0 seconds =       0.00 minutes
Total time:
	user time   =       0.46 seconds =       0.01 minutes
	system time =       0.05 seconds =       0.00 minutes
	total time  =          1 seconds =       0.02 minutes

*** tstart() called on cqc05
*** at Thu Aug 20 20:11:07 2020

            **************************
            *                        *
            *        CCENERGY        *
            *                        *
            **************************

    Nuclear Rep. energy (wfn)     =    0.000000000000000
    SCF energy          (wfn)     =  -37.294959841439706
    Reference energy    (file100) =  -37.294959841439713

    Input parameters:
    -----------------
    Wave function   =     CCSD
    Reference wfn   =     UHF
    Brueckner       =     No
    Memory (Mbytes) =     250000.0
    Maxiter         =     50
    R_Convergence   =     1.0e-07
    E_Convergence   =     1.0e-06
    Restart         =     Yes
    DIIS            =     Yes
    AO Basis        =     NONE
    ABCD            =     NEW
    Cache Level     =     2
    Cache Type      =     LRU
    Print Level     =     1
    Num. of threads =     4
    # Amps to Print =     10
    Print MP2 Amps? =     No
    Analyze T2 Amps =     No
    Print Pair Ener =     No
    Local CC        =     No
    SCS-MP2         =     False
    SCSN-MP2        =     False
    SCS-CCSD        =     False

MP2 correlation energy -0.0509834915223309
                Solving CC Amplitude Equations
                ------------------------------
  Iter             Energy              RMS        T1Diag      D1Diag    New D1Diag    D2Diag
  ----     ---------------------    ---------   ----------  ----------  ----------   --------
     0        -0.050983491522331    0.000e+00    0.000000    0.000000    0.000000    0.000000
     1        -0.064446537359757    5.430e-02    0.006363    0.000000    0.000000    0.000000
     2        -0.074301538593382    2.684e-02    0.012866    0.000000    0.000000    0.000000
     3        -0.074622391485809    3.961e-03    0.013521    0.000000    0.000000    0.000000
     4        -0.074721685722616    6.806e-04    0.013513    0.000000    0.000000    0.000000
     5        -0.074685361015336    1.299e-04    0.013466    0.000000    0.000000    0.000000
     6        -0.074695790194042    3.397e-05    0.013468    0.000000    0.000000    0.000000
     7        -0.074694367092115    7.350e-06    0.013467    0.000000    0.000000    0.000000
     8        -0.074694229219373    1.408e-06    0.013467    0.000000    0.000000    0.000000
     9        -0.074694336782818    3.863e-07    0.013467    0.000000    0.000000    0.000000
    10        -0.074694334724465    8.005e-08    0.013467    0.000000    0.000000    0.000000
    10        -0.074694334724465    8.005e-08    0.013467    0.000000    0.000000    0.000000

    Iterations converged.


    CCSD corr. energy   =   -0.074694334724465
    PPL corr. energy    =    0.029224294805362
    OS PPL corr. energy =    0.028583193246693
    SS PPL corr. energy =    0.000641101558669
    Largest TIA Amplitudes:
              0   4         0.0138004596
              0   2        -0.0094360952
              0   6         0.0050901158
              0   3         0.0036237937
              0   0         0.0026439094
              1  23         0.0018180095
              1  21        -0.0014198948
              1  20        -0.0013598902
              1  26         0.0012648608
              0   8        -0.0008192108

    Largest Tia Amplitudes:
              0   3         0.0107053228
              0   0        -0.0094817311
              0   8        -0.0015084016
              0   5         0.0011434238
              0   7        -0.0009933263
              0   2        -0.0000064533

    Largest TIJAB Amplitudes:
      1   0  27  16         0.0167805355
      1   0  35  13         0.0167805355
      1   0  21   3        -0.0147472916
      1   0  24   3        -0.0123308662
      1   0  27  15         0.0101445792
      1   0  35  12         0.0101445792
      1   0  21   0        -0.0085834770
      1   0  27  17         0.0079378832
      1   0  35  14         0.0079378832
      1   0  20   3        -0.0073993046

    Largest TIjAb Amplitudes:
      0   0  27  28        -0.1890209463
      0   0  35  36        -0.1890209463
      0   0  27  30        -0.0536207425
      0   0  35  38        -0.0536207425
      1   0   4  20         0.0513343793
      0   0  29  28        -0.0502158628
      0   0  37  36        -0.0502158628
      1   0  13  36        -0.0487812649
      1   0  16  28        -0.0487812649
      0   0  27  29        -0.0427764281

    SCF energy       (wfn)                    =  -37.294959841439706
    Reference energy (file100)                =  -37.294959841439713

    Opposite-spin MP2 correlation energy      =   -0.047522586537981
    Same-spin MP2 correlation energy          =   -0.003460904984350
    MP2 correlation energy                    =   -0.050983491522331
      * MP2 total energy                      =  -37.345943332962044

    Opposite-spin CCSD correlation energy     =   -0.070919094624181
    Same-spin CCSD correlation energy         =   -0.003775240106847
    CCSD correlation energy                   =   -0.074694334724465
      * CCSD total energy                     =  -37.369654176164175


*** tstop() called on cqc05 at Thu Aug 20 20:11:08 2020
Module time:
	user time   =       0.14 seconds =       0.00 minutes
	system time =       0.14 seconds =       0.00 minutes
	total time  =          1 seconds =       0.02 minutes
Total time:
	user time   =       0.60 seconds =       0.01 minutes
	system time =       0.19 seconds =       0.00 minutes
	total time  =          2 seconds =       0.03 minutes

*** Psi4 exiting successfully. Buy a developer a beer!
