
    -----------------------------------------------------------------------
          Psi4: An Open-Source Ab Initio Electronic Structure Package
                               Psi4 1.2a1.dev938 

                         Git: Rev {HEAD} fc51d9a dirty


    R. M. Parrish, L. A. Burns, D. G. A. Smith, A. C. Simmonett,
    A. E. DePrince III, E. G. Hohenstein, U. Bozkaya, A. Yu. Sokolov,
    R. Di Remigio, R. M. Richard, J. F. Gonthier, A. M. James,
    H. R. McAlexander, A. Kumar, M. Saitow, X. Wang, B. P. Pritchard,
    P. Verma, H. F. Schaefer III, K. Patkowski, R. A. King, E. F. Valeev,
    F. A. Evangelista, J. M. Turney, T. D. Crawford, and C. D. Sherrill,
    J. Chem. Theory Comput. 13(7) pp 3185--3197 (2017).
    (doi: 10.1021/acs.jctc.7b00174)

    -----------------------------------------------------------------------


    Psi4 started on: Thursday, 20 August 2020 10:41PM

    Process ID: 425454
    PSIDATADIR: /home/irmler/Programs/psi4/beforeGrueneis3/stage/usr/local/psi4/share/psi4
    Memory:     500.0 MiB
    Threads:    4
    
  ==> Input File <==

--------------------------------------------------------------------------
# Any line starting with the # character is a comment line
memory 250000 mb
molecule molecule{
1 2
C          0.0000000000        0.0000000000        0.0000000000
}

set {
  reference uhf
  basis aug-cc-pv(q+d)z
  scf_type OUT_OF_CORE
  freeze_core true
}

energy('ccsd')
--------------------------------------------------------------------------

  Memory set to 232.831 GiB by Python driver.

*** tstart() called on cqc05
*** at Thu Aug 20 22:41:39 2020

   => Loading Basis Set <=

    Name: AUG-CC-PV(Q+D)Z
    Role: ORBITAL
    Keyword: BASIS
    atoms 1 entry C          line   319 file /home/irmler/Programs/psi4/beforeGrueneis3/stage/usr/local/psi4/share/psi4/basis/aug-cc-pv_qpd_z.gbs 


         ---------------------------------------------------------
                                   SCF
            by Justin Turney, Rob Parrish, Andy Simmonett
                             and Daniel Smith
                              UHF Reference
                        4 Threads, 238418 MiB Core
         ---------------------------------------------------------

  ==> Geometry <==

    Molecular point group: d2h
    Geometry (in Angstrom), charge = 1, multiplicity = 2:

       Center              X                  Y                   Z               Mass       
    ------------   -----------------  -----------------  -----------------  -----------------
           C          0.000000000000     0.000000000000     0.000000000000    12.000000000000

  Running in d2h symmetry.

  Rotational constants: A = ************  B = ************  C = ************ [cm^-1]
  Rotational constants: A = ************  B = ************  C = ************ [MHz]
  Nuclear repulsion =    0.000000000000000

  Charge       = 1
  Multiplicity = 2
  Electrons    = 5
  Nalpha       = 3
  Nbeta        = 2

  ==> Algorithm <==

  SCF Algorithm Type is OUT_OF_CORE.
  DIIS enabled.
  MOM disabled.
  Fractional occupation disabled.
  Guess Type is GWH.
  Energy threshold   = 1.00e-08
  Density threshold  = 1.00e-08
  Integral threshold = 0.00e+00

  ==> Primary Basis <==

  Basis Set: AUG-CC-PV(Q+D)Z
    Blend: AUG-CC-PV(Q+D)Z
    Number of shells: 20
    Number of basis function: 80
    Number of Cartesian functions: 105
    Spherical Harmonics?: true
    Max angular momentum: 4

  ==> Pre-Iterations <==

   -------------------------------------------------------
    Irrep   Nso     Nmo     Nalpha   Nbeta   Ndocc  Nsocc
   -------------------------------------------------------
     Ag        20      20       0       0       0       0
     B1g        8       8       0       0       0       0
     B2g        8       8       0       0       0       0
     B3g        8       8       0       0       0       0
     Au         3       3       0       0       0       0
     B1u       11      11       0       0       0       0
     B2u       11      11       0       0       0       0
     B3u       11      11       0       0       0       0
   -------------------------------------------------------
    Total      80      80       3       2       2       1
   -------------------------------------------------------

  ==> Integral Setup <==

  ==> DiskJK: Disk-Based J/K Matrices <==

    J tasked:                  Yes
    K tasked:                  Yes
    wK tasked:                  No
    Memory (MB):            178813
    Schwarz Cutoff:          1E-12

  Minimum eigenvalue in the overlap matrix is 4.2846703316E-03.
  Using Symmetric Orthogonalization.

  SCF Guess: Generalized Wolfsberg-Helmholtz.

  ==> Iterations <==

                        Total Energy        Delta E     RMS |[F,P]|

   @UHF iter   1:   -36.67018182221575   -3.66702e+01   1.13027e-01 
   @UHF iter   2:   -37.27845709364675   -6.08275e-01   9.62652e-03 DIIS
   @UHF iter   3:   -37.29487562287135   -1.64185e-02   1.88435e-03 DIIS
   @UHF iter   4:   -37.29641245674999   -1.53683e-03   3.86224e-04 DIIS
   @UHF iter   5:   -37.29648980408156   -7.73473e-05   6.32992e-05 DIIS
   @UHF iter   6:   -37.29649172135588   -1.91727e-06   7.87239e-06 DIIS
   @UHF iter   7:   -37.29649174572356   -2.43677e-08   6.38707e-07 DIIS
   @UHF iter   8:   -37.29649174592730   -2.03741e-10   3.63714e-08 DIIS
   @UHF iter   9:   -37.29649174592809   -7.88702e-13   2.93083e-09 DIIS

  ==> Post-Iterations <==

   @Spin Contamination Metric:   6.660654423E-03
   @S^2 Expected:                7.500000000E-01
   @S^2 Observed:                7.566606544E-01
   @S   Expected:                5.000000000E-01
   @S   Observed:                5.000000000E-01

    Orbital Energies (a.u.)
    -----------------------

    Alpha Occupied:                                                       

       1Ag   -11.912752     2Ag    -1.224022     1B3u   -0.914216  

    Alpha Virtual:                                                        

       1B2u   -0.362167     1B1u   -0.362167     3Ag    -0.121739  
       2B3u   -0.085192     2B1u   -0.078136     2B2u   -0.078136  
       4Ag     0.019574     1B3g    0.019574     1B1g    0.021773  
       1B2g    0.021773     5Ag     0.022784     3B3u    0.145833  
       3B1u    0.173605     3B2u    0.173605     6Ag     0.208358  
       7Ag     0.451624     2B1g    0.453090     2B2g    0.453090  
       2B3g    0.461056     8Ag     0.461056     4B1u    0.476719  
       4B2u    0.476719     1Au     0.483199     4B3u    0.483199  
       5B1u    0.487167     5B2u    0.487167     5B3u    0.488491  
       6B3u    1.149565     6B2u    1.189720     6B1u    1.189720  
       9Ag     1.669621    10Ag     1.759264     3B3g    1.759264  
       3B1g    1.770199     3B2g    1.770199    11Ag     1.775674  
       4B1g    1.777403     4B2g    1.777403    12Ag     1.777905  
       4B3g    1.777905     5B1g    1.783799     5B2g    1.783799  
      13Ag     1.785165    14Ag     1.791398     5B3g    1.791398  
       7B1u    1.878703     7B2u    1.878703     7B3u    1.889315  
       2Au     1.889315     8B1u    1.895700     8B2u    1.895700  
       8B3u    1.897820     9B3u    5.271611     9B2u    5.281616  
       9B1u    5.281616    15Ag     5.457137     6B3g    5.457137  
       6B1g    5.476667     6B2g    5.476667    16Ag     5.490675  
       7B3g    5.490675     7B1g    5.499099     7B2g    5.499099  
      17Ag     5.501909    18Ag     5.854704     8B3g    5.854704  
       8B1g    5.861662     8B2g    5.861662    19Ag     5.864147  
      10B1u    5.967397    10B2u    5.967397    10B3u    5.985469  
       3Au     5.985469    11B1u    5.996392    11B2u    5.996392  
      11B3u    6.000046    20Ag    19.897269  

    Beta Occupied:                                                        

       1Ag   -11.882876     2Ag    -1.087429  

    Beta Virtual:                                                         

       1B2u   -0.340346     1B1u   -0.340346     1B3u   -0.273704  
       3Ag    -0.116991     2B1u   -0.076220     2B2u   -0.076220  
       2B3u   -0.067084     4Ag     0.019661     1B3g    0.019661  
       1B1g    0.026882     1B2g    0.026882     5Ag     0.029426  
       3B1u    0.180027     3B2u    0.180027     3B3u    0.207129  
       6Ag     0.223444     2B3g    0.462770     7Ag     0.462770  
       4B1u    0.476629     4B2u    0.476629     1Au     0.486499  
       4B3u    0.486499     2B1g    0.487610     2B2g    0.487610  
       5B1u    0.492587     5B2u    0.492587     5B3u    0.494654  
       8Ag     0.496686     6B2u    1.202178     6B1u    1.202178  
       6B3u    1.256777     9Ag     1.706668    10Ag     1.759070  
       3B3g    1.759070     3B1g    1.774835     3B2g    1.774835  
      11Ag     1.785812     4B3g    1.785812     4B1g    1.792983  
       4B2g    1.792983    12Ag     1.795320    13Ag     1.798949  
       5B3g    1.798949     5B1g    1.846744     5B2g    1.846744  
      14Ag     1.864179     7B1u    1.879858     7B2u    1.879858  
       7B3u    1.908307     2Au     1.908307     8B1u    1.925944  
       8B2u    1.925944     8B3u    1.931947     9B2u    5.293589  
       9B1u    5.293589     9B3u    5.355653    15Ag     5.458491  
       6B3g    5.458491     6B1g    5.491343     6B2g    5.491343  
      16Ag     5.515135     7B3g    5.515135     7B1g    5.529549  
       7B2g    5.529549    17Ag     5.534377    18Ag     5.863900  
       8B3g    5.863900     8B1g    5.920966     8B2g    5.920966  
      19Ag     5.940742    10B1u    5.972151    10B2u    5.972151  
      10B3u    6.018277     3Au     6.018277    11B1u    6.046754  
      11B2u    6.046754    11B3u    6.056439    20Ag    19.917579  

    Final Occupation by Irrep:
             Ag   B1g   B2g   B3g    Au   B1u   B2u   B3u 
    DOCC [     2,    0,    0,    0,    0,    0,    0,    0 ]
    SOCC [     0,    0,    0,    0,    0,    0,    0,    1 ]

  Energy converged.

  @UHF Final Energy:   -37.29649174592809

   => Energetics <=

    Nuclear Repulsion Energy =              0.0000000000000000
    One-Electron Energy =                 -47.5716883520698985
    Two-Electron Energy =                  10.2751966061418152
    Total Energy =                        -37.2964917459280798


  UHF NO Occupations:
  HONO-2 :    1 Ag 1.9999976
  HONO-1 :    2 Ag 1.9966665
  HONO-0 :    1B3u 1.0000000
  LUNO+0 :    3 Ag 0.0033335
  LUNO+1 :    4 Ag 0.0000024
  LUNO+2 :    5 Ag 0.0000000
  LUNO+3 :    6 Ag 0.0000000



Properties will be evaluated at   0.000000,   0.000000,   0.000000 Bohr

Properties computed using the SCF density matrix

  Nuclear Dipole Moment: (a.u.)
     X:     0.0000      Y:     0.0000      Z:     0.0000

  Electronic Dipole Moment: (a.u.)
     X:     0.0000      Y:     0.0000      Z:     0.0000

  Dipole Moment: (a.u.)
     X:     0.0000      Y:     0.0000      Z:     0.0000     Total:     0.0000

  Dipole Moment: (Debye)
     X:     0.0000      Y:     0.0000      Z:     0.0000     Total:     0.0000


*** tstop() called on cqc05 at Thu Aug 20 22:41:40 2020
Module time:
	user time   =       1.25 seconds =       0.02 minutes
	system time =       0.03 seconds =       0.00 minutes
	total time  =          1 seconds =       0.02 minutes
Total time:
	user time   =       1.25 seconds =       0.02 minutes
	system time =       0.03 seconds =       0.00 minutes
	total time  =          1 seconds =       0.02 minutes

*** tstart() called on cqc05
*** at Thu Aug 20 22:41:40 2020


	Wfn Parameters:
	--------------------
	Wavefunction         = CCSD
	Number of irreps     = 8
	Number of MOs        = 80
	Number of active MOs = 79
	AO-Basis             = NONE
	Semicanonical        = false
	Reference            = UHF
	Print Level          = 1

	IRREP	# MOs	# FZDC	# DOCC	# SOCC	# VIRT	# FZVR
	-----	-----	------	------	------	------	------
	 Ag	   20	    1	    1	    0	    18	    0
	 B1g	   8	    0	    0	    0	    8	    0
	 B2g	   8	    0	    0	    0	    8	    0
	 B3g	   8	    0	    0	    0	    8	    0
	 Au	   3	    0	    0	    0	    3	    0
	 B1u	   11	    0	    0	    0	    11	    0
	 B2u	   11	    0	    0	    0	    11	    0
	 B3u	   11	    0	    0	    1	    10	    0
	Transforming integrals...
	IWL integrals will be deleted.
	(OO|OO)...
	Presorting SO-basis two-electron integrals.
	Sorting File: SO Ints (nn|nn) nbuckets = 1
	Transforming the one-electron integrals and constructing Fock matrices
	Starting AA/AB first half-transformation.
	Sorting AA/AB half-transformed integrals.
	Starting BB first half-transformation.
	Sorting BB half-transformed integrals.
	First half integral transformation complete.
	Starting AA second half-transformation.
	Starting AB second half-transformation.
	Starting BB second half-transformation.
	Two-electron integral transformation complete.
	(OO|OV)...
	Starting AA second half-transformation.
	Starting AB second half-transformation.
	Starting BB second half-transformation.
	Two-electron integral transformation complete.
	(OO|VV)...
	Starting AA second half-transformation.
	Starting AB second half-transformation.
	Starting BB second half-transformation.
	Two-electron integral transformation complete.
	(OV|OO)...
	Starting AA/AB first half-transformation.
	Sorting AA/AB half-transformed integrals.
	Starting BB first half-transformation.
	Sorting BB half-transformed integrals.
	First half integral transformation complete.
	Starting AA second half-transformation.
	Starting AB second half-transformation.
	Starting BB second half-transformation.
	Two-electron integral transformation complete.
	(OV|OV)...
	Starting AA second half-transformation.
	Starting AB second half-transformation.
	Starting BB second half-transformation.
	Two-electron integral transformation complete.
	(OV|VV)...
	Starting AA second half-transformation.
	Starting AB second half-transformation.
	Starting BB second half-transformation.
	Two-electron integral transformation complete.
	(VV|OO)...
	Starting AA/AB first half-transformation.
	Sorting AA/AB half-transformed integrals.
	Starting BB first half-transformation.
	Sorting BB half-transformed integrals.
	First half integral transformation complete.
	Starting AA second half-transformation.
	Starting AB second half-transformation.
	Starting BB second half-transformation.
	Two-electron integral transformation complete.
	(VV|OV)...
	Starting AA second half-transformation.
	Starting AB second half-transformation.
	Starting BB second half-transformation.
	Two-electron integral transformation complete.
	(VV|VV)...
	Starting AA second half-transformation.
	Starting AB second half-transformation.
	Starting BB second half-transformation.
	Two-electron integral transformation complete.
	Frozen core energy     =    -32.36032663336579

	Size of irrep 0 of <AB|CD> integrals:      0.156 (MW) /      1.248 (MB)
	Size of irrep 1 of <AB|CD> integrals:      0.123 (MW) /      0.986 (MB)
	Size of irrep 2 of <AB|CD> integrals:      0.123 (MW) /      0.986 (MB)
	Size of irrep 3 of <AB|CD> integrals:      0.129 (MW) /      1.031 (MB)
	Size of irrep 4 of <AB|CD> integrals:      0.096 (MW) /      0.769 (MB)
	Size of irrep 5 of <AB|CD> integrals:      0.152 (MW) /      1.217 (MB)
	Size of irrep 6 of <AB|CD> integrals:      0.152 (MW) /      1.217 (MB)
	Size of irrep 7 of <AB|CD> integrals:      0.144 (MW) /      1.155 (MB)
	Total:                                     1.076 (MW) /      8.608 (MB)

	Size of irrep 0 of <ab|cd> integrals:      0.164 (MW) /      1.312 (MB)
	Size of irrep 1 of <ab|cd> integrals:      0.131 (MW) /      1.048 (MB)
	Size of irrep 2 of <ab|cd> integrals:      0.131 (MW) /      1.048 (MB)
	Size of irrep 3 of <ab|cd> integrals:      0.131 (MW) /      1.048 (MB)
	Size of irrep 4 of <ab|cd> integrals:      0.101 (MW) /      0.809 (MB)
	Size of irrep 5 of <ab|cd> integrals:      0.158 (MW) /      1.267 (MB)
	Size of irrep 6 of <ab|cd> integrals:      0.158 (MW) /      1.267 (MB)
	Size of irrep 7 of <ab|cd> integrals:      0.158 (MW) /      1.267 (MB)
	Total:                                     1.133 (MW) /      9.068 (MB)

	Size of irrep 0 of <Ab|Cd> integrals:      0.769 (MW) /      6.153 (MB)
	Size of irrep 1 of <Ab|Cd> integrals:      0.508 (MW) /      4.067 (MB)
	Size of irrep 2 of <Ab|Cd> integrals:      0.508 (MW) /      4.067 (MB)
	Size of irrep 3 of <Ab|Cd> integrals:      0.520 (MW) /      4.159 (MB)
	Size of irrep 4 of <Ab|Cd> integrals:      0.394 (MW) /      3.155 (MB)
	Size of irrep 5 of <Ab|Cd> integrals:      0.621 (MW) /      4.968 (MB)
	Size of irrep 6 of <Ab|Cd> integrals:      0.621 (MW) /      4.968 (MB)
	Size of irrep 7 of <Ab|Cd> integrals:      0.605 (MW) /      4.842 (MB)
	Total:                                     4.547 (MW) /     36.378 (MB)

	Size of irrep 0 of <IA|BC> integrals:      0.024 (MW) /      0.194 (MB)
	Size of irrep 1 of <IA|BC> integrals:      0.013 (MW) /      0.107 (MB)
	Size of irrep 2 of <IA|BC> integrals:      0.013 (MW) /      0.107 (MB)
	Size of irrep 3 of <IA|BC> integrals:      0.008 (MW) /      0.063 (MB)
	Size of irrep 4 of <IA|BC> integrals:      0.007 (MW) /      0.055 (MB)
	Size of irrep 5 of <IA|BC> integrals:      0.015 (MW) /      0.119 (MB)
	Size of irrep 6 of <IA|BC> integrals:      0.015 (MW) /      0.119 (MB)
	Size of irrep 7 of <IA|BC> integrals:      0.021 (MW) /      0.170 (MB)
	Total:                                     0.117 (MW) /      0.933 (MB)

	Size of irrep 0 of <ia|bc> integrals:      0.016 (MW) /      0.128 (MB)
	Size of irrep 1 of <ia|bc> integrals:      0.006 (MW) /      0.046 (MB)
	Size of irrep 2 of <ia|bc> integrals:      0.006 (MW) /      0.046 (MB)
	Size of irrep 3 of <ia|bc> integrals:      0.006 (MW) /      0.046 (MB)
	Size of irrep 4 of <ia|bc> integrals:      0.002 (MW) /      0.015 (MB)
	Size of irrep 5 of <ia|bc> integrals:      0.009 (MW) /      0.070 (MB)
	Size of irrep 6 of <ia|bc> integrals:      0.009 (MW) /      0.070 (MB)
	Size of irrep 7 of <ia|bc> integrals:      0.009 (MW) /      0.070 (MB)
	Total:                                     0.062 (MW) /      0.492 (MB)

	Size of irrep 0 of <Ia|Bc> integrals:      0.025 (MW) /      0.203 (MB)
	Size of irrep 1 of <Ia|Bc> integrals:      0.014 (MW) /      0.108 (MB)
	Size of irrep 2 of <Ia|Bc> integrals:      0.014 (MW) /      0.108 (MB)
	Size of irrep 3 of <Ia|Bc> integrals:      0.008 (MW) /      0.063 (MB)
	Size of irrep 4 of <Ia|Bc> integrals:      0.007 (MW) /      0.055 (MB)
	Size of irrep 5 of <Ia|Bc> integrals:      0.015 (MW) /      0.120 (MB)
	Size of irrep 6 of <Ia|Bc> integrals:      0.015 (MW) /      0.120 (MB)
	Size of irrep 7 of <Ia|Bc> integrals:      0.023 (MW) /      0.180 (MB)
	Total:                                     0.120 (MW) /      0.959 (MB)

	Size of irrep 0 of <iA|bC> integrals:      0.016 (MW) /      0.126 (MB)
	Size of irrep 1 of <iA|bC> integrals:      0.006 (MW) /      0.046 (MB)
	Size of irrep 2 of <iA|bC> integrals:      0.006 (MW) /      0.046 (MB)
	Size of irrep 3 of <iA|bC> integrals:      0.006 (MW) /      0.046 (MB)
	Size of irrep 4 of <iA|bC> integrals:      0.002 (MW) /      0.015 (MB)
	Size of irrep 5 of <iA|bC> integrals:      0.009 (MW) /      0.069 (MB)
	Size of irrep 6 of <iA|bC> integrals:      0.009 (MW) /      0.069 (MB)
	Size of irrep 7 of <iA|bC> integrals:      0.008 (MW) /      0.062 (MB)
	Total:                                     0.060 (MW) /      0.480 (MB)

	Size of irrep 0 of tIjAb amplitudes:       0.001 (MW) /      0.007 (MB)
	Size of irrep 1 of tIjAb amplitudes:       0.000 (MW) /      0.000 (MB)
	Size of irrep 2 of tIjAb amplitudes:       0.000 (MW) /      0.000 (MB)
	Size of irrep 3 of tIjAb amplitudes:       0.000 (MW) /      0.000 (MB)
	Size of irrep 4 of tIjAb amplitudes:       0.000 (MW) /      0.000 (MB)
	Size of irrep 5 of tIjAb amplitudes:       0.000 (MW) /      0.000 (MB)
	Size of irrep 6 of tIjAb amplitudes:       0.000 (MW) /      0.000 (MB)
	Size of irrep 7 of tIjAb amplitudes:       0.001 (MW) /      0.006 (MB)
	Total:                                     0.002 (MW) /      0.013 (MB)

	Nuclear Rep. energy          =      0.00000000000000
	SCF energy                   =    -37.29649174592809
	One-electron energy          =     -6.64666317089805
	Two-electron (AA) energy     =      0.48730731723340
	Two-electron (BB) energy     =      0.00000000000000
	Two-electron (AB) energy     =      1.22319074110249
	Two-electron energy          =      1.71049805833589
	Reference energy             =    -37.29649174592796

*** tstop() called on cqc05 at Thu Aug 20 22:41:40 2020
Module time:
	user time   =       0.43 seconds =       0.01 minutes
	system time =       0.27 seconds =       0.00 minutes
	total time  =          0 seconds =       0.00 minutes
Total time:
	user time   =       1.68 seconds =       0.03 minutes
	system time =       0.30 seconds =       0.01 minutes
	total time  =          1 seconds =       0.02 minutes

*** tstart() called on cqc05
*** at Thu Aug 20 22:41:40 2020

            **************************
            *                        *
            *        CCENERGY        *
            *                        *
            **************************

    Nuclear Rep. energy (wfn)     =    0.000000000000000
    SCF energy          (wfn)     =  -37.296491745928087
    Reference energy    (file100) =  -37.296491745927959

    Input parameters:
    -----------------
    Wave function   =     CCSD
    Reference wfn   =     UHF
    Brueckner       =     No
    Memory (Mbytes) =     250000.0
    Maxiter         =     50
    R_Convergence   =     1.0e-07
    E_Convergence   =     1.0e-06
    Restart         =     Yes
    DIIS            =     Yes
    AO Basis        =     NONE
    ABCD            =     NEW
    Cache Level     =     2
    Cache Type      =     LRU
    Print Level     =     1
    Num. of threads =     4
    # Amps to Print =     10
    Print MP2 Amps? =     No
    Analyze T2 Amps =     No
    Print Pair Ener =     No
    Local CC        =     No
    SCS-MP2         =     False
    SCSN-MP2        =     False
    SCS-CCSD        =     False

MP2 correlation energy -0.0547302160153935
                Solving CC Amplitude Equations
                ------------------------------
  Iter             Energy              RMS        T1Diag      D1Diag    New D1Diag    D2Diag
  ----     ---------------------    ---------   ----------  ----------  ----------   --------
     0        -0.054730216015394    0.000e+00    0.000000    0.000000    0.000000    0.000000
     1        -0.067205375087640    5.311e-02    0.007091    0.000000    0.000000    0.000000
     2        -0.076965967192448    2.658e-02    0.013650    0.000000    0.000000    0.000000
     3        -0.077146800297797    3.740e-03    0.014145    0.000000    0.000000    0.000000
     4        -0.077280585507006    6.662e-04    0.014155    0.000000    0.000000    0.000000
     5        -0.077242389911574    1.462e-04    0.014110    0.000000    0.000000    0.000000
     6        -0.077246416763791    3.457e-05    0.014106    0.000000    0.000000    0.000000
     7        -0.077247059986463    7.063e-06    0.014106    0.000000    0.000000    0.000000
     8        -0.077246707012081    1.698e-06    0.014106    0.000000    0.000000    0.000000
     9        -0.077246762274340    3.720e-07    0.014106    0.000000    0.000000    0.000000
    10        -0.077246758139666    9.461e-08    0.014106    0.000000    0.000000    0.000000
    10        -0.077246758139666    9.461e-08    0.014106    0.000000    0.000000    0.000000

    Iterations converged.


    CCSD corr. energy   =   -0.077246758139666
    PPL corr. energy    =    0.030905103646339
    OS PPL corr. energy =    0.030203815755483
    SS PPL corr. energy =    0.000701287890857
    Largest TIA Amplitudes:
              0   4        -0.0135449074
              0   8         0.0079633503
              0   2         0.0075611513
              0   3        -0.0041357192
              0   0         0.0028735609
              0  10         0.0023260767
              1  73         0.0016227035
              0  16         0.0015315037
              1  70         0.0014422904
              0   6         0.0014220400

    Largest Tia Amplitudes:
              0   3        -0.0115397944
              0   0         0.0096784095
              0   6         0.0048389529
              0  11        -0.0007324069
              0   5        -0.0003179143
              0  16        -0.0002530973
              0   9         0.0002439183
              0  14        -0.0002379722
              0   2        -0.0002199826
              0  17         0.0000229134

    Largest TIJAB Amplitudes:
      1   0  45  27         0.0158562377
      1   0  56  19         0.0158562377
      1   0  71   6        -0.0109486156
      1   0  68   3         0.0107269335
      1   0  71   3         0.0106289380
      1   0  45  29        -0.0103304504
      1   0  56  21        -0.0103304504
      1   0  68   6        -0.0084564636
      1   0  45  26        -0.0079713270
      1   0  56  18        -0.0079713270

    Largest TIjAb Amplitudes:
      0   0  45  45        -0.1880444350
      0   0  56  56        -0.1880444350
      0   0  45  47        -0.0522386714
      0   0  56  58        -0.0522386714
      0   0  47  45        -0.0486282769
      0   0  58  56        -0.0486282769
      1   0   4  67        -0.0474450340
      1   0  19  56        -0.0449771878
      1   0  27  45        -0.0449771878
      0   0  45  46        -0.0399221321

    SCF energy       (wfn)                    =  -37.296491745928087
    Reference energy (file100)                =  -37.296491745927959

    Opposite-spin MP2 correlation energy      =   -0.050975080159308
    Same-spin MP2 correlation energy          =   -0.003755135856085
    MP2 correlation energy                    =   -0.054730216015394
      * MP2 total energy                      =  -37.351221961943352

    Opposite-spin CCSD correlation energy     =   -0.073198277632879
    Same-spin CCSD correlation energy         =   -0.004048480648204
    CCSD correlation energy                   =   -0.077246758139666
      * CCSD total energy                     =  -37.373738504067624


*** tstop() called on cqc05 at Thu Aug 20 22:41:42 2020
Module time:
	user time   =       0.36 seconds =       0.01 minutes
	system time =       0.26 seconds =       0.00 minutes
	total time  =          2 seconds =       0.03 minutes
Total time:
	user time   =       2.04 seconds =       0.03 minutes
	system time =       0.56 seconds =       0.01 minutes
	total time  =          3 seconds =       0.05 minutes

*** Psi4 exiting successfully. Buy a developer a beer!
