
    -----------------------------------------------------------------------
          Psi4: An Open-Source Ab Initio Electronic Structure Package
                               Psi4 1.2a1.dev939 

                         Git: Rev {HEAD} fa1ec19 dirty


    R. M. Parrish, L. A. Burns, D. G. A. Smith, A. C. Simmonett,
    A. E. DePrince III, E. G. Hohenstein, U. Bozkaya, A. Yu. Sokolov,
    R. Di Remigio, R. M. Richard, J. F. Gonthier, A. M. James,
    H. R. McAlexander, A. Kumar, M. Saitow, X. Wang, B. P. Pritchard,
    P. Verma, H. F. Schaefer III, K. Patkowski, R. A. King, E. F. Valeev,
    F. A. Evangelista, J. M. Turney, T. D. Crawford, and C. D. Sherrill,
    J. Chem. Theory Comput. 13(7) pp 3185--3197 (2017).
    (doi: 10.1021/acs.jctc.7b00174)

    -----------------------------------------------------------------------


    Psi4 started on: Friday, 07 August 2020 01:04PM

    Process ID: 315974
    PSIDATADIR: /home/fs71337/airmler/src/psi4new/build/stage/usr/local/psi4/share/psi4
    Memory:     500.0 MiB
    Threads:    48
    
  ==> Input File <==

--------------------------------------------------------------------------
# Any line starting with the # character is a comment line

memory 450000 mb

molecule molecule {
0 1
O          1.1623998207       -0.0095206174        0.0000000000
C         -0.0103871987       -0.0419819387        0.0000000000
N         -1.2231559955        0.0984473505        0.0000000000
H         -1.8749565266       -0.6671278944        0.0000000000
}

set {
  reference rhf


  basis aug-cc-pv(6+d)z
  scf_type OUT_OF_CORE
  freeze_core true
}

energy('ccsd')
--------------------------------------------------------------------------

  Memory set to 419.095 GiB by Python driver.

*** tstart() called on n411-012.vsc4.prov
*** at Fri Aug  7 13:04:56 2020

   => Loading Basis Set <=

    Name: AUG-CC-PV(6+D)Z
    Role: ORBITAL
    Keyword: BASIS
    atoms 1 entry O          line   459 file /home/fs71337/airmler/src/psi4new/build/stage/usr/local/psi4/share/psi4/basis/aug-cc-pv_6pd_z.gbs 
    atoms 2 entry C          line   267 file /home/fs71337/airmler/src/psi4new/build/stage/usr/local/psi4/share/psi4/basis/aug-cc-pv_6pd_z.gbs 
    atoms 3 entry N          line   363 file /home/fs71337/airmler/src/psi4new/build/stage/usr/local/psi4/share/psi4/basis/aug-cc-pv_6pd_z.gbs 
    atoms 4 entry H          line    51 file /home/fs71337/airmler/src/psi4new/build/stage/usr/local/psi4/share/psi4/basis/aug-cc-pv_6pd_z.gbs 


         ---------------------------------------------------------
                                   SCF
            by Justin Turney, Rob Parrish, Andy Simmonett
                             and Daniel Smith
                              RHF Reference
                       48 Threads, 429153 MiB Core
         ---------------------------------------------------------

  ==> Geometry <==

    Molecular point group: cs
    Full point group: Cs

    Geometry (in Angstrom), charge = 0, multiplicity = 1:

       Center              X                  Y                   Z               Mass       
    ------------   -----------------  -----------------  -----------------  -----------------
           O          1.175182570233    -0.010686799643     0.000000000000    15.994914619560
           C          0.002395550833    -0.043148120943     0.000000000000    12.000000000000
           N         -1.210373245967     0.097281168257     0.000000000000    14.003074004780
           H         -1.862173777067    -0.668294076643     0.000000000000     1.007825032070

  Running in cs symmetry.

  Rotational constants: A =     28.14418  B =      0.36562  C =      0.36093 [cm^-1]
  Rotational constants: A = 843741.35337  B =  10960.97690  C =  10820.40982 [MHz]
  Nuclear repulsion =   58.924902301125904

  Charge       = 0
  Multiplicity = 1
  Electrons    = 22
  Nalpha       = 11
  Nbeta        = 11

  ==> Algorithm <==

  SCF Algorithm Type is OUT_OF_CORE.
  DIIS enabled.
  MOM disabled.
  Fractional occupation disabled.
  Guess Type is SAD.
  Energy threshold   = 1.00e-08
  Density threshold  = 1.00e-08
  Integral threshold = 0.00e+00

  ==> Primary Basis <==

  Basis Set: AUG-CC-PV(6+D)Z
    Blend: AUG-CC-PV(6+D)Z
    Number of shells: 132
    Number of basis function: 694
    Number of Cartesian functions: 1064
    Spherical Harmonics?: true
    Max angular momentum: 6

  ==> Pre-Iterations <==

   -------------------------------------------------------
    Irrep   Nso     Nmo     Nalpha   Nbeta   Ndocc  Nsocc
   -------------------------------------------------------
     A'       413     413       0       0       0       0
     A"       281     281       0       0       0       0
   -------------------------------------------------------
    Total     694     694      11      11      11       0
   -------------------------------------------------------

  ==> Integral Setup <==

  ==> DiskJK: Disk-Based J/K Matrices <==

    J tasked:                  Yes
    K tasked:                  Yes
    wK tasked:                  No
    Memory (MB):            321865
    Schwarz Cutoff:          1E-12

  Minimum eigenvalue in the overlap matrix is 6.2928105726E-07.
  Using Symmetric Orthogonalization.

  SCF Guess: Superposition of Atomic Densities via on-the-fly atomic UHF.

  ==> Iterations <==

                        Total Energy        Delta E     RMS |[F,P]|

   @RHF iter   0:  -168.98329887136364   -1.68983e+02   4.17728e-02 
   @RHF iter   1:  -167.77038432609936    1.21291e+00   3.99779e-03 
   @RHF iter   2:  -167.81854139767796   -4.81571e-02   2.56667e-03 DIIS
   @RHF iter   3:  -167.84218774853966   -2.36464e-02   4.69787e-04 DIIS
   @RHF iter   4:  -167.84321268157811   -1.02493e-03   2.00021e-04 DIIS
   @RHF iter   5:  -167.84345898311184   -2.46302e-04   8.51257e-05 DIIS
   @RHF iter   6:  -167.84350776278234   -4.87797e-05   2.57160e-05 DIIS
   @RHF iter   7:  -167.84351778850728   -1.00257e-05   6.78096e-06 DIIS
   @RHF iter   8:  -167.84351824846760   -4.59960e-07   1.96927e-06 DIIS
   @RHF iter   9:  -167.84351827706234   -2.85947e-08   4.10567e-07 DIIS
   @RHF iter  10:  -167.84351828035844   -3.29609e-09   1.34510e-07 DIIS
   @RHF iter  11:  -167.84351828073181   -3.73376e-10   4.98082e-08 DIIS
   @RHF iter  12:  -167.84351828079235   -6.05382e-11   1.76291e-08 DIIS
   @RHF iter  13:  -167.84351828080122   -8.86757e-12   6.54680e-09 DIIS

  ==> Post-Iterations <==

    Orbital Energies (a.u.)
    -----------------------

    Doubly Occupied:                                                      

       1Ap   -20.624299     2Ap   -15.595497     3Ap   -11.418480  
       4Ap    -1.473305     5Ap    -1.262738     6Ap    -0.815054  
       7Ap    -0.732403     1App   -0.656762     8Ap    -0.645767  
       9Ap    -0.489600     2App   -0.454982  

    Virtual:                                                              

      10Ap     0.014454    11Ap     0.043752     3App    0.043816  
      12Ap     0.046116    13Ap     0.068424    14Ap     0.078730  
      15Ap     0.080444     4App    0.082767    16Ap     0.111953  
      17Ap     0.118756     5App    0.124955    18Ap     0.130369  
       6App    0.144016    19Ap     0.151118    20Ap     0.158983  
      21Ap     0.169170     7App    0.177143    22Ap     0.197558  
       8App    0.209724    23Ap     0.214540    24Ap     0.217598  
       9App    0.228487    25Ap     0.239835    26Ap     0.249683  
      10App    0.258270    27Ap     0.283306    28Ap     0.298025  
      11App    0.306099    29Ap     0.318317    30Ap     0.320205  
      12App    0.349475    31Ap     0.352081    32Ap     0.373249  
      33Ap     0.377466    13App    0.389605    34Ap     0.405022  
      14App    0.409181    35Ap     0.416638    15App    0.419591  
      36Ap     0.449525    16App    0.466915    37Ap     0.472621  
      38Ap     0.480211    17App    0.490631    39Ap     0.502841  
      40Ap     0.511402    18App    0.527256    41Ap     0.532046  
      42Ap     0.542150    43Ap     0.560770    19App    0.563184  
      44Ap     0.568401    45Ap     0.603042    46Ap     0.615559  
      20App    0.617474    21App    0.629205    47Ap     0.659845  
      48Ap     0.662677    22App    0.689193    49Ap     0.712415  
      23App    0.721860    50Ap     0.737503    24App    0.737685  
      51Ap     0.748053    52Ap     0.765138    25App    0.803587  
      53Ap     0.804865    54Ap     0.825896    26App    0.851824  
      55Ap     0.864389    56Ap     0.893781    27App    0.916919  
      57Ap     0.919491    28App    0.927732    58Ap     0.931824  
      59Ap     0.951581    29App    0.957643    60Ap     0.964301  
      30App    0.977056    61Ap     0.977554    31App    1.007328  
      62Ap     1.007915    63Ap     1.018062    64Ap     1.043745  
      32App    1.061646    65Ap     1.069971    66Ap     1.091583  
      67Ap     1.108657    33App    1.125437    34App    1.142863  
      68Ap     1.152379    69Ap     1.185710    70Ap     1.204970  
      35App    1.208920    36App    1.212948    71Ap     1.223287  
      72Ap     1.267720    37App    1.288958    73Ap     1.301326  
      38App    1.313967    74Ap     1.317796    75Ap     1.320890  
      39App    1.344409    76Ap     1.380841    40App    1.380842  
      77Ap     1.397910    41App    1.404209    78Ap     1.430533  
      79Ap     1.475476    42App    1.477117    80Ap     1.503970  
      81Ap     1.518877    43App    1.527592    82Ap     1.540548  
      44App    1.585849    83Ap     1.603913    84Ap     1.617011  
      45App    1.637210    46App    1.656044    85Ap     1.677433  
      86Ap     1.695273    87Ap     1.722448    88Ap     1.733882  
      89Ap     1.791165    47App    1.815885    90Ap     1.818678  
      48App    1.838603    91Ap     1.854694    49App    1.864352  
      92Ap     1.875183    93Ap     1.880948    50App    1.907719  
      94Ap     1.914027    51App    1.987630    95Ap     2.002450  
      52App    2.038767    96Ap     2.068891    97Ap     2.080863  
      53App    2.087082    98Ap     2.105527    54App    2.108962  
      99Ap     2.177296    55App    2.189595   100Ap     2.214404  
     101Ap     2.242062    56App    2.250177    57App    2.278239  
     102Ap     2.286912   103Ap     2.295373    58App    2.299781  
     104Ap     2.329246    59App    2.354269   105Ap     2.355613  
     106Ap     2.384803    60App    2.393334    61App    2.397839  
     107Ap     2.404251   108Ap     2.422586    62App    2.463897  
     109Ap     2.472372   110Ap     2.510720    63App    2.512712  
     111Ap     2.518993    64App    2.524763   112Ap     2.563322  
     113Ap     2.588776    65App    2.603981    66App    2.625104  
     114Ap     2.637825   115Ap     2.649689   116Ap     2.670837  
      67App    2.672911    68App    2.698742   117Ap     2.701420  
     118Ap     2.713648    69App    2.727324   119Ap     2.747420  
     120Ap     2.761127    70App    2.764874    71App    2.789797  
     121Ap     2.800851   122Ap     2.814654    72App    2.846403  
      73App    2.874903   123Ap     2.879736   124Ap     2.891755  
     125Ap     2.940605   126Ap     2.966049    74App    2.994264  
      75App    3.082711   127Ap     3.093559   128Ap     3.121580  
     129Ap     3.144525    76App    3.154491   130Ap     3.173729  
     131Ap     3.206080    77App    3.206237   132Ap     3.223945  
      78App    3.244689   133Ap     3.259033   134Ap     3.292357  
      79App    3.315256   135Ap     3.382191   136Ap     3.400855  
      80App    3.458375    81App    3.493730   137Ap     3.493872  
     138Ap     3.574120   139Ap     3.597555    82App    3.603606  
     140Ap     3.662974    83App    3.670983   141Ap     3.741086  
      84App    3.747481   142Ap     3.824568   143Ap     3.860272  
      85App    3.863348   144Ap     3.933826    86App    3.980728  
     145Ap     4.003327    87App    4.030248   146Ap     4.067190  
      88App    4.077399   147Ap     4.086020    89App    4.119907  
     148Ap     4.124686    90App    4.166304   149Ap     4.178493  
     150Ap     4.197071   151Ap     4.204244    91App    4.260539  
     152Ap     4.272729    92App    4.310272    93App    4.316447  
     153Ap     4.351530   154Ap     4.392261    94App    4.452943  
     155Ap     4.478008    95App    4.483546   156Ap     4.523045  
      96App    4.540063   157Ap     4.557356    97App    4.583000  
     158Ap     4.590639    98App    4.626680   159Ap     4.650889  
     160Ap     4.695419    99App    4.696944   100App    4.715136  
     161Ap     4.717122   162Ap     4.736167   101App    4.795423  
     163Ap     4.800889   164Ap     4.840913   165Ap     4.851442  
     102App    4.905604   166Ap     4.944758   103App    4.970548  
     167Ap     4.973498   104App    4.983162   168Ap     5.003473  
     105App    5.067139   169Ap     5.085475   170Ap     5.118449  
     106App    5.151276   171Ap     5.159146   172Ap     5.190028  
     107App    5.196289   173Ap     5.216368   108App    5.225875  
     174Ap     5.280160   109App    5.301134   110App    5.324455  
     175Ap     5.332708   111App    5.355134   176Ap     5.362454  
     177Ap     5.378833   112App    5.383339   113App    5.394175  
     178Ap     5.394295   179Ap     5.416581   180Ap     5.446697  
     114App    5.459442   181Ap     5.488914   182Ap     5.514713  
     115App    5.518713   116App    5.545326   183Ap     5.585344  
     184Ap     5.602524   185Ap     5.636154   186Ap     5.687785  
     117App    5.689029   187Ap     5.697684   118App    5.703400  
     188Ap     5.758600   189Ap     5.791988   119App    5.819016  
     190Ap     5.888012   120App    5.897277   121App    5.930818  
     191Ap     5.960061   192Ap     5.962132   122App    6.017564  
     193Ap     6.054600   194Ap     6.143538   123App    6.159788  
     195Ap     6.171554   124App    6.243223   196Ap     6.285800  
     197Ap     6.348779   125App    6.352953   198Ap     6.422308  
     126App    6.429279   199Ap     6.459839   127App    6.500533  
     200Ap     6.521700   201Ap     6.570406   128App    6.580458  
     129App    6.609141   202Ap     6.618969   203Ap     6.651532  
     130App    6.679771   204Ap     6.776334   131App    6.853013  
     205Ap     6.889747   132App    6.949217   206Ap     6.965404  
     133App    6.972366   207Ap     7.020318   208Ap     7.037172  
     209Ap     7.184109   210Ap     7.263941   134App    7.264327  
     211Ap     7.290069   135App    7.295103   212Ap     7.373969  
     136App    7.382478   137App    7.441197   213Ap     7.447672  
     138App    7.572326   214Ap     7.584927   139App    7.631754  
     215Ap     7.641835   216Ap     7.685655   140App    7.700372  
     217Ap     7.714898   141App    7.796724   218Ap     7.870855  
     142App    7.871027   219Ap     7.886899   220Ap     7.958735  
     143App    7.973595   221Ap     7.994665   144App    8.024740  
     222Ap     8.105084   145App    8.124952   223Ap     8.151684  
     224Ap     8.198423   146App    8.305817   225Ap     8.318494  
     147App    8.360955   226Ap     8.397464   227Ap     8.467414  
     148App    8.500806   228Ap     8.528995   149App    8.588383  
     229Ap     8.609512   230Ap     8.612493   150App    8.632979  
     231Ap     8.719884   151App    8.729755   232Ap     8.774976  
     152App    8.843847   233Ap     8.852865   234Ap     8.928885  
     153App    8.948310   235Ap     9.004685   236Ap     9.073267  
     154App    9.140499   155App    9.182292   237Ap     9.257322  
     238Ap     9.288527   239Ap     9.307045   156App    9.340484  
     240Ap     9.403176   157App    9.403505   158App    9.423175  
     241Ap     9.455549   242Ap     9.486695   159App    9.521628  
     243Ap     9.604510   160App    9.638644   244Ap     9.687623  
     245Ap     9.712830   161App    9.792094   246Ap     9.833438  
     162App    9.857954   163App    9.907364   247Ap     9.909150  
     248Ap     9.997930   164App   10.069399   249Ap    10.127547  
     165App   10.173761   250Ap    10.187660   166App   10.259051  
     251Ap    10.312435   167App   10.335587   252Ap    10.360880  
     253Ap    10.426741   254Ap    10.456090   168App   10.485108  
     255Ap    10.582471   169App   10.695482   256Ap    10.716000  
     257Ap    10.737589   170App   10.796754   258Ap    10.822550  
     171App   10.865197   259Ap    10.866451   172App   10.933055  
     173App   10.965314   260Ap    10.972231   261Ap    11.064380  
     174App   11.100091   262Ap    11.120860   263Ap    11.142119  
     175App   11.156841   176App   11.203445   264Ap    11.206290  
     265Ap    11.279628   177App   11.280191   266Ap    11.301447  
     267Ap    11.353067   268Ap    11.382026   178App   11.406461  
     269Ap    11.445673   179App   11.483188   270Ap    11.484722  
     180App   11.526364   181App   11.571257   271Ap    11.638412  
     272Ap    11.672673   273Ap    11.705282   182App   11.759710  
     274Ap    11.790299   183App   11.912297   184App   11.971403  
     275Ap    11.987896   276Ap    12.032093   277Ap    12.120703  
     185App   12.143495   186App   12.362130   187App   12.427643  
     278Ap    12.428746   279Ap    12.445283   280Ap    12.509750  
     281Ap    12.572353   188App   12.625815   189App   12.724753  
     282Ap    12.816127   283Ap    12.916673   190App   13.053598  
     284Ap    13.054268   191App   13.093651   285Ap    13.128602  
     286Ap    13.180010   192App   13.198876   287Ap    13.291303  
     193App   13.347133   194App   13.450914   288Ap    13.487736  
     289Ap    13.511731   290Ap    13.587215   195App   13.702861  
     291Ap    13.738376   196App   13.778615   292Ap    13.838682  
     293Ap    13.947626   197App   13.983194   294Ap    13.983596  
     198App   14.053957   295Ap    14.241534   296Ap    14.350067  
     199App   14.360473   297Ap    14.466966   200App   14.469406  
     298Ap    14.482627   201App   14.594600   299Ap    14.595311  
     202App   14.718578   300Ap    14.751209   203App   14.786643  
     301Ap    14.790314   204App   14.842164   302Ap    14.868575  
     205App   14.994260   303Ap    15.039156   206App   15.087173  
     304Ap    15.122262   305Ap    15.233993   207App   15.444146  
     306Ap    15.523778   208App   15.581745   209App   15.634800  
     307Ap    15.680473   210App   15.725397   308Ap    15.758894  
     309Ap    15.836082   310Ap    15.943164   211App   16.100381  
     311Ap    16.154897   312Ap    16.303860   313Ap    16.343935  
     212App   16.399883   213App   16.445437   314Ap    16.501992  
     315Ap    16.664896   214App   16.696807   316Ap    16.706487  
     215App   16.828606   317Ap    16.846468   216App   16.910671  
     318Ap    16.979238   319Ap    17.073826   217App   17.315079  
     320Ap    17.320250   321Ap    17.528582   218App   17.562048  
     219App   17.613743   322Ap    17.653555   323Ap    17.709072  
     220App   17.791575   324Ap    17.929841   221App   18.043534  
     325Ap    18.077798   326Ap    18.163785   222App   18.256941  
     327Ap    18.307224   223App   18.335550   328Ap    18.452103  
     329Ap    18.620393   224App   18.629104   225App   18.832035  
     330Ap    18.877076   331Ap    18.927798   332Ap    19.141827  
     226App   19.162878   227App   19.244068   333Ap    19.297227  
     334Ap    19.451324   228App   19.499123   335Ap    19.558348  
     229App   19.626191   336Ap    19.810404   230App   19.830761  
     337Ap    20.024827   338Ap    20.186478   231App   20.197406  
     339Ap    20.259955   232App   20.266916   340Ap    20.534973  
     233App   20.583543   341Ap    20.587558   342Ap    20.706945  
     234App   20.765527   343Ap    20.895722   235App   20.922965  
     344Ap    21.004833   236App   21.053285   345Ap    21.171021  
     237App   21.387355   238App   21.416614   346Ap    21.430091  
     347Ap    21.512291   348Ap    21.659626   239App   21.862225  
     349Ap    21.923852   240App   22.064829   350Ap    22.183591  
     351Ap    22.243747   241App   22.286108   352Ap    22.343362  
     242App   22.370122   243App   22.473789   353Ap    22.483283  
     354Ap    22.619516   355Ap    22.743622   244App   22.743668  
     356Ap    22.872161   245App   22.947661   357Ap    22.948936  
     358Ap    23.064703   246App   23.150522   359Ap    23.389270  
     247App   23.507660   360Ap    23.551761   248App   23.612011  
     361Ap    23.620192   362Ap    23.700948   249App   23.725985  
     363Ap    23.775632   250App   23.792315   364Ap    23.913275  
     251App   24.234829   365Ap    24.302990   252App   24.308205  
     366Ap    24.346688   367Ap    24.408747   253App   24.434505  
     254App   24.552934   368Ap    24.558796   369Ap    24.584838  
     255App   24.617200   370Ap    24.665706   256App   24.718848  
     371Ap    24.908996   372Ap    25.084173   373Ap    25.130733  
     257App   25.269431   258App   25.315330   374Ap    25.502241  
     375Ap    25.730425   259App   26.043152   376Ap    26.091544  
     260App   26.136502   377Ap    26.435550   378Ap    26.659843  
     261App   26.846773   379Ap    26.847069   380Ap    27.018388  
     262App   27.101427   381Ap    27.112514   263App   27.193816  
     382Ap    27.411160   264App   27.453329   383Ap    27.484188  
     384Ap    27.519509   265App   27.582391   266App   27.680754  
     385Ap    27.692409   267App   27.823580   386Ap    27.956528  
     387Ap    28.001149   388Ap    28.279751   268App   28.344797  
     389Ap    28.552290   390Ap    29.144165   269App   29.183617  
     391Ap    29.215570   270App   29.383381   392Ap    29.491543  
     393Ap    30.092462   271App   30.927133   394Ap    30.967597  
     272App   31.144775   395Ap    31.209366   396Ap    31.587310  
     273App   31.630199   397Ap    31.632948   274App   32.052432  
     398Ap    32.464226   275App   32.474403   399Ap    32.480152  
     276App   32.622219   400Ap    33.035943   401Ap    33.127851  
     277App   33.160878   402Ap    33.931859   278App   34.120784  
     403Ap    34.135398   404Ap    34.215240   405Ap    34.596754  
     279App   35.561063   406Ap    35.599643   280App   37.336988  
     407Ap    37.652080   408Ap    37.940004   281App   37.950922  
     409Ap    39.149845   410Ap    40.585871   411Ap    64.215378  
     412Ap    85.354910   413Ap   106.460499  

    Final Occupation by Irrep:
             Ap   App 
    DOCC [     9,    2 ]

  Energy converged.

  @RHF Final Energy:  -167.84351828080122

   => Energetics <=

    Nuclear Repulsion Energy =             58.9249023011259041
    One-Electron Energy =                -345.1990678930787908
    Two-Electron Energy =                 118.4306473111516880
    Total Energy =                       -167.8435182808012200



Properties will be evaluated at   0.000000,   0.000000,   0.000000 Bohr

Properties computed using the SCF density matrix

  Nuclear Dipole Moment: (a.u.)
     X:    -1.7366      Y:    -0.6268      Z:     0.0000

  Electronic Dipole Moment: (a.u.)
     X:     1.0631      Y:     0.0261      Z:     0.0000

  Dipole Moment: (a.u.)
     X:    -0.6735      Y:    -0.6007      Z:     0.0000     Total:     0.9024

  Dipole Moment: (Debye)
     X:    -1.7118      Y:    -1.5269      Z:     0.0000     Total:     2.2938


*** tstop() called on n411-012.vsc4.prov at Fri Aug  7 17:20:42 2020
Module time:
	user time   =   10299.35 seconds =     171.66 minutes
	system time =    5381.01 seconds =      89.68 minutes
	total time  =      15346 seconds =     255.77 minutes
Total time:
	user time   =   10299.35 seconds =     171.66 minutes
	system time =    5381.01 seconds =      89.68 minutes
	total time  =      15346 seconds =     255.77 minutes

*** tstart() called on n411-012.vsc4.prov
*** at Fri Aug  7 17:20:42 2020


	Wfn Parameters:
	--------------------
	Wavefunction         = CCSD
	Number of irreps     = 2
	Number of MOs        = 694
	Number of active MOs = 691
	AO-Basis             = NONE
	Semicanonical        = false
	Reference            = RHF
	Print Level          = 1

	IRREP	# MOs	# FZDC	# DOCC	# SOCC	# VIRT	# FZVR
	-----	-----	------	------	------	------	------
	 Ap	   413	    3	    6	    0	    404	    0
	 App	   281	    0	    2	    0	    279	    0
	Transforming integrals...
	IWL integrals will be deleted.
	(OO|OO)...
	Presorting SO-basis two-electron integrals.
	Sorting File: SO Ints (nn|nn) nbuckets = 1
	Transforming the one-electron integrals and constructing Fock matrices
	Starting first half-transformation.
	Sorting half-transformed integrals.
	First half integral transformation complete.
	Starting second half-transformation.
	Two-electron integral transformation complete.
	(OO|OV)...
	Starting second half-transformation.
	Two-electron integral transformation complete.
	(OO|VV)...
	Starting second half-transformation.
	Two-electron integral transformation complete.
	(OV|OO)...
	Starting first half-transformation.
	Sorting half-transformed integrals.
	First half integral transformation complete.
	Starting second half-transformation.
	Two-electron integral transformation complete.
	(OV|OV)...
	Starting second half-transformation.
	Two-electron integral transformation complete.
	(OV|VV)...
	Starting second half-transformation.
	Two-electron integral transformation complete.
	(VV|OO)...
	Starting first half-transformation.
	Sorting half-transformed integrals.
	First half integral transformation complete.
	Starting second half-transformation.
	Two-electron integral transformation complete.
	(VV|OV)...
	Starting second half-transformation.
	Two-electron integral transformation complete.
	(VV|VV)...
	Starting second half-transformation.
	Two-electron integral transformation complete.
	Frozen core energy     =   -164.25469712283913

	Size of irrep 0 of <ab|cd> integrals:  58108.477 (MW) / 464867.818 (MB)
	Size of irrep 1 of <ab|cd> integrals:  50819.587 (MW) / 406556.693 (MB)
	Total:                                108928.064 (MW) / 871424.511 (MB)

	Size of irrep 0 of <ia|bc> integrals:    718.832 (MW) /   5750.656 (MB)
	Size of irrep 1 of <ia|bc> integrals:    559.522 (MW) /   4476.178 (MB)
	Total:                                  1278.354 (MW) /  10226.834 (MB)

	Size of irrep 0 of tijab amplitudes:       9.642 (MW) /     77.138 (MB)
	Size of irrep 1 of tijab amplitudes:       5.410 (MW) /     43.283 (MB)
	Total:                                    15.053 (MW) /    120.421 (MB)

	Nuclear Rep. energy          =     58.92490230112590
	SCF energy                   =   -167.84351828080122
	One-electron energy          =   -111.96622472815531
	Two-electron energy          =     49.45250126906703
	Reference energy             =   -167.84351828080150

*** tstop() called on n411-012.vsc4.prov at Fri Aug  7 23:22:09 2020
Module time:
	user time   =   28451.24 seconds =     474.19 minutes
	system time =    9665.35 seconds =     161.09 minutes
	total time  =      21687 seconds =     361.45 minutes
Total time:
	user time   =   38750.71 seconds =     645.85 minutes
	system time =   15046.36 seconds =     250.77 minutes
	total time  =      37033 seconds =     617.22 minutes

*** tstart() called on n411-012.vsc4.prov
*** at Fri Aug  7 23:22:09 2020

            **************************
            *                        *
            *        CCENERGY        *
            *                        *
            **************************

    Nuclear Rep. energy (wfn)     =   58.924902301125904
    SCF energy          (wfn)     = -167.843518280801220
    Reference energy    (file100) = -167.843518280801504

    Input parameters:
    -----------------
    Wave function   =     CCSD
    Reference wfn   =     RHF
    Brueckner       =     No
    Memory (Mbytes) =     450000.0
    Maxiter         =     50
    R_Convergence   =     1.0e-07
    E_Convergence   =     1.0e-06
    Restart         =     Yes
    DIIS            =     Yes
    AO Basis        =     NONE
    ABCD            =     NEW
    Cache Level     =     2
    Cache Type      =     LOW
    Print Level     =     1
    Num. of threads =     48
    # Amps to Print =     10
    Print MP2 Amps? =     No
    Analyze T2 Amps =     No
    Print Pair Ener =     No
    Local CC        =     No
    SCS-MP2         =     False
    SCSN-MP2        =     False
    SCS-CCSD        =     False

MP2 correlation energy -0.6469508140685550
                Solving CC Amplitude Equations
                ------------------------------
  Iter             Energy              RMS        T1Diag      D1Diag    New D1Diag    D2Diag
  ----     ---------------------    ---------   ----------  ----------  ----------   --------
     0        -0.646950814068093    0.000e+00    0.000000    0.000000    0.000000    0.154524
     1        -0.618720038918462    3.858e-01    0.032197    0.087423    0.087423    0.156624
     2        -0.644557142707620    9.542e-02    0.017053    0.046868    0.046868    0.164852
     3        -0.632158297743123    2.723e-02    0.018861    0.053036    0.053036    0.158364
     4        -0.630106807899434    4.816e-03    0.018225    0.051400    0.051400    0.157302
     5        -0.630218099220954    1.345e-03    0.017996    0.050848    0.050848    0.157124
     6        -0.630186153276094    5.587e-04    0.017930    0.050732    0.050732    0.156986
     7        -0.630140999214538    1.906e-04    0.017896    0.050653    0.050653    0.156920
     8        -0.630152411698065    6.591e-05    0.017895    0.050656    0.050656    0.156915
     9        -0.630152582092740    2.795e-05    0.017895    0.050657    0.050657    0.156912
    10        -0.630151762718818    1.264e-05    0.017896    0.050660    0.050660    0.156910
    11        -0.630152362578494    4.923e-06    0.017897    0.050662    0.050662    0.156911
    12        -0.630152610157290    1.839e-06    0.017897    0.050663    0.050663    0.156911
    13        -0.630152546072679    7.263e-07    0.017897    0.050663    0.050663    0.156911
    14        -0.630152546463335    2.256e-07    0.017897    0.050663    0.050663    0.156911
    15        -0.630152547503304    6.464e-08    0.017897    0.050663    0.050663    0.156911
    15        -0.630152547503304    6.464e-08    0.017897    0.050663    0.050663    0.156911

    Iterations converged.


    CCSD corr. energy   =   -0.630152547503304
    PPL corr. energy    =    0.154101081535414
    OS PPL corr. energy =    0.127455081311867
    SS PPL corr. energy =    0.026646000223539
    Largest TIA Amplitudes:
              4   9         0.0260238423
              6 410        -0.0220370512
              6 409        -0.0218144371
              4  12        -0.0189127972
              4  10        -0.0162431509
              6 408        -0.0159614048
              4   8        -0.0158422658
              4   7        -0.0125817890
              6 411        -0.0103834374
              4  14         0.0101885531

    Largest TIjAb Amplitudes:
      5   5   9   9        -0.0339120408
      7   7 410 410        -0.0304532762
      7   7 408 410        -0.0258205025
      7   7 410 408        -0.0258205025
      7   7 409 410        -0.0253421941
      7   7 410 409        -0.0253421941
      4   4   9   9        -0.0234417118
      7   7 409 409        -0.0232813536
      7   7 408 408        -0.0228446270
      5   7   9 410        -0.0218285244

    SCF energy       (wfn)                    = -167.843518280801220
    Reference energy (file100)                = -167.843518280801504

    Opposite-spin MP2 correlation energy      =   -0.486433885245181
    Same-spin MP2 correlation energy          =   -0.160516928822912
    MP2 correlation energy                    =   -0.646950814068555
      * MP2 total energy                      = -168.490469094870065

    Opposite-spin CCSD correlation energy     =   -0.491501847865482
    Same-spin CCSD correlation energy         =   -0.138650695883786
    CCSD correlation energy                   =   -0.630152547503304
      * CCSD total energy                     = -168.473670828304819


*** tstop() called on n411-012.vsc4.prov at Sat Aug  8 03:51:18 2020
Module time:
	user time   =   31990.49 seconds =     533.17 minutes
	system time =    4230.04 seconds =      70.50 minutes
	total time  =      16149 seconds =     269.15 minutes
Total time:
	user time   =   70741.20 seconds =    1179.02 minutes
	system time =   19276.40 seconds =     321.27 minutes
	total time  =      53182 seconds =     886.37 minutes

*** Psi4 exiting successfully. Buy a developer a beer!
