
    -----------------------------------------------------------------------
          Psi4: An Open-Source Ab Initio Electronic Structure Package
                               Psi4 1.4a3.dev88 

                         Git: Rev {master} 262e345 


    D. G. A. Smith, L. A. Burns, A. C. Simmonett, R. M. Parrish,
    M. C. Schieber, R. Galvelis, P. Kraus, H. Kruse, R. Di Remigio,
    A. Alenaizan, A. M. James, S. Lehtola, J. P. Misiewicz, M. Scheurer,
    R. A. Shaw, J. B. Schriber, Y. Xie, Z. L. Glick, D. A. Sirianni,
    J. S. O'Brien, J. M. Waldrop, A. Kumar, E. G. Hohenstein,
    B. P. Pritchard, B. R. Brooks, H. F. Schaefer III, A. Yu. Sokolov,
    K. Patkowski, A. E. DePrince III, U. Bozkaya, R. A. King,
    F. A. Evangelista, J. M. Turney, T. D. Crawford, C. D. Sherrill,
    J. Chem. Phys. 152(18) 184108 (2020). https://doi.org/10.1063/5.0006002

                            Additional Code Authors
    E. T. Seidl, C. L. Janssen, E. F. Valeev, M. L. Leininger,
    J. F. Gonthier, R. M. Richard, H. R. McAlexander, M. Saitow, X. Wang,
    P. Verma, and M. H. Lechner

             Previous Authors, Complete List of Code Contributors,
                       and Citations for Specific Modules
    https://github.com/psi4/psi4/blob/master/codemeta.json
    https://github.com/psi4/psi4/graphs/contributors
    http://psicode.org/psi4manual/master/introduction.html#citing-psifour

    -----------------------------------------------------------------------


    Psi4 started on: Tuesday, 26 January 2021 06:16PM

    Process ID: 401724
    Host:       n412-039.vsc4.prov
    PSIDATADIR: /home/fs71337/gallo4/psi4/eri-6/psi4/build/stage/share/psi4
    Memory:     500.0 MiB
    Threads:    48
    
  ==> Input File <==

--------------------------------------------------------------------------
# Any line starting with the # character is a comment line
memory 250000 mb
molecule molecule{
0 1
C          0.0000000000        0.0000000000       -0.0000000000
H          0.8868624468        0.0000000000        0.6271064501
H         -0.8868624468        0.0000000000        0.6271064501
H          0.0000000000       -0.8868624468       -0.6271064501
H          0.0000000000        0.8868624468       -0.6271064501
}

set {
  reference rhf
  basis aug-cc-pV(d+d)Z
  scf_type OUT_OF_CORE
  freeze_core true
}

energy('ccsd(t)')
--------------------------------------------------------------------------

  Memory set to 232.831 GiB by Python driver.

Scratch directory: /binfl/lv71337/airmler/temp/

*** tstart() called on n412-039.vsc4.prov
*** at Tue Jan 26 18:16:02 2021

   => Loading Basis Set <=

    Name: AUG-CC-PV(D+D)Z
    Role: ORBITAL
    Keyword: BASIS
    atoms 1   entry C          line   210 file /home/fs71337/gallo4/psi4/eri-6/psi4/build/stage/share/psi4/basis/aug-cc-pv_dpd_z.gbs 
    atoms 2-5 entry H          line    68 file /home/fs71337/gallo4/psi4/eri-6/psi4/build/stage/share/psi4/basis/aug-cc-pv_dpd_z.gbs 


         ---------------------------------------------------------
                                   SCF
               by Justin Turney, Rob Parrish, Andy Simmonett
                          and Daniel G. A. Smith
                              RHF Reference
                       48 Threads, 238418 MiB Core
         ---------------------------------------------------------

  ==> Geometry <==

    Molecular point group: c2v
    Full point group: Td

    Geometry (in Angstrom), charge = 0, multiplicity = 1:

       Center              X                  Y                   Z               Mass       
    ------------   -----------------  -----------------  -----------------  -----------------
         C           -0.000000000000    -0.000000000000     0.000000000000    12.000000000000
         H            0.886862446800     0.000000000000     0.627106450100     1.007825032230
         H           -0.886862446800    -0.000000000000     0.627106450100     1.007825032230
         H            0.000000000000    -0.886862446800    -0.627106450100     1.007825032230
         H           -0.000000000000     0.886862446800    -0.627106450100     1.007825032230

  Running in c2v symmetry.

  Rotational constants: A =      5.31666  B =      5.31666  C =      5.31666 [cm^-1]
  Rotational constants: A = 159389.43669  B = 159389.43669  C = 159389.43669 [MHz]
  Nuclear repulsion =   13.482637439928556

  Charge       = 0
  Multiplicity = 1
  Electrons    = 10
  Nalpha       = 5
  Nbeta        = 5

  ==> Algorithm <==

  SCF Algorithm Type is OUT_OF_CORE.
  DIIS enabled.
  MOM disabled.
  Fractional occupation disabled.
  Guess Type is SAD.
  Energy threshold   = 1.00e-08
  Density threshold  = 1.00e-08
  Integral threshold = 1.00e-12

  ==> Primary Basis <==

  Basis Set: AUG-CC-PV(D+D)Z
    Blend: AUG-CC-PV(D+D)Z
    Number of shells: 29
    Number of basis function: 59
    Number of Cartesian functions: 61
    Spherical Harmonics?: true
    Max angular momentum: 2

  ==> Integral Setup <==

  ==> DiskJK: Disk-Based J/K Matrices <==

    J tasked:                  Yes
    K tasked:                  Yes
    wK tasked:                  No
    Memory [MiB]:           178813
    Schwarz Cutoff:          1E-12

  Minimum eigenvalue in the overlap matrix is 5.6214914132E-04.
  Reciprocal condition number of the overlap matrix is 8.4621190014E-05.
    Using symmetric orthogonalization.

  ==> Pre-Iterations <==

  SCF Guess: Superposition of Atomic Densities via on-the-fly atomic UHF (no occupation information).


 WARNING: Atomic UHF is not converging! Try casting from a smaller basis or call Rob at CCMST.

 WARNING: Atomic UHF is not converging! Try casting from a smaller basis or call Rob at CCMST.
   -------------------------
    Irrep   Nso     Nmo    
   -------------------------
     A1        25      25 
     A2         6       6 
     B1        14      14 
     B2        14      14 
   -------------------------
    Total      59      59
   -------------------------

  ==> Iterations <==

                        Total Energy        Delta E     RMS |[F,P]|

   @RHF iter SAD:   -38.33686851091564   -3.83369e+01   0.00000e+00 
   @RHF iter   1:   -40.17441011077063   -1.83754e+00   6.61157e-03 DIIS
   @RHF iter   2:   -40.19593718416222   -2.15271e-02   2.68473e-03 DIIS
   @RHF iter   3:   -40.19955811840362   -3.62093e-03   2.10647e-04 DIIS
   @RHF iter   4:   -40.19960377023285   -4.56518e-05   3.05222e-05 DIIS
   @RHF iter   5:   -40.19960506415489   -1.29392e-06   4.38181e-06 DIIS
   @RHF iter   6:   -40.19960509366271   -2.95078e-08   6.24349e-07 DIIS
   @RHF iter   7:   -40.19960509422532   -5.62608e-10   9.82357e-08 DIIS
   @RHF iter   8:   -40.19960509423895   -1.36353e-11   1.71155e-08 DIIS
   @RHF iter   9:   -40.19960509423944   -4.90274e-13   2.41506e-09 DIIS
  Energy and wave function converged.


  ==> Post-Iterations <==

    Orbital Energies [Eh]
    ---------------------

    Doubly Occupied:                                                      

       1A1   -11.214021     2A1    -0.944919     1B1    -0.544660  
       1B2    -0.544660     3A1    -0.544660  

    Virtual:                                                              

       4A1     0.037006     2B1     0.063673     5A1     0.063673  
       2B2     0.063673     3B2     0.146265     3B1     0.146265  
       6A1     0.146265     7A1     0.174372     4B1     0.301081  
       8A1     0.301081     4B2     0.301081     9A1     0.306411  
       1A2     0.306411    10A1     0.419693     5B1     0.440093  
       5B2     0.440093    11A1     0.440093     6B1     0.523340  
       2A2     0.523340     6B2     0.523340    12A1     0.567712  
       7B1     0.608006    13A1     0.608006     7B2     0.608006  
       8B1     0.667557    14A1     0.667557     8B2     0.667557  
       3A2     0.733963    15A1     0.733963     9B1     0.988898  
       9B2     0.988898    16A1     0.988898    17A1     1.128920  
      10B1     1.343494    10B2     1.343494    18A1     1.343494  
       4A2     1.741041    19A1     1.741041    11B1     1.892522  
       5A2     1.892522    11B2     1.892522    20A1     1.985513  
      12B1     2.216026    21A1     2.216026    12B2     2.216026  
      22A1     2.293594    13B2     2.293594    13B1     2.293594  
      23A1     2.640323     6A2     2.640323    24A1     2.839302  
      14B1     2.935550    25A1     2.935550    14B2     2.935550  

    Final Occupation by Irrep:
             A1    A2    B1    B2 
    DOCC [     3,    0,    1,    1 ]

  @RHF Final Energy:   -40.19960509423944

   => Energetics <=

    Nuclear Repulsion Energy =             13.4826374399285562
    One-Electron Energy =                 -79.7786441681168412
    Two-Electron Energy =                  26.0964016339488474
    Total Energy =                        -40.1996050942394447

Computation Completed


Properties will be evaluated at   0.000000,   0.000000,   0.000000 [a0]

Properties computed using the SCF density matrix

  Nuclear Dipole Moment: [e a0]
     X:     0.0000      Y:     0.0000      Z:     0.0000

  Electronic Dipole Moment: [e a0]
     X:     0.0000      Y:     0.0000      Z:     0.0000

  Dipole Moment: [e a0]
     X:     0.0000      Y:     0.0000      Z:     0.0000     Total:     0.0000

  Dipole Moment: [D]
     X:     0.0000      Y:     0.0000      Z:     0.0000     Total:     0.0000


*** tstop() called on n412-039.vsc4.prov at Tue Jan 26 18:16:03 2021
Module time:
	user time   =      17.59 seconds =       0.29 minutes
	system time =       1.07 seconds =       0.02 minutes
	total time  =          1 seconds =       0.02 minutes
Total time:
	user time   =      17.59 seconds =       0.29 minutes
	system time =       1.07 seconds =       0.02 minutes
	total time  =          1 seconds =       0.02 minutes

*** tstart() called on n412-039.vsc4.prov
*** at Tue Jan 26 18:16:03 2021


	Wfn Parameters:
	--------------------
	Wavefunction         = CCSD_T
	Number of irreps     = 4
	Number of MOs        = 59
	Number of active MOs = 58
	AO-Basis             = NONE
	Semicanonical        = false
	Reference            = RHF
	Print Level          = 1

	IRREP	# MOs	# FZDC	# DOCC	# SOCC	# VIRT	# FZVR
	-----	-----	------	------	------	------	------
	 A1	   25	    1	    2	    0	    22	    0
	 A2	   6	    0	    0	    0	    6	    0
	 B1	   14	    0	    1	    0	    13	    0
	 B2	   14	    0	    1	    0	    13	    0
	Transforming integrals...
	IWL integrals will be deleted.
	(OO|OO)...
	Presorting SO-basis two-electron integrals.
	Sorting File: SO Ints (nn|nn) nbuckets = 1
	Constructing frozen core operators
	Starting first half-transformation.
	Sorting half-transformed integrals.
	First half integral transformation complete.
	Starting second half-transformation.
	Two-electron integral transformation complete.
	(OO|OV)...
	Starting second half-transformation.
	Two-electron integral transformation complete.
	(OO|VV)...
	Starting second half-transformation.
	Two-electron integral transformation complete.
	(OV|OO)...
	Starting first half-transformation.
	Sorting half-transformed integrals.
	First half integral transformation complete.
	Starting second half-transformation.
	Two-electron integral transformation complete.
	(OV|OV)...
	Starting second half-transformation.
	Two-electron integral transformation complete.
	(OV|VV)...
	Starting second half-transformation.
	Two-electron integral transformation complete.
	(VV|OO)...
	Starting first half-transformation.
	Sorting half-transformed integrals.
	First half integral transformation complete.
	Starting second half-transformation.
	Two-electron integral transformation complete.
	(VV|OV)...
	Starting second half-transformation.
	Two-electron integral transformation complete.
	(VV|VV)...
	Starting second half-transformation.
	Two-electron integral transformation complete.
	Frozen core energy     =    -36.25594965811357

	Size of irrep 0 of <ab|cd> integrals:      0.736 (MW) /      5.889 (MB)
	Size of irrep 1 of <ab|cd> integrals:      0.362 (MW) /      2.899 (MB)
	Size of irrep 2 of <ab|cd> integrals:      0.530 (MW) /      4.240 (MB)
	Size of irrep 3 of <ab|cd> integrals:      0.530 (MW) /      4.240 (MB)
	Total:                                     2.159 (MW) /     17.268 (MB)

	Size of irrep 0 of <ia|bc> integrals:      0.060 (MW) /      0.480 (MB)
	Size of irrep 1 of <ia|bc> integrals:      0.023 (MW) /      0.183 (MB)
	Size of irrep 2 of <ia|bc> integrals:      0.039 (MW) /      0.314 (MB)
	Size of irrep 3 of <ia|bc> integrals:      0.039 (MW) /      0.314 (MB)
	Total:                                     0.162 (MW) /      1.292 (MB)

	Size of irrep 0 of tijab amplitudes:       0.005 (MW) /      0.041 (MB)
	Size of irrep 1 of tijab amplitudes:       0.001 (MW) /      0.010 (MB)
	Size of irrep 2 of tijab amplitudes:       0.003 (MW) /      0.023 (MB)
	Size of irrep 3 of tijab amplitudes:       0.003 (MW) /      0.023 (MB)
	Total:                                     0.012 (MW) /      0.097 (MB)

	Nuclear Rep. energy          =     13.48263743992856
	SCF energy                   =    -40.19960509423944
	One-electron energy          =    -29.69478630648414
	Two-electron energy          =     12.26849343042979
	Reference energy             =    -40.19960509423937

*** tstop() called on n412-039.vsc4.prov at Tue Jan 26 18:16:05 2021
Module time:
	user time   =       0.19 seconds =       0.00 minutes
	system time =       0.21 seconds =       0.00 minutes
	total time  =          2 seconds =       0.03 minutes
Total time:
	user time   =      17.78 seconds =       0.30 minutes
	system time =       1.28 seconds =       0.02 minutes
	total time  =          3 seconds =       0.05 minutes
            **************************
            *                        *
            *        CCENERGY        *
            *                        *
            **************************

    Nuclear Rep. energy (wfn)     =   13.482637439928556
    SCF energy          (wfn)     =  -40.199605094239445
    Reference energy    (file100) =  -40.199605094239367

    Input parameters:
    -----------------
    Wave function   =     CCSD_T
    Reference wfn   =     RHF
    Brueckner       =     No
    Memory (Mbytes) =     250000.0
    Maxiter         =     50
    R_Convergence   =     1.0e-07
    E_Convergence   =     1.0e-06
    Restart         =     Yes
    DIIS            =     Yes
    AO Basis        =     NONE
    ABCD            =     NEW
    Cache Level     =     2
    Cache Type      =     LOW
    Print Level     =     1
    Num. of threads =     48
    # Amps to Print =     10
    Print MP2 Amps? =     No
    Analyze T2 Amps =     No
    Print Pair Ener =     No
    Local CC        =     No
    SCS-MP2         =     False
    SCSN-MP2        =     False
    SCS-CCSD        =     False

MP2 correlation energy -0.1677458469550060
                Solving CC Amplitude Equations
                ------------------------------
  Iter             Energy              RMS        T1Diag      D1Diag    New D1Diag    D2Diag
  ----     ---------------------    ---------   ----------  ----------  ----------   --------
     0        -0.167745846955006    0.000e+00    0.000000    0.000000    0.000000    0.112153
     1        -0.185170976554323    3.856e-02    0.005111    0.008213    0.008213    0.126725
     2        -0.190730765849084    1.191e-02    0.006363    0.010188    0.010188    0.132886
     3        -0.191027687035170    2.464e-03    0.006689    0.010714    0.010714    0.133686
     4        -0.191046966283848    6.987e-04    0.006734    0.010781    0.010781    0.133851
     5        -0.191049723589831    1.727e-04    0.006741    0.010791    0.010791    0.133862
     6        -0.191050493874393    4.715e-05    0.006742    0.010792    0.010792    0.133861
     7        -0.191051056384053    9.609e-06    0.006742    0.010791    0.010791    0.133862
     8        -0.191051140141729    2.263e-06    0.006742    0.010791    0.010791    0.133862
     9        -0.191051120152706    5.673e-07    0.006742    0.010791    0.010791    0.133862
    10        -0.191051119284577    1.655e-07    0.006742    0.010791    0.010791    0.133862
    11        -0.191051123192978    3.972e-08    0.006742    0.010791    0.010791    0.133862

    Iterations converged.


    Largest TIA Amplitudes:
              1   9         0.0046573882
              3  46         0.0046573882
              2  33         0.0046573882
              2  31        -0.0045189849
              1   7        -0.0045189848
              3  44        -0.0045189848
              2  29        -0.0040332766
              1   2        -0.0040332766
              3  42        -0.0040332766
              2  38         0.0039684589

    Largest TIjAb Amplitudes:
      3   3  43  43        -0.0290475557
      2   2  30  30        -0.0290475555
      2   2  35  35        -0.0242856138
      3   3  48  48        -0.0242856138
      3   3  43  48        -0.0218109663
      3   3  48  43        -0.0218109663
      2   2  30  35        -0.0218109662
      2   2  35  30        -0.0218109662
      1   1   4   4        -0.0203295958
      1   1  12  12        -0.0189695839

    SCF energy       (wfn)                    =  -40.199605094239445
    Reference energy (file100)                =  -40.199605094239367

    Opposite-spin MP2 correlation energy      =   -0.135879136509500
    Same-spin MP2 correlation energy          =   -0.031866710445506
    Singles MP2 correlation energy            =   -0.000000000000000
    MP2 correlation energy                    =   -0.167745846955006
      * MP2 total energy                      =  -40.367350941194374

    Opposite-spin CCSD correlation energy     =   -0.160007202617460
    Same-spin CCSD correlation energy         =   -0.031043920575518
    Singles CCSD correlation energy           =    0.000000000000000
    CCSD correlation energy                   =   -0.191051123192978
      * CCSD total energy                     =  -40.390656217432344

            **************************
            *                        *
            *        CCTRIPLES       *
            *                        *
            **************************


    Wave function   =    CCSD_T
    Reference wfn   =      RHF

    Nuclear Rep. energy (wfn)                =   13.482637439928556
    SCF energy          (wfn)                =  -40.199605094239445
    Reference energy    (file100)            =  -40.199605094239367
    CCSD energy         (file100)            =   -0.191051123192978
    Total CCSD energy   (file100)            =  -40.390656217432344

    Number of ijk index combinations:               20
    Memory available in words        :     31250000000
    ~Words needed per explicit thread:           42592
    Number of threads for explicit ijk threading:   48

    (T) energy                                =   -0.004470520084253
      * CCSD(T) total energy                  =  -40.395126737516598


    Psi4 stopped on: Tuesday, 26 January 2021 06:16PM
    Psi4 wall time for execution: 0:00:05.66

*** Psi4 exiting successfully. Buy a developer a beer!
