
    -----------------------------------------------------------------------
          Psi4: An Open-Source Ab Initio Electronic Structure Package
                               Psi4 1.2a1.dev938 

                         Git: Rev {HEAD} fc51d9a dirty


    R. M. Parrish, L. A. Burns, D. G. A. Smith, A. C. Simmonett,
    A. E. DePrince III, E. G. Hohenstein, U. Bozkaya, A. Yu. Sokolov,
    R. Di Remigio, R. M. Richard, J. F. Gonthier, A. M. James,
    H. R. McAlexander, A. Kumar, M. Saitow, X. Wang, B. P. Pritchard,
    P. Verma, H. F. Schaefer III, K. Patkowski, R. A. King, E. F. Valeev,
    F. A. Evangelista, J. M. Turney, T. D. Crawford, and C. D. Sherrill,
    J. Chem. Theory Comput. 13(7) pp 3185--3197 (2017).
    (doi: 10.1021/acs.jctc.7b00174)

    -----------------------------------------------------------------------


    Psi4 started on: Thursday, 20 August 2020 07:55PM

    Process ID: 422879
    PSIDATADIR: /home/irmler/Programs/psi4/beforeGrueneis3/stage/usr/local/psi4/share/psi4
    Memory:     500.0 MiB
    Threads:    4
    
  ==> Input File <==

--------------------------------------------------------------------------
# Any line starting with the # character is a comment line
memory 250000 mb
molecule molecule{
-1 3
Si         0.0000000000        0.0000000000        0.0535071526
H          0.0000000000        0.0000000000       -1.4909370929
}

set {
  reference uhf
  basis aug-cc-pv(d+d)z
  scf_type OUT_OF_CORE
  freeze_core true
}

energy('ccsd')
--------------------------------------------------------------------------

  Memory set to 232.831 GiB by Python driver.

*** tstart() called on cqc05
*** at Thu Aug 20 19:55:45 2020

   => Loading Basis Set <=

    Name: AUG-CC-PV(D+D)Z
    Role: ORBITAL
    Keyword: BASIS
    atoms 1 entry SI         line   588 file /home/irmler/Programs/psi4/beforeGrueneis3/stage/usr/local/psi4/share/psi4/basis/aug-cc-pv_dpd_z.gbs 
    atoms 2 entry H          line    56 file /home/irmler/Programs/psi4/beforeGrueneis3/stage/usr/local/psi4/share/psi4/basis/aug-cc-pv_dpd_z.gbs 


         ---------------------------------------------------------
                                   SCF
            by Justin Turney, Rob Parrish, Andy Simmonett
                             and Daniel Smith
                              UHF Reference
                        4 Threads, 238418 MiB Core
         ---------------------------------------------------------

  ==> Geometry <==

    Molecular point group: c2v
    Full point group: C_inf_v

    Geometry (in Angstrom), charge = -1, multiplicity = 3:

       Center              X                  Y                   Z               Mass       
    ------------   -----------------  -----------------  -----------------  -----------------
          SI          0.000000000000     0.000000000000     0.053701670266    27.976926532460
           H          0.000000000000     0.000000000000    -1.490742575234     1.007825032070

  Running in c2v symmetry.

  Rotational constants: A = ************  B =      7.26501  C =      7.26501 [cm^-1]
  Rotational constants: A = ************  B = 217799.64379  C = 217799.64379 [MHz]
  Nuclear repulsion =    4.796858767706161

  Charge       = -1
  Multiplicity = 3
  Electrons    = 16
  Nalpha       = 9
  Nbeta        = 7

  ==> Algorithm <==

  SCF Algorithm Type is OUT_OF_CORE.
  DIIS enabled.
  MOM disabled.
  Fractional occupation disabled.
  Guess Type is GWH.
  Energy threshold   = 1.00e-08
  Density threshold  = 1.00e-08
  Integral threshold = 0.00e+00

  ==> Primary Basis <==

  Basis Set: AUG-CC-PV(D+D)Z
    Blend: AUG-CC-PV(D+D)Z
    Number of shells: 17
    Number of basis function: 41
    Number of Cartesian functions: 44
    Spherical Harmonics?: true
    Max angular momentum: 2

  ==> Pre-Iterations <==

   -------------------------------------------------------
    Irrep   Nso     Nmo     Nalpha   Nbeta   Ndocc  Nsocc
   -------------------------------------------------------
     A1        20      20       0       0       0       0
     A2         3       3       0       0       0       0
     B1         9       9       0       0       0       0
     B2         9       9       0       0       0       0
   -------------------------------------------------------
    Total      41      41       9       7       7       2
   -------------------------------------------------------

  ==> Integral Setup <==

  ==> DiskJK: Disk-Based J/K Matrices <==

    J tasked:                  Yes
    K tasked:                  Yes
    wK tasked:                  No
    Memory (MB):            178813
    Schwarz Cutoff:          1E-12

  Minimum eigenvalue in the overlap matrix is 2.3206065339E-03.
  Using Symmetric Orthogonalization.

  SCF Guess: Generalized Wolfsberg-Helmholtz.

  ==> Iterations <==

                        Total Energy        Delta E     RMS |[F,P]|

   @UHF iter   1:  -276.14128720296776   -2.76141e+02   2.04856e-01 
   @UHF iter   2:  -286.88794287996939   -1.07467e+01   1.00592e-01 DIIS
   @UHF iter   3:  -289.38273159147195   -2.49479e+00   1.47105e-02 DIIS
   @UHF iter   4:  -289.45659596249794   -7.38644e-02   3.56514e-03 DIIS
   @UHF iter   5:  -289.45917704283124   -2.58108e-03   1.25545e-03 DIIS
   @UHF iter   6:  -289.45997589751943   -7.98855e-04   5.34237e-04 DIIS
   @UHF iter   7:  -289.46021274387112   -2.36846e-04   2.53280e-04 DIIS
   @UHF iter   8:  -289.46027343791684   -6.06940e-05   7.05421e-05 DIIS
   @UHF iter   9:  -289.46027954057752   -6.10266e-06   4.13954e-05 DIIS
   @UHF iter  10:  -289.46028140551863   -1.86494e-06   1.20203e-05 DIIS
   @UHF iter  11:  -289.46028157863179   -1.73113e-07   2.38697e-06 DIIS
   @UHF iter  12:  -289.46028158264988   -4.01809e-09   4.98024e-07 DIIS
   @UHF iter  13:  -289.46028158290414   -2.54261e-10   1.48637e-07 DIIS
   @UHF iter  14:  -289.46028158292506   -2.09184e-11   3.64715e-08 DIIS
   @UHF iter  15:  -289.46028158292597   -9.09495e-13   1.12463e-08 DIIS
   @UHF iter  16:  -289.46028158292597    0.00000e+00   4.01458e-09 DIIS

  ==> Post-Iterations <==

   @Spin Contamination Metric:   3.387678362E-02
   @S^2 Expected:                2.000000000E+00
   @S^2 Observed:                2.033876784E+00
   @S   Expected:                1.000000000E+00
   @S   Observed:                1.000000000E+00

    Orbital Energies (a.u.)
    -----------------------

    Alpha Occupied:                                                       

       1A1   -68.551650     2A1    -5.895936     1B2    -4.004136  
       1B1    -4.004136     3A1    -3.995165     4A1    -0.435988  
       5A1    -0.161839     2B2    -0.055956     2B1    -0.055956  

    Alpha Virtual:                                                        

       6A1     0.175961     7A1     0.198291     3B2     0.217052  
       3B1     0.217052     8A1     0.274507     9A1     0.381220  
      10A1     0.386016     1A2     0.386016     4B1     0.397340  
       4B2     0.397340    11A1     0.544848    12A1     0.552264  
       5B1     0.650499     5B2     0.650499     6B2     0.752466  
       6B1     0.752466    13A1     0.815487    14A1     0.886053  
      15A1     0.887281     2A2     0.887281     7B1     0.909894  
       7B2     0.909894    16A1     1.141962    17A1     1.411327  
       8B1     2.142266     8B2     2.142266    18A1     2.376463  
      19A1     3.584730     3A2     3.584730     9B1     3.607606  
       9B2     3.607606    20A1     3.668910  

    Beta Occupied:                                                        

       1A1   -68.545096     2A1    -5.887648     3A1    -3.992311  
       1B2    -3.984616     1B1    -3.984616     4A1    -0.347039  
       5A1    -0.122687  

    Beta Virtual:                                                         

       6A1     0.179573     2B1     0.190347     2B2     0.190347  
       7A1     0.202980     8A1     0.294850     3B2     0.320642  
       3B1     0.320642     9A1     0.402100     4B1     0.430355  
       4B2     0.430355    10A1     0.450020     1A2     0.450020  
      11A1     0.563356    12A1     0.565851     5B1     0.664962  
       5B2     0.664962     6B2     0.816705     6B1     0.816705  
      13A1     0.825626    14A1     0.911901     7B1     0.945199  
       7B2     0.945199    15A1     0.962352     2A2     0.962352  
      16A1     1.155692    17A1     1.418017     8B1     2.145419  
       8B2     2.145419    18A1     2.380943    19A1     3.595259  
       3A2     3.595259     9B1     3.613116     9B2     3.613116  
      20A1     3.672433  

    Final Occupation by Irrep:
             A1    A2    B1    B2 
    DOCC [     5,    0,    1,    1 ]
    SOCC [     0,    0,    1,    1 ]

  Energy converged.

  @UHF Final Energy:  -289.46028158292597

   => Energetics <=

    Nuclear Repulsion Energy =              4.7968587677061612
    One-Electron Energy =                -414.4895053889920860
    Two-Electron Energy =                 120.2323650383599158
    PCM Polarization Energy =               0.0000000000000000
    Total Energy =                       -289.4602815829259725

    Alert: EFP and PCM quantities not currently incorporated into SCF psivars.
  UHF NO Occupations:
  HONO-2 :    5 A1 1.9835312
  HONO-1 :    2 B2 1.0000000
  HONO-0 :    2 B1 1.0000000
  LUNO+0 :    6 A1 0.0164688
  LUNO+1 :    7 A1 0.0006046
  LUNO+2 :    3 B2 0.0000003
  LUNO+3 :    3 B1 0.0000003



Properties will be evaluated at   0.000000,   0.000000,   0.000000 Bohr

Properties computed using the SCF density matrix

  Nuclear Dipole Moment: (a.u.)
     X:     0.0000      Y:     0.0000      Z:    -1.3964

  Electronic Dipole Moment: (a.u.)
     X:     0.0000      Y:     0.0000      Z:     1.3410

  Dipole Moment: (a.u.)
     X:     0.0000      Y:     0.0000      Z:    -0.0553     Total:     0.0553

  Dipole Moment: (Debye)
     X:     0.0000      Y:     0.0000      Z:    -0.1406     Total:     0.1406


*** tstop() called on cqc05 at Thu Aug 20 19:55:45 2020
Module time:
	user time   =       0.49 seconds =       0.01 minutes
	system time =       0.01 seconds =       0.00 minutes
	total time  =          0 seconds =       0.00 minutes
Total time:
	user time   =       0.49 seconds =       0.01 minutes
	system time =       0.01 seconds =       0.00 minutes
	total time  =          0 seconds =       0.00 minutes

*** tstart() called on cqc05
*** at Thu Aug 20 19:55:45 2020


	Wfn Parameters:
	--------------------
	Wavefunction         = CCSD
	Number of irreps     = 4
	Number of MOs        = 41
	Number of active MOs = 36
	AO-Basis             = NONE
	Semicanonical        = false
	Reference            = UHF
	Print Level          = 1

	IRREP	# MOs	# FZDC	# DOCC	# SOCC	# VIRT	# FZVR
	-----	-----	------	------	------	------	------
	 A1	   20	    3	    2	    0	    15	    0
	 A2	   3	    0	    0	    0	    3	    0
	 B1	   9	    1	    0	    1	    7	    0
	 B2	   9	    1	    0	    1	    7	    0
	Transforming integrals...
	IWL integrals will be deleted.
	(OO|OO)...
	Presorting SO-basis two-electron integrals.
	Sorting File: SO Ints (nn|nn) nbuckets = 1
	Transforming the one-electron integrals and constructing Fock matrices
	Starting AA/AB first half-transformation.
	Sorting AA/AB half-transformed integrals.
	Starting BB first half-transformation.
	Sorting BB half-transformed integrals.
	First half integral transformation complete.
	Starting AA second half-transformation.
	Starting AB second half-transformation.
	Starting BB second half-transformation.
	Two-electron integral transformation complete.
	(OO|OV)...
	Starting AA second half-transformation.
	Starting AB second half-transformation.
	Starting BB second half-transformation.
	Two-electron integral transformation complete.
	(OO|VV)...
	Starting AA second half-transformation.
	Starting AB second half-transformation.
	Starting BB second half-transformation.
	Two-electron integral transformation complete.
	(OV|OO)...
	Starting AA/AB first half-transformation.
	Sorting AA/AB half-transformed integrals.
	Starting BB first half-transformation.
	Sorting BB half-transformed integrals.
	First half integral transformation complete.
	Starting AA second half-transformation.
	Starting AB second half-transformation.
	Starting BB second half-transformation.
	Two-electron integral transformation complete.
	(OV|OV)...
	Starting AA second half-transformation.
	Starting AB second half-transformation.
	Starting BB second half-transformation.
	Two-electron integral transformation complete.
	(OV|VV)...
	Starting AA second half-transformation.
	Starting AB second half-transformation.
	Starting BB second half-transformation.
	Two-electron integral transformation complete.
	(VV|OO)...
	Starting AA/AB first half-transformation.
	Sorting AA/AB half-transformed integrals.
	Starting BB first half-transformation.
	Sorting BB half-transformed integrals.
	First half integral transformation complete.
	Starting AA second half-transformation.
	Starting AB second half-transformation.
	Starting BB second half-transformation.
	Two-electron integral transformation complete.
	(VV|OV)...
	Starting AA second half-transformation.
	Starting AB second half-transformation.
	Starting BB second half-transformation.
	Two-electron integral transformation complete.
	(VV|VV)...
	Starting AA second half-transformation.
	Starting AB second half-transformation.
	Starting BB second half-transformation.
	Two-electron integral transformation complete.
	Frozen core energy     =   -288.59768640425796

	Size of irrep 0 of <AB|CD> integrals:      0.022 (MW) /      0.180 (MB)
	Size of irrep 1 of <AB|CD> integrals:      0.009 (MW) /      0.071 (MB)
	Size of irrep 2 of <AB|CD> integrals:      0.016 (MW) /      0.127 (MB)
	Size of irrep 3 of <AB|CD> integrals:      0.016 (MW) /      0.127 (MB)
	Total:                                     0.063 (MW) /      0.505 (MB)

	Size of irrep 0 of <ab|cd> integrals:      0.027 (MW) /      0.215 (MB)
	Size of irrep 1 of <ab|cd> integrals:      0.012 (MW) /      0.095 (MB)
	Size of irrep 2 of <ab|cd> integrals:      0.021 (MW) /      0.166 (MB)
	Size of irrep 3 of <ab|cd> integrals:      0.021 (MW) /      0.166 (MB)
	Total:                                     0.080 (MW) /      0.642 (MB)

	Size of irrep 0 of <Ab|Cd> integrals:      0.120 (MW) /      0.958 (MB)
	Size of irrep 1 of <Ab|Cd> integrals:      0.041 (MW) /      0.326 (MB)
	Size of irrep 2 of <Ab|Cd> integrals:      0.073 (MW) /      0.583 (MB)
	Size of irrep 3 of <Ab|Cd> integrals:      0.073 (MW) /      0.583 (MB)
	Total:                                     0.306 (MW) /      2.451 (MB)

	Size of irrep 0 of <IA|BC> integrals:      0.015 (MW) /      0.117 (MB)
	Size of irrep 1 of <IA|BC> integrals:      0.004 (MW) /      0.030 (MB)
	Size of irrep 2 of <IA|BC> integrals:      0.008 (MW) /      0.065 (MB)
	Size of irrep 3 of <IA|BC> integrals:      0.008 (MW) /      0.065 (MB)
	Total:                                     0.034 (MW) /      0.276 (MB)

	Size of irrep 0 of <ia|bc> integrals:      0.011 (MW) /      0.087 (MB)
	Size of irrep 1 of <ia|bc> integrals:      0.001 (MW) /      0.010 (MB)
	Size of irrep 2 of <ia|bc> integrals:      0.005 (MW) /      0.037 (MB)
	Size of irrep 3 of <ia|bc> integrals:      0.005 (MW) /      0.037 (MB)
	Total:                                     0.021 (MW) /      0.171 (MB)

	Size of irrep 0 of <Ia|Bc> integrals:      0.016 (MW) /      0.127 (MB)
	Size of irrep 1 of <Ia|Bc> integrals:      0.004 (MW) /      0.036 (MB)
	Size of irrep 2 of <Ia|Bc> integrals:      0.009 (MW) /      0.073 (MB)
	Size of irrep 3 of <Ia|Bc> integrals:      0.009 (MW) /      0.073 (MB)
	Total:                                     0.039 (MW) /      0.310 (MB)

	Size of irrep 0 of <iA|bC> integrals:      0.010 (MW) /      0.083 (MB)
	Size of irrep 1 of <iA|bC> integrals:      0.001 (MW) /      0.010 (MB)
	Size of irrep 2 of <iA|bC> integrals:      0.004 (MW) /      0.030 (MB)
	Size of irrep 3 of <iA|bC> integrals:      0.004 (MW) /      0.030 (MB)
	Total:                                     0.019 (MW) /      0.153 (MB)

	Size of irrep 0 of tIjAb amplitudes:       0.001 (MW) /      0.011 (MB)
	Size of irrep 1 of tIjAb amplitudes:       0.000 (MW) /      0.000 (MB)
	Size of irrep 2 of tIjAb amplitudes:       0.001 (MW) /      0.004 (MB)
	Size of irrep 3 of tIjAb amplitudes:       0.001 (MW) /      0.004 (MB)
	Total:                                     0.002 (MW) /      0.020 (MB)

	Nuclear Rep. energy          =      4.79685876770616
	SCF energy                   =   -289.46028158292597
	One-electron energy          =    -10.13944264558527
	Two-electron (AA) energy     =      1.55400878726505
	Two-electron (BB) energy     =      0.25191562442063
	Two-electron (AB) energy     =      2.67406428752595
	Two-electron energy          =      4.47998869921163
	Reference energy             =   -289.46028158292540

*** tstop() called on cqc05 at Thu Aug 20 19:55:45 2020
Module time:
	user time   =       0.08 seconds =       0.00 minutes
	system time =       0.05 seconds =       0.00 minutes
	total time  =          0 seconds =       0.00 minutes
Total time:
	user time   =       0.57 seconds =       0.01 minutes
	system time =       0.06 seconds =       0.00 minutes
	total time  =          0 seconds =       0.00 minutes

*** tstart() called on cqc05
*** at Thu Aug 20 19:55:45 2020

            **************************
            *                        *
            *        CCENERGY        *
            *                        *
            **************************

    Nuclear Rep. energy (wfn)     =    4.796858767706161
    SCF energy          (wfn)     = -289.460281582925973
    Reference energy    (file100) = -289.460281582925404

    Input parameters:
    -----------------
    Wave function   =     CCSD
    Reference wfn   =     UHF
    Brueckner       =     No
    Memory (Mbytes) =     250000.0
    Maxiter         =     50
    R_Convergence   =     1.0e-07
    E_Convergence   =     1.0e-06
    Restart         =     Yes
    DIIS            =     Yes
    AO Basis        =     NONE
    ABCD            =     NEW
    Cache Level     =     2
    Cache Type      =     LRU
    Print Level     =     1
    Num. of threads =     4
    # Amps to Print =     10
    Print MP2 Amps? =     No
    Analyze T2 Amps =     No
    Print Pair Ener =     No
    Local CC        =     No
    SCS-MP2         =     False
    SCSN-MP2        =     False
    SCS-CCSD        =     False

MP2 correlation energy -0.0823139852520673
                Solving CC Amplitude Equations
                ------------------------------
  Iter             Energy              RMS        T1Diag      D1Diag    New D1Diag    D2Diag
  ----     ---------------------    ---------   ----------  ----------  ----------   --------
     0        -0.082313985252068    0.000e+00    0.000000    0.000000    0.000000    0.000000
     1        -0.098996222427374    6.297e-02    0.012751    0.000000    0.000000    0.000000
     2        -0.105573184549104    2.686e-02    0.023770    0.000000    0.000000    0.000000
     3        -0.106110290711649    9.374e-03    0.029490    0.000000    0.000000    0.000000
     4        -0.106163430546732    3.021e-03    0.030976    0.000000    0.000000    0.000000
     5        -0.106158903402717    1.323e-03    0.031541    0.000000    0.000000    0.000000
     6        -0.106153339465646    5.236e-04    0.031644    0.000000    0.000000    0.000000
     7        -0.106160534583948    1.876e-04    0.031669    0.000000    0.000000    0.000000
     8        -0.106163169678571    7.338e-05    0.031680    0.000000    0.000000    0.000000
     9        -0.106161974676325    2.774e-05    0.031677    0.000000    0.000000    0.000000
    10        -0.106161829093663    1.070e-05    0.031677    0.000000    0.000000    0.000000
    11        -0.106161913430683    3.900e-06    0.031677    0.000000    0.000000    0.000000
    12        -0.106162012509095    1.557e-06    0.031677    0.000000    0.000000    0.000000
    13        -0.106161990739011    6.092e-07    0.031677    0.000000    0.000000    0.000000
    14        -0.106161982390127    2.201e-07    0.031677    0.000000    0.000000    0.000000
    15        -0.106161983193417    8.891e-08    0.031677    0.000000    0.000000    0.000000
    15        -0.106161983193417    8.891e-08    0.031677    0.000000    0.000000    0.000000

    Iterations converged.


    CCSD corr. energy   =   -0.106161983193417
    PPL corr. energy    =    0.030762880116520
    OS PPL corr. energy =    0.026088879840543
    SS PPL corr. energy =    0.004674000275976
    Largest TIA Amplitudes:
              1   3        -0.0319701689
              1   2         0.0187311916
              2  18        -0.0154282752
              3  25        -0.0154282752
              1   1         0.0138822502
              1   7        -0.0127125828
              2  19         0.0087898669
              3  26         0.0087898669
              1   6        -0.0078815914
              0   2         0.0075542526

    Largest Tia Amplitudes:
              1   3         0.0387802490
              0   3         0.0292705326
              1   2        -0.0123823856
              0   5         0.0098644505
              1   7         0.0096813876
              1   0        -0.0091403121
              0   7         0.0091179802
              0   8        -0.0089922388
              1   8        -0.0068669462
              0   1        -0.0063060938

    Largest TIJAB Amplitudes:
      3   2  15   4        -0.0576427968
      3   2  25  18        -0.0480467428
      2   1  19   3        -0.0416421878
      3   1  26   3        -0.0416421878
      3   2  26  19        -0.0319900501
      3   2  25  21         0.0255281629
      3   2  28  18         0.0255281629
      3   2  28  21        -0.0247568594
      3   2  15   9        -0.0217956111
      3   2  16   4        -0.0217956111

    Largest Tijab Amplitudes:
      1   0  20  19         0.0122978481
      1   0  28  27         0.0122978481
      1   0  23  19         0.0083489342
      1   0  31  27         0.0083489342
      1   0   5   3        -0.0079156705
      1   0   3   1        -0.0075885445
      1   0   6   3         0.0075765589
      1   0  21  19        -0.0073606596
      1   0  29  27        -0.0073606596
      1   0   6   5         0.0072546253

    Largest TIjAb Amplitudes:
      1   1   3   3        -0.0864982553
      2   1   4  19         0.0484060415
      2   1  15  27         0.0484060415
      3   1   4  27        -0.0484060415
      3   1  15  19         0.0484060415
      2   1  19   3        -0.0409065306
      3   1  26   3        -0.0409065306
      1   1   7   7        -0.0393495516
      2   0   4  19         0.0380236246
      2   0  15  27         0.0380236246

    SCF energy       (wfn)                    = -289.460281582925973
    Reference energy (file100)                = -289.460281582925404

    Opposite-spin MP2 correlation energy      =   -0.064647099546547
    Same-spin MP2 correlation energy          =   -0.017666885705509
    MP2 correlation energy                    =   -0.082313985252067
      * MP2 total energy                      = -289.542595568177489

    Opposite-spin CCSD correlation energy     =   -0.086377564982540
    Same-spin CCSD correlation energy         =   -0.019784416202050
    CCSD correlation energy                   =   -0.106161983193417
      * CCSD total energy                     = -289.566443566118835


*** tstop() called on cqc05 at Thu Aug 20 19:55:46 2020
Module time:
	user time   =       0.19 seconds =       0.00 minutes
	system time =       0.19 seconds =       0.00 minutes
	total time  =          1 seconds =       0.02 minutes
Total time:
	user time   =       0.76 seconds =       0.01 minutes
	system time =       0.25 seconds =       0.00 minutes
	total time  =          1 seconds =       0.02 minutes

*** Psi4 exiting successfully. Buy a developer a beer!
