
    -----------------------------------------------------------------------
          Psi4: An Open-Source Ab Initio Electronic Structure Package
                               Psi4 1.4a3.dev88 

                         Git: Rev {master} 262e345 


    D. G. A. Smith, L. A. Burns, A. C. Simmonett, R. M. Parrish,
    M. C. Schieber, R. Galvelis, P. Kraus, H. Kruse, R. Di Remigio,
    A. Alenaizan, A. M. James, S. Lehtola, J. P. Misiewicz, M. Scheurer,
    R. A. Shaw, J. B. Schriber, Y. Xie, Z. L. Glick, D. A. Sirianni,
    J. S. O'Brien, J. M. Waldrop, A. Kumar, E. G. Hohenstein,
    B. P. Pritchard, B. R. Brooks, H. F. Schaefer III, A. Yu. Sokolov,
    K. Patkowski, A. E. DePrince III, U. Bozkaya, R. A. King,
    F. A. Evangelista, J. M. Turney, T. D. Crawford, C. D. Sherrill,
    J. Chem. Phys. 152(18) 184108 (2020). https://doi.org/10.1063/5.0006002

                            Additional Code Authors
    E. T. Seidl, C. L. Janssen, E. F. Valeev, M. L. Leininger,
    J. F. Gonthier, R. M. Richard, H. R. McAlexander, M. Saitow, X. Wang,
    P. Verma, and M. H. Lechner

             Previous Authors, Complete List of Code Contributors,
                       and Citations for Specific Modules
    https://github.com/psi4/psi4/blob/master/codemeta.json
    https://github.com/psi4/psi4/graphs/contributors
    http://psicode.org/psi4manual/master/introduction.html#citing-psifour

    -----------------------------------------------------------------------


    Psi4 started on: Friday, 29 January 2021 03:41PM

    Process ID: 85965
    Host:       l40
    PSIDATADIR: /home/fs71337/gallo4/psi4/eri-6/psi4/build/stage/share/psi4
    Memory:     500.0 MiB
    Threads:    1
    
  ==> Input File <==

--------------------------------------------------------------------------
# Any line starting with the # character is a comment line
memory 250000 mb
molecule molecule{
0 1
S          0.0000000956        0.0000000000        0.0000000000
O          0.7168981180       -1.2417042476        0.0000000000
O          0.7168981180        1.2417042476        0.0000000000
O         -1.4337962317        0.0000000000        0.0000000000
}

set {
  reference rhf
  basis aug-cc-pV(t+d)Z
  scf_type OUT_OF_CORE
  freeze_core true
}

energy('ccsd(t)')
--------------------------------------------------------------------------

  Memory set to 232.831 GiB by Python driver.

Scratch directory: /tmp/

*** tstart() called on l40
*** at Fri Jan 29 15:41:44 2021

   => Loading Basis Set <=

    Name: AUG-CC-PV(T+D)Z
    Role: ORBITAL
    Keyword: BASIS
    atoms 1   entry S          line   944 file /home/fs71337/gallo4/psi4/eri-6/psi4/build/stage/share/psi4/basis/aug-cc-pv_tpd_z.gbs 
    atoms 2-4 entry O          line   359 file /home/fs71337/gallo4/psi4/eri-6/psi4/build/stage/share/psi4/basis/aug-cc-pv_tpd_z.gbs 


         ---------------------------------------------------------
                                   SCF
               by Justin Turney, Rob Parrish, Andy Simmonett
                          and Daniel G. A. Smith
                              RHF Reference
                        1 Threads, 238418 MiB Core
         ---------------------------------------------------------

  ==> Geometry <==

    Molecular point group: c2v
    Full point group: C2v

    Geometry (in Angstrom), charge = 0, multiplicity = 1:

       Center              X                  Y                   Z               Mass       
    ------------   -----------------  -----------------  -----------------  -----------------
         S           -0.000000000000     0.000000000000     0.000000056513    31.972071174400
         O           -0.000000000000     1.241704247600     0.716898078913    15.994914619570
         O            0.000000000000    -1.241704247600     0.716898078913    15.994914619570
         O           -0.000000000000     0.000000000000    -1.433796270787    15.994914619570

  Running in c2v symmetry.

  Rotational constants: A =      0.34178  B =      0.34178  C =      0.17089 [cm^-1]
  Rotational constants: A =  10246.34899  B =  10246.34428  C =   5123.17332 [MHz]
  Nuclear repulsion =  182.636813285829135

  Charge       = 0
  Multiplicity = 1
  Electrons    = 40
  Nalpha       = 20
  Nbeta        = 20

  ==> Algorithm <==

  SCF Algorithm Type is OUT_OF_CORE.
  DIIS enabled.
  MOM disabled.
  Fractional occupation disabled.
  Guess Type is SAD.
  Energy threshold   = 1.00e-08
  Density threshold  = 1.00e-08
  Integral threshold = 1.00e-12

  ==> Primary Basis <==

  Basis Set: AUG-CC-PV(T+D)Z
    Blend: AUG-CC-PV(T+D)Z
    Number of shells: 59
    Number of basis function: 193
    Number of Cartesian functions: 230
    Spherical Harmonics?: true
    Max angular momentum: 3

  ==> Integral Setup <==

  ==> DiskJK: Disk-Based J/K Matrices <==

    J tasked:                  Yes
    K tasked:                  Yes
    wK tasked:                  No
    Memory [MiB]:           178813
    Schwarz Cutoff:          1E-12

  Minimum eigenvalue in the overlap matrix is 1.6587359567E-04.
  Reciprocal condition number of the overlap matrix is 2.4166138245E-05.
    Using symmetric orthogonalization.

  ==> Pre-Iterations <==

  SCF Guess: Superposition of Atomic Densities via on-the-fly atomic UHF (no occupation information).

   -------------------------
    Irrep   Nso     Nmo    
   -------------------------
     A1        72      72 
     A2        27      27 
     B1        40      40 
     B2        54      54 
   -------------------------
    Total     193     193
   -------------------------

  ==> Iterations <==

                        Total Energy        Delta E     RMS |[F,P]|

   @RHF iter SAD:  -622.04267607144482   -6.22043e+02   0.00000e+00 
   @RHF iter   1:  -621.95953613212873    8.31399e-02   7.25934e-03 DIIS
   @RHF iter   2:  -622.05015278076348   -9.06166e-02   5.84137e-03 DIIS
   @RHF iter   3:  -622.16607266976393   -1.15920e-01   3.12702e-04 DIIS
   @RHF iter   4:  -622.16679812849804   -7.25459e-04   7.97164e-05 DIIS
   @RHF iter   5:  -622.16685549711201   -5.73686e-05   2.28728e-05 DIIS
   @RHF iter   6:  -622.16686149849409   -6.00138e-06   6.24965e-06 DIIS
   @RHF iter   7:  -622.16686193691771   -4.38424e-07   1.34532e-06 DIIS
   @RHF iter   8:  -622.16686195633520   -1.94175e-08   2.05502e-07 DIIS
   @RHF iter   9:  -622.16686195686771   -5.32509e-10   2.86090e-08 DIIS
   @RHF iter  10:  -622.16686195687601   -8.29914e-12   8.94483e-09 DIIS
  Energy and wave function converged.


  ==> Post-Iterations <==

    Orbital Energies [Eh]
    ---------------------

    Doubly Occupied:                                                      

       1A1   -92.275104     2A1   -20.658696     1B2   -20.658696  
       3A1   -20.658647     4A1    -9.241178     1B1    -6.929421  
       5A1    -6.924134     2B2    -6.924134     6A1    -1.576194  
       7A1    -1.434864     3B2    -1.434864     8A1    -0.871586  
       9A1    -0.745466     4B2    -0.745466     2B1    -0.743987  
       5B2    -0.620367    10A1    -0.620367     3B1    -0.571401  
       1A2    -0.571401     6B2    -0.540696  

    Virtual:                                                              

      11A1     0.021581     4B1     0.051820     5B1     0.069733  
      12A1     0.075697     7B2     0.075697    13A1     0.114233  
      14A1     0.158103     8B2     0.158103     2A2     0.174403  
       6B1     0.174403    15A1     0.188036     9B2     0.233297  
      16A1     0.233297     7B1     0.237193    10B2     0.239659  
      17A1     0.281646    11B2     0.281646    18A1     0.297212  
       8B1     0.350475     3A2     0.350475    19A1     0.372333  
      20A1     0.405938    12B2     0.405938     9B1     0.440859  
      21A1     0.488523    13B2     0.488523    22A1     0.578047  
      14B2     0.598681    23A1     0.598681    10B1     0.599200  
       4A2     0.599200    24A1     0.731764    15B2     0.736611  
      25A1     0.736611     5A2     0.771189    11B1     0.771189  
       6A2     0.780763    16B2     0.830170    26A1     0.861508  
      12B1     0.875780     7A2     0.875780    13B1     0.879524  
      27A1     0.894012    17B2     0.894012    28A1     0.927880  
      18B2     0.927880    29A1     0.963881    14B1     0.971144  
      30A1     1.041518    19B2     1.041518    20B2     1.115224  
      31A1     1.142316    21B2     1.142316     8A2     1.148386  
      15B1     1.148386    16B1     1.195684    32A1     1.234161  
      17B1     1.252345     9A2     1.252345    22B2     1.337908  
      33A1     1.337908    23B2     1.425378    34A1     1.425378  
      35A1     1.491000    24B2     1.611726    36A1     1.831278  
      25B2     1.831278    10A2     1.937976    18B1     1.937976  
      19B1     1.981004    26B2     1.995170    37A1     1.995171  
      20B1     2.011781    11A2     2.011781    12A2     2.045054  
      27B2     2.052371    38A1     2.075556    39A1     2.089772  
      28B2     2.157492    40A1     2.157493    21B1     2.162018  
      13A2     2.247505    22B1     2.247505    41A1     2.281286  
      14A2     2.308870    23B1     2.308870    42A1     2.309806  
      29B2     2.309806    43A1     2.340188    44A1     2.354498  
      30B2     2.354498    15A2     2.418984    31B2     2.475820  
      45A1     2.475820    16A2     2.492452    24B1     2.492452  
      32B2     2.493508    25B1     2.549130    26B1     2.578340  
      46A1     2.583926    33B2     2.583926    47A1     2.677708  
      34B2     2.736872    35B2     2.822370    48A1     2.822370  
      27B1     2.854375    17A2     2.854375    49A1     3.063503  
      36B2     3.063503    28B1     3.222896    18A2     3.222896  
      50A1     3.237661    29B1     3.265122    37B2     3.270030  
      51A1     3.270030    38B2     3.644080    52A1     3.730997  
      39B2     3.811528    53A1     3.811528    30B1     4.417527  
      19A2     4.456871    31B1     4.456871    40B2     4.509882  
      54A1     4.509882    55A1     4.887864    41B2     5.080176  
      56A1     5.454438    42B2     5.454438    32B1     6.498474  
      20A2     6.499016    33B1     6.499016    43B2     6.509054  
      57A1     6.509054    58A1     6.516645    44B2     6.535883  
      21A2     6.581674    45B2     6.621535    59A1     6.621535  
      34B1     6.625362    22A2     6.625362    35B1     6.643364  
      60A1     6.673596    46B2     6.673596    61A1     6.697908  
      23A2     6.752638    36B1     6.752639    47B2     6.817026  
      62A1     6.817026    63A1     7.004521    24A2     7.020081  
      64A1     7.064678    48B2     7.064679    25A2     7.083028  
      37B1     7.083028    49B2     7.155201    65A1     7.158418  
      38B1     7.260252    26A2     7.260252    39B1     7.348054  
      66A1     7.451906    50B2     7.451906    67A1     7.464093  
      51B2     7.640630    27A2     7.643664    40B1     7.643664  
      68A1     7.656658    52B2     7.656658    53B2     8.461192  
      69A1     8.461192    70A1    10.477899    54B2    11.587507  
      71A1    11.587508    72A1    13.471482  

    Final Occupation by Irrep:
             A1    A2    B1    B2 
    DOCC [    10,    1,    3,    6 ]

  @RHF Final Energy:  -622.16686195687601

   => Energetics <=

    Nuclear Repulsion Energy =            182.6368132858291347
    One-Electron Energy =               -1220.1140177231548023
    Two-Electron Energy =                 415.3103424804498331
    Total Energy =                       -622.1668619568758913

Computation Completed


Properties will be evaluated at   0.000000,   0.000000,   0.000000 [a0]

Properties computed using the SCF density matrix

  Nuclear Dipole Moment: [e a0]
     X:    -0.0000      Y:     0.0000      Z:     0.0000

  Electronic Dipole Moment: [e a0]
     X:     0.0000      Y:     0.0000      Z:     0.0000

  Dipole Moment: [e a0]
     X:    -0.0000      Y:     0.0000      Z:     0.0000     Total:     0.0000

  Dipole Moment: [D]
     X:    -0.0000      Y:     0.0000      Z:     0.0000     Total:     0.0000


*** tstop() called on l40 at Fri Jan 29 15:42:07 2021
Module time:
	user time   =      20.09 seconds =       0.33 minutes
	system time =       2.87 seconds =       0.05 minutes
	total time  =         23 seconds =       0.38 minutes
Total time:
	user time   =      20.09 seconds =       0.33 minutes
	system time =       2.87 seconds =       0.05 minutes
	total time  =         23 seconds =       0.38 minutes

*** tstart() called on l40
*** at Fri Jan 29 15:42:07 2021


	Wfn Parameters:
	--------------------
	Wavefunction         = CCSD_T
	Number of irreps     = 4
	Number of MOs        = 193
	Number of active MOs = 185
	AO-Basis             = NONE
	Semicanonical        = false
	Reference            = RHF
	Print Level          = 1

	IRREP	# MOs	# FZDC	# DOCC	# SOCC	# VIRT	# FZVR
	-----	-----	------	------	------	------	------
	 A1	   72	    5	    5	    0	    62	    0
	 A2	   27	    0	    1	    0	    26	    0
	 B1	   40	    1	    2	    0	    37	    0
	 B2	   54	    2	    4	    0	    48	    0
	Transforming integrals...
	IWL integrals will be deleted.
	(OO|OO)...
	Presorting SO-basis two-electron integrals.
	Sorting File: SO Ints (nn|nn) nbuckets = 1
	Constructing frozen core operators
	Starting first half-transformation.
	Sorting half-transformed integrals.
	First half integral transformation complete.
	Starting second half-transformation.
	Two-electron integral transformation complete.
	(OO|OV)...
	Starting second half-transformation.
	Two-electron integral transformation complete.
	(OO|VV)...
	Starting second half-transformation.
	Two-electron integral transformation complete.
	(OV|OO)...
	Starting first half-transformation.
	Sorting half-transformed integrals.
	First half integral transformation complete.
	Starting second half-transformation.
	Two-electron integral transformation complete.
	(OV|OV)...
	Starting second half-transformation.
	Two-electron integral transformation complete.
	(OV|VV)...
	Starting second half-transformation.
	Two-electron integral transformation complete.
	(VV|OO)...
	Starting first half-transformation.
	Sorting half-transformed integrals.
	First half integral transformation complete.
	Starting second half-transformation.
	Two-electron integral transformation complete.
	(VV|OV)...
	Starting second half-transformation.
	Two-electron integral transformation complete.
	(VV|VV)...
	Starting second half-transformation.
	Two-electron integral transformation complete.
	Frozen core energy     =   -684.63337506896119

	Size of irrep 0 of <ab|cd> integrals:     67.125 (MW) /    537.002 (MB)
	Size of irrep 1 of <ab|cd> integrals:     45.914 (MW) /    367.313 (MB)
	Size of irrep 2 of <ab|cd> integrals:     50.183 (MW) /    401.464 (MB)
	Size of irrep 3 of <ab|cd> integrals:     62.031 (MW) /    496.251 (MB)
	Total:                                   225.254 (MW) /   1802.031 (MB)

	Size of irrep 0 of <ia|bc> integrals:      4.932 (MW) /     39.457 (MB)
	Size of irrep 1 of <ia|bc> integrals:      2.954 (MW) /     23.635 (MB)
	Size of irrep 2 of <ia|bc> integrals:      3.266 (MW) /     26.126 (MB)
	Size of irrep 3 of <ia|bc> integrals:      4.544 (MW) /     36.356 (MB)
	Total:                                    15.697 (MW) /    125.574 (MB)

	Size of irrep 0 of tijab amplitudes:       0.377 (MW) /      3.015 (MB)
	Size of irrep 1 of tijab amplitudes:       0.176 (MW) /      1.409 (MB)
	Size of irrep 2 of tijab amplitudes:       0.198 (MW) /      1.587 (MB)
	Size of irrep 3 of tijab amplitudes:       0.347 (MW) /      2.772 (MB)
	Total:                                     1.098 (MW) /      8.784 (MB)

	Nuclear Rep. energy          =    182.63681328582913
	SCF energy                   =   -622.16686195687601
	One-electron energy          =   -219.38728463076706
	Two-electron energy          =     99.21698445701873
	Reference energy             =   -622.16686195688044

*** tstop() called on l40 at Fri Jan 29 15:42:34 2021
Module time:
	user time   =      16.32 seconds =       0.27 minutes
	system time =      10.91 seconds =       0.18 minutes
	total time  =         27 seconds =       0.45 minutes
Total time:
	user time   =      36.41 seconds =       0.61 minutes
	system time =      13.78 seconds =       0.23 minutes
	total time  =         50 seconds =       0.83 minutes
            **************************
            *                        *
            *        CCENERGY        *
            *                        *
            **************************

    Nuclear Rep. energy (wfn)     =  182.636813285829135
    SCF energy          (wfn)     = -622.166861956876005
    Reference energy    (file100) = -622.166861956880439

    Input parameters:
    -----------------
    Wave function   =     CCSD_T
    Reference wfn   =     RHF
    Brueckner       =     No
    Memory (Mbytes) =     250000.0
    Maxiter         =     50
    R_Convergence   =     1.0e-07
    E_Convergence   =     1.0e-06
    Restart         =     Yes
    DIIS            =     Yes
    AO Basis        =     NONE
    ABCD            =     NEW
    Cache Level     =     2
    Cache Type      =     LOW
    Print Level     =     1
    Num. of threads =     1
    # Amps to Print =     10
    Print MP2 Amps? =     No
    Analyze T2 Amps =     No
    Print Pair Ener =     No
    Local CC        =     No
    SCS-MP2         =     False
    SCSN-MP2        =     False
    SCS-CCSD        =     False

MP2 correlation energy -0.9163659648267881
                Solving CC Amplitude Equations
                ------------------------------
  Iter             Energy              RMS        T1Diag      D1Diag    New D1Diag    D2Diag
  ----     ---------------------    ---------   ----------  ----------  ----------   --------
     0        -0.916365964826788    0.000e+00    0.000000    0.000000    0.000000    0.176589
     1        -0.863418524570798    1.073e-01    0.016753    0.050453    0.050453    0.152945
     2        -0.891929394060913    4.669e-02    0.014813    0.043904    0.043904    0.169867
     3        -0.899266141652715    1.480e-02    0.017803    0.054317    0.054317    0.175260
     4        -0.898504592609517    3.550e-03    0.018390    0.056236    0.056236    0.176600
     5        -0.898525271725655    1.347e-03    0.018627    0.057268    0.057268    0.177032
     6        -0.898564445748103    3.742e-04    0.018685    0.057553    0.057553    0.177110
     7        -0.898541447390810    1.304e-04    0.018687    0.057600    0.057600    0.177090
     8        -0.898540095258014    3.203e-05    0.018689    0.057627    0.057627    0.177092
     9        -0.898540915468332    9.737e-06    0.018690    0.057633    0.057633    0.177093
    10        -0.898539831131483    4.519e-06    0.018690    0.057636    0.057636    0.177093
    11        -0.898540151864536    1.452e-06    0.018690    0.057637    0.057637    0.177094
    12        -0.898540007486822    5.335e-07    0.018690    0.057637    0.057637    0.177094
    13        -0.898540026695027    1.777e-07    0.018690    0.057637    0.057637    0.177094
    14        -0.898540029448743    4.463e-08    0.018690    0.057637    0.057637    0.177094

    Iterations converged.


    Largest TIA Amplitudes:
              6  88        -0.0544299434
              4   9         0.0240717708
             10 130         0.0240717584
              2   2         0.0211899115
              4   6        -0.0191026462
             10 129        -0.0191026215
              9 130        -0.0175555466
              3   9        -0.0175555372
              2   0        -0.0175410485
              6  89        -0.0141147552

    Largest TIjAb Amplitudes:
      5   5  88  88        -0.0536352236
      7   7  88  88        -0.0536352121
      6   6  88  88        -0.0371862172
      5  11  88   9        -0.0208667506
     11   5   9  88        -0.0208667506
      7  11  88 130         0.0208667364
     11   7 130  88         0.0208667364
      6   6   0   0        -0.0195331436
      2   2  88  88        -0.0195033646
      9   9 130 130        -0.0180717706

    SCF energy       (wfn)                    = -622.166861956876005
    Reference energy (file100)                = -622.166861956880439

    Opposite-spin MP2 correlation energy      =   -0.668816079397004
    Same-spin MP2 correlation energy          =   -0.247549885429784
    Singles MP2 correlation energy            =   -0.000000000000000
    MP2 correlation energy                    =   -0.916365964826788
      * MP2 total energy                      = -623.083227921707248

    Opposite-spin CCSD correlation energy     =   -0.685988745962653
    Same-spin CCSD correlation energy         =   -0.212551283486090
    Singles CCSD correlation energy           =    0.000000000000000
    CCSD correlation energy                   =   -0.898540029448743
      * CCSD total energy                     = -623.065401986329221

            **************************
            *                        *
            *        CCTRIPLES       *
            *                        *
            **************************


    Wave function   =    CCSD_T
    Reference wfn   =      RHF

    Nuclear Rep. energy (wfn)                =  182.636813285829135
    SCF energy          (wfn)                = -622.166861956876005
    Reference energy    (file100)            = -622.166861956880439
    CCSD energy         (file100)            =   -0.898540029448743
    Total CCSD energy   (file100)            = -623.065401986329221

    Number of ijk index combinations:              364
    Memory available in words        :     31250000000
    ~Words needed per explicit thread:          953312
    Number of threads for explicit ijk threading:    1

    (T) energy                                =   -0.046726033655216
      * CCSD(T) total energy                  = -623.112128019984425


    Psi4 stopped on: Friday, 29 January 2021 03:44PM
    Psi4 wall time for execution: 0:02:23.43

*** Psi4 exiting successfully. Buy a developer a beer!
