
    -----------------------------------------------------------------------
          Psi4: An Open-Source Ab Initio Electronic Structure Package
                               Psi4 1.4a3.dev88 

                         Git: Rev {master} 262e345 


    D. G. A. Smith, L. A. Burns, A. C. Simmonett, R. M. Parrish,
    M. C. Schieber, R. Galvelis, P. Kraus, H. Kruse, R. Di Remigio,
    A. Alenaizan, A. M. James, S. Lehtola, J. P. Misiewicz, M. Scheurer,
    R. A. Shaw, J. B. Schriber, Y. Xie, Z. L. Glick, D. A. Sirianni,
    J. S. O'Brien, J. M. Waldrop, A. Kumar, E. G. Hohenstein,
    B. P. Pritchard, B. R. Brooks, H. F. Schaefer III, A. Yu. Sokolov,
    K. Patkowski, A. E. DePrince III, U. Bozkaya, R. A. King,
    F. A. Evangelista, J. M. Turney, T. D. Crawford, C. D. Sherrill,
    J. Chem. Phys. 152(18) 184108 (2020). https://doi.org/10.1063/5.0006002

                            Additional Code Authors
    E. T. Seidl, C. L. Janssen, E. F. Valeev, M. L. Leininger,
    J. F. Gonthier, R. M. Richard, H. R. McAlexander, M. Saitow, X. Wang,
    P. Verma, and M. H. Lechner

             Previous Authors, Complete List of Code Contributors,
                       and Citations for Specific Modules
    https://github.com/psi4/psi4/blob/master/codemeta.json
    https://github.com/psi4/psi4/graphs/contributors
    http://psicode.org/psi4manual/master/introduction.html#citing-psifour

    -----------------------------------------------------------------------


    Psi4 started on: Tuesday, 26 January 2021 06:16PM

    Process ID: 402473
    Host:       n412-039.vsc4.prov
    PSIDATADIR: /home/fs71337/gallo4/psi4/eri-6/psi4/build/stage/share/psi4
    Memory:     500.0 MiB
    Threads:    48
    
  ==> Input File <==

--------------------------------------------------------------------------
# Any line starting with the # character is a comment line
memory 250000 mb
molecule molecule{
0 1
C          0.0000000000        0.0000000000       -1.1198483656
S          0.0000000000        0.0000000000        0.4195414448
}

set {
  reference rhf
  basis aug-cc-pV(d+d)Z
  scf_type OUT_OF_CORE
  freeze_core true
}

energy('ccsd(t)')
--------------------------------------------------------------------------

  Memory set to 232.831 GiB by Python driver.

Scratch directory: /binfl/lv71337/airmler/temp/

*** tstart() called on n412-039.vsc4.prov
*** at Tue Jan 26 18:16:53 2021

   => Loading Basis Set <=

    Name: AUG-CC-PV(D+D)Z
    Role: ORBITAL
    Keyword: BASIS
    atoms 1 entry C          line   210 file /home/fs71337/gallo4/psi4/eri-6/psi4/build/stage/share/psi4/basis/aug-cc-pv_dpd_z.gbs 
    atoms 2 entry S          line   740 file /home/fs71337/gallo4/psi4/eri-6/psi4/build/stage/share/psi4/basis/aug-cc-pv_dpd_z.gbs 


         ---------------------------------------------------------
                                   SCF
               by Justin Turney, Rob Parrish, Andy Simmonett
                          and Daniel G. A. Smith
                              RHF Reference
                       48 Threads, 238418 MiB Core
         ---------------------------------------------------------

  ==> Geometry <==

    Molecular point group: c2v
    Full point group: C_inf_v

    Geometry (in Angstrom), charge = 0, multiplicity = 1:

       Center              X                  Y                   Z               Mass       
    ------------   -----------------  -----------------  -----------------  -----------------
         C            0.000000000000     0.000000000000    -1.119289568782    12.000000000000
         S            0.000000000000     0.000000000000     0.420100241618    31.972071174400

  Running in c2v symmetry.

  Rotational constants: A = ************  B =      0.81531  C =      0.81531 [cm^-1]
  Rotational constants: A = ************  B =  24442.45866  C =  24442.45866 [MHz]
  Nuclear repulsion =   33.000746062571196

  Charge       = 0
  Multiplicity = 1
  Electrons    = 22
  Nalpha       = 11
  Nbeta        = 11

  ==> Algorithm <==

  SCF Algorithm Type is OUT_OF_CORE.
  DIIS enabled.
  MOM disabled.
  Fractional occupation disabled.
  Guess Type is SAD.
  Energy threshold   = 1.00e-08
  Density threshold  = 1.00e-08
  Integral threshold = 1.00e-12

  ==> Primary Basis <==

  Basis Set: AUG-CC-PV(D+D)Z
    Blend: AUG-CC-PV(D+D)Z
    Number of shells: 21
    Number of basis function: 55
    Number of Cartesian functions: 60
    Spherical Harmonics?: true
    Max angular momentum: 2

  ==> Integral Setup <==

  ==> DiskJK: Disk-Based J/K Matrices <==

    J tasked:                  Yes
    K tasked:                  Yes
    wK tasked:                  No
    Memory [MiB]:           178813
    Schwarz Cutoff:          1E-12

  Minimum eigenvalue in the overlap matrix is 4.9600655923E-04.
  Reciprocal condition number of the overlap matrix is 1.1748698344E-04.
    Using symmetric orthogonalization.

  ==> Pre-Iterations <==

  SCF Guess: Superposition of Atomic Densities via on-the-fly atomic UHF (no occupation information).


 WARNING: Atomic UHF is not converging! Try casting from a smaller basis or call Rob at CCMST.

 WARNING: Atomic UHF is not converging! Try casting from a smaller basis or call Rob at CCMST.
   -------------------------
    Irrep   Nso     Nmo    
   -------------------------
     A1        26      26 
     A2         5       5 
     B1        12      12 
     B2        12      12 
   -------------------------
    Total      55      55
   -------------------------

  ==> Iterations <==

                        Total Energy        Delta E     RMS |[F,P]|

   @RHF iter SAD:  -378.15249718549740   -3.78152e+02   0.00000e+00 
    Occupation by irrep:
             A1    A2    B1    B2 
    DOCC [     7,    0,    2,    2 ]

   @RHF iter   1:  -422.66049433699521   -4.45080e+01   1.35352e-01 DIIS
   @RHF iter   2:  -425.09305899529744   -2.43256e+00   1.03034e-01 DIIS
   @RHF iter   3:  -432.26720935750029   -7.17415e+00   4.62455e-02 DIIS
   @RHF iter   4:  -434.22978567733384   -1.96258e+00   4.44981e-02 DIIS
   @RHF iter   5:  -435.05678454044624   -8.26999e-01   2.11601e-02 DIIS
   @RHF iter   6:  -435.32044469285387   -2.63660e-01   4.75682e-03 DIIS
   @RHF iter   7:  -435.33836451469108   -1.79198e-02   4.20564e-04 DIIS
   @RHF iter   8:  -435.33856427801788   -1.99763e-04   2.61777e-04 DIIS
   @RHF iter   9:  -435.33861338495569   -4.91069e-05   5.83624e-05 DIIS
   @RHF iter  10:  -435.33861764377207   -4.25882e-06   2.40620e-05 DIIS
   @RHF iter  11:  -435.33861819562463   -5.51853e-07   4.22075e-06 DIIS
   @RHF iter  12:  -435.33861821167750   -1.60529e-08   6.53546e-07 DIIS
   @RHF iter  13:  -435.33861821272660   -1.04910e-09   2.98345e-07 DIIS
   @RHF iter  14:  -435.33861821312030   -3.93698e-10   1.22690e-07 DIIS
   @RHF iter  15:  -435.33861821318067   -6.03677e-11   1.25269e-08 DIIS
   @RHF iter  16:  -435.33861821318089   -2.27374e-13   1.63052e-09 DIIS
  Energy and wave function converged.


  ==> Post-Iterations <==

    Orbital Energies [Eh]
    ---------------------

    Doubly Occupied:                                                      

       1A1   -92.004388     2A1   -11.364491     3A1    -9.011413  
       4A1    -6.692271     1B2    -6.690272     1B1    -6.690272  
       5A1    -1.104365     6A1    -0.695433     7A1    -0.472000  
       2B1    -0.463308     2B2    -0.463308  

    Virtual:                                                              

       3B2     0.046581     3B1     0.046581     8A1     0.064968  
       4B1     0.111140     4B2     0.111140     9A1     0.114595  
      10A1     0.126995     5B2     0.166234     5B1     0.166234  
      11A1     0.247084    12A1     0.309679     1A2     0.328926  
      13A1     0.328926     6B1     0.460909     6B2     0.460909  
      14A1     0.501952    15A1     0.537111     2A2     0.537111  
       7B1     0.654288     7B2     0.654288    16A1     0.663412  
       8B1     0.790331     8B2     0.790331    17A1     0.828979  
      18A1     0.884378     9B1     0.947871     9B2     0.947871  
       3A2     1.044312    19A1     1.044312    10B2     1.058411  
      10B1     1.058411    20A1     1.133126    21A1     1.367344  
      22A1     1.672951     4A2     1.672951    11B1     1.842026  
      11B2     1.842026    23A1     1.885592    24A1     2.292012  
       5A2     5.006998    25A1     5.006998    12B2     5.073381  
      12B1     5.073381    26A1     5.129593  

    Final Occupation by Irrep:
             A1    A2    B1    B2 
    DOCC [     7,    0,    2,    2 ]

  @RHF Final Energy:  -435.33861821318089

   => Energetics <=

    Nuclear Repulsion Energy =             33.0007460625711957
    One-Electron Energy =                -665.3756868939715332
    Two-Electron Energy =                 197.0363226182194580
    Total Energy =                       -435.3386182131808368

Computation Completed


Properties will be evaluated at   0.000000,   0.000000,   0.000000 [a0]

Properties computed using the SCF density matrix

  Nuclear Dipole Moment: [e a0]
     X:     0.0000      Y:     0.0000      Z:     0.0111

  Electronic Dipole Moment: [e a0]
     X:     0.0000      Y:     0.0000      Z:     0.6184

  Dipole Moment: [e a0]
     X:     0.0000      Y:     0.0000      Z:     0.6295     Total:     0.6295

  Dipole Moment: [D]
     X:     0.0000      Y:     0.0000      Z:     1.5999     Total:     1.5999


*** tstop() called on n412-039.vsc4.prov at Tue Jan 26 18:16:56 2021
Module time:
	user time   =      26.76 seconds =       0.45 minutes
	system time =       2.12 seconds =       0.04 minutes
	total time  =          3 seconds =       0.05 minutes
Total time:
	user time   =      26.76 seconds =       0.45 minutes
	system time =       2.12 seconds =       0.04 minutes
	total time  =          3 seconds =       0.05 minutes

*** tstart() called on n412-039.vsc4.prov
*** at Tue Jan 26 18:16:56 2021


	Wfn Parameters:
	--------------------
	Wavefunction         = CCSD_T
	Number of irreps     = 4
	Number of MOs        = 55
	Number of active MOs = 49
	AO-Basis             = NONE
	Semicanonical        = false
	Reference            = RHF
	Print Level          = 1

	IRREP	# MOs	# FZDC	# DOCC	# SOCC	# VIRT	# FZVR
	-----	-----	------	------	------	------	------
	 A1	   26	    4	    3	    0	    19	    0
	 A2	   5	    0	    0	    0	    5	    0
	 B1	   12	    1	    1	    0	    10	    0
	 B2	   12	    1	    1	    0	    10	    0
	Transforming integrals...
	IWL integrals will be deleted.
	(OO|OO)...
	Presorting SO-basis two-electron integrals.
	Sorting File: SO Ints (nn|nn) nbuckets = 1
	Constructing frozen core operators
	Starting first half-transformation.
	Sorting half-transformed integrals.
	First half integral transformation complete.
	Starting second half-transformation.
	Two-electron integral transformation complete.
	(OO|OV)...
	Starting second half-transformation.
	Two-electron integral transformation complete.
	(OO|VV)...
	Starting second half-transformation.
	Two-electron integral transformation complete.
	(OV|OO)...
	Starting first half-transformation.
	Sorting half-transformed integrals.
	First half integral transformation complete.
	Starting second half-transformation.
	Two-electron integral transformation complete.
	(OV|OV)...
	Starting second half-transformation.
	Two-electron integral transformation complete.
	(OV|VV)...
	Starting second half-transformation.
	Two-electron integral transformation complete.
	(VV|OO)...
	Starting first half-transformation.
	Sorting half-transformed integrals.
	First half integral transformation complete.
	Starting second half-transformation.
	Two-electron integral transformation complete.
	(VV|OV)...
	Starting second half-transformation.
	Two-electron integral transformation complete.
	(VV|VV)...
	Starting second half-transformation.
	Two-electron integral transformation complete.
	Frozen core energy     =   -444.65511921224572

	Size of irrep 0 of <ab|cd> integrals:      0.343 (MW) /      2.747 (MB)
	Size of irrep 1 of <ab|cd> integrals:      0.152 (MW) /      1.217 (MB)
	Size of irrep 2 of <ab|cd> integrals:      0.230 (MW) /      1.843 (MB)
	Size of irrep 3 of <ab|cd> integrals:      0.230 (MW) /      1.843 (MB)
	Total:                                     0.956 (MW) /      7.650 (MB)

	Size of irrep 0 of <ia|bc> integrals:      0.045 (MW) /      0.361 (MB)
	Size of irrep 1 of <ia|bc> integrals:      0.014 (MW) /      0.109 (MB)
	Size of irrep 2 of <ia|bc> integrals:      0.026 (MW) /      0.207 (MB)
	Size of irrep 3 of <ia|bc> integrals:      0.026 (MW) /      0.207 (MB)
	Total:                                     0.111 (MW) /      0.885 (MB)

	Size of irrep 0 of tijab amplitudes:       0.006 (MW) /      0.052 (MB)
	Size of irrep 1 of tijab amplitudes:       0.001 (MW) /      0.006 (MB)
	Size of irrep 2 of tijab amplitudes:       0.003 (MW) /      0.023 (MB)
	Size of irrep 3 of tijab amplitudes:       0.003 (MW) /      0.023 (MB)
	Total:                                     0.013 (MW) /      0.104 (MB)

	Nuclear Rep. energy          =     33.00074606257120
	SCF energy                   =   -435.33861821318089
	One-electron energy          =    -40.97166160236432
	Two-electron energy          =     17.28741653885852
	Reference energy             =   -435.33861821318033

*** tstop() called on n412-039.vsc4.prov at Tue Jan 26 18:16:57 2021
Module time:
	user time   =       0.11 seconds =       0.00 minutes
	system time =       0.16 seconds =       0.00 minutes
	total time  =          1 seconds =       0.02 minutes
Total time:
	user time   =      26.88 seconds =       0.45 minutes
	system time =       2.28 seconds =       0.04 minutes
	total time  =          4 seconds =       0.07 minutes
            **************************
            *                        *
            *        CCENERGY        *
            *                        *
            **************************

    Nuclear Rep. energy (wfn)     =   33.000746062571196
    SCF energy          (wfn)     = -435.338618213180894
    Reference energy    (file100) = -435.338618213180325

    Input parameters:
    -----------------
    Wave function   =     CCSD_T
    Reference wfn   =     RHF
    Brueckner       =     No
    Memory (Mbytes) =     250000.0
    Maxiter         =     50
    R_Convergence   =     1.0e-07
    E_Convergence   =     1.0e-06
    Restart         =     Yes
    DIIS            =     Yes
    AO Basis        =     NONE
    ABCD            =     NEW
    Cache Level     =     2
    Cache Type      =     LOW
    Print Level     =     1
    Num. of threads =     48
    # Amps to Print =     10
    Print MP2 Amps? =     No
    Analyze T2 Amps =     No
    Print Pair Ener =     No
    Local CC        =     No
    SCS-MP2         =     False
    SCSN-MP2        =     False
    SCS-CCSD        =     False

MP2 correlation energy -0.2556477216545089
                Solving CC Amplitude Equations
                ------------------------------
  Iter             Energy              RMS        T1Diag      D1Diag    New D1Diag    D2Diag
  ----     ---------------------    ---------   ----------  ----------  ----------   --------
     0        -0.255647721654509    0.000e+00    0.000000    0.000000    0.000000    0.166812
     1        -0.258433534037658    8.342e-02    0.019563    0.041001    0.041001    0.165680
     2        -0.269749201703326    3.414e-02    0.018823    0.037271    0.037271    0.177071
     3        -0.273517910953534    1.632e-02    0.023788    0.047186    0.047186    0.182863
     4        -0.273502378612610    4.226e-03    0.024935    0.048869    0.048869    0.184061
     5        -0.273589252626024    1.738e-03    0.025531    0.049917    0.049917    0.184689
     6        -0.273587586744045    4.310e-04    0.025661    0.050112    0.050112    0.184727
     7        -0.273586781214419    1.065e-04    0.025674    0.050133    0.050133    0.184716
     8        -0.273588508281340    3.835e-05    0.025681    0.050143    0.050143    0.184716
     9        -0.273587747691127    1.241e-05    0.025683    0.050145    0.050145    0.184714
    10        -0.273587546296273    3.848e-06    0.025683    0.050145    0.050145    0.184713
    11        -0.273587640744959    1.354e-06    0.025683    0.050145    0.050145    0.184713
    12        -0.273587611264539    4.620e-07    0.025683    0.050145    0.050145    0.184712
    13        -0.273587638548191    1.859e-07    0.025683    0.050145    0.050145    0.184712
    14        -0.273587638969322    4.814e-08    0.025683    0.050145    0.050145    0.184712

    Iterations converged.


    Largest TIA Amplitudes:
              3  24         0.0372468362
              4  34         0.0372468355
              2   4        -0.0286831922
              3  26         0.0179201813
              4  36         0.0179201810
              4  37         0.0160194983
              3  27         0.0160194983
              4  39         0.0137036290
              3  29         0.0137036290
              4  41         0.0134873169

    Largest TIjAb Amplitudes:
      4   4  34  34        -0.0784936928
      3   3  24  24        -0.0784936922
      3   4  24  34        -0.0499085097
      4   3  34  24        -0.0499085097
      2   2  24  24        -0.0426425999
      2   2  34  34        -0.0426425998
      4   4  34  36        -0.0408561253
      4   4  36  34        -0.0408561253
      3   3  24  26        -0.0408561251
      3   3  26  24        -0.0408561251

    SCF energy       (wfn)                    = -435.338618213180894
    Reference energy (file100)                = -435.338618213180325

    Opposite-spin MP2 correlation energy      =   -0.189124327194101
    Same-spin MP2 correlation energy          =   -0.066523394460408
    Singles MP2 correlation energy            =   -0.000000000000000
    MP2 correlation energy                    =   -0.255647721654509
      * MP2 total energy                      = -435.594265934834823

    Opposite-spin CCSD correlation energy     =   -0.215157438429565
    Same-spin CCSD correlation energy         =   -0.058430200539757
    Singles CCSD correlation energy           =    0.000000000000000
    CCSD correlation energy                   =   -0.273587638969322
      * CCSD total energy                     = -435.612205852149657

            **************************
            *                        *
            *        CCTRIPLES       *
            *                        *
            **************************


    Wave function   =    CCSD_T
    Reference wfn   =      RHF

    Nuclear Rep. energy (wfn)                =   33.000746062571196
    SCF energy          (wfn)                = -435.338618213180894
    Reference energy    (file100)            = -435.338618213180325
    CCSD energy         (file100)            =   -0.273587638969322
    Total CCSD energy   (file100)            = -435.612205852149657

    Number of ijk index combinations:               35
    Memory available in words        :     31250000000
    ~Words needed per explicit thread:           27436
    Number of threads for explicit ijk threading:   48

    (T) energy                                =   -0.016580806372956
      * CCSD(T) total energy                  = -435.628786658522586


    Psi4 stopped on: Tuesday, 26 January 2021 06:17PM
    Psi4 wall time for execution: 0:00:07.88

*** Psi4 exiting successfully. Buy a developer a beer!
