
    -----------------------------------------------------------------------
          Psi4: An Open-Source Ab Initio Electronic Structure Package
                               Psi4 1.4a3.dev88 

                         Git: Rev {master} 262e345 


    D. G. A. Smith, L. A. Burns, A. C. Simmonett, R. M. Parrish,
    M. C. Schieber, R. Galvelis, P. Kraus, H. Kruse, R. Di Remigio,
    A. Alenaizan, A. M. James, S. Lehtola, J. P. Misiewicz, M. Scheurer,
    R. A. Shaw, J. B. Schriber, Y. Xie, Z. L. Glick, D. A. Sirianni,
    J. S. O'Brien, J. M. Waldrop, A. Kumar, E. G. Hohenstein,
    B. P. Pritchard, B. R. Brooks, H. F. Schaefer III, A. Yu. Sokolov,
    K. Patkowski, A. E. DePrince III, U. Bozkaya, R. A. King,
    F. A. Evangelista, J. M. Turney, T. D. Crawford, C. D. Sherrill,
    J. Chem. Phys. 152(18) 184108 (2020). https://doi.org/10.1063/5.0006002

                            Additional Code Authors
    E. T. Seidl, C. L. Janssen, E. F. Valeev, M. L. Leininger,
    J. F. Gonthier, R. M. Richard, H. R. McAlexander, M. Saitow, X. Wang,
    P. Verma, and M. H. Lechner

             Previous Authors, Complete List of Code Contributors,
                       and Citations for Specific Modules
    https://github.com/psi4/psi4/blob/master/codemeta.json
    https://github.com/psi4/psi4/graphs/contributors
    http://psicode.org/psi4manual/master/introduction.html#citing-psifour

    -----------------------------------------------------------------------


    Psi4 started on: Tuesday, 26 January 2021 06:10PM

    Process ID: 403591
    Host:       n412-040.vsc4.prov
    PSIDATADIR: /home/fs71337/gallo4/psi4/eri-6/psi4/build/stage/share/psi4
    Memory:     500.0 MiB
    Threads:    48
    
  ==> Input File <==

--------------------------------------------------------------------------
# Any line starting with the # character is a comment line
memory 250000 mb
molecule molecule{
0 1
C          0.0000000000        0.0000000000       -1.1198483656
S          0.0000000000        0.0000000000        0.4195414448
}

set {
  reference rhf
  basis aug-cc-pV(t+d)Z
  scf_type OUT_OF_CORE
  freeze_core true
}

energy('ccsd(t)')
--------------------------------------------------------------------------

  Memory set to 232.831 GiB by Python driver.

Scratch directory: /binfl/lv71337/airmler/temp/

*** tstart() called on n412-040.vsc4.prov
*** at Tue Jan 26 18:10:18 2021

   => Loading Basis Set <=

    Name: AUG-CC-PV(T+D)Z
    Role: ORBITAL
    Keyword: BASIS
    atoms 1 entry C          line   267 file /home/fs71337/gallo4/psi4/eri-6/psi4/build/stage/share/psi4/basis/aug-cc-pv_tpd_z.gbs 
    atoms 2 entry S          line   944 file /home/fs71337/gallo4/psi4/eri-6/psi4/build/stage/share/psi4/basis/aug-cc-pv_tpd_z.gbs 


         ---------------------------------------------------------
                                   SCF
               by Justin Turney, Rob Parrish, Andy Simmonett
                          and Daniel G. A. Smith
                              RHF Reference
                       48 Threads, 238418 MiB Core
         ---------------------------------------------------------

  ==> Geometry <==

    Molecular point group: c2v
    Full point group: C_inf_v

    Geometry (in Angstrom), charge = 0, multiplicity = 1:

       Center              X                  Y                   Z               Mass       
    ------------   -----------------  -----------------  -----------------  -----------------
         C            0.000000000000     0.000000000000    -1.119289568782    12.000000000000
         S            0.000000000000     0.000000000000     0.420100241618    31.972071174400

  Running in c2v symmetry.

  Rotational constants: A = ************  B =      0.81531  C =      0.81531 [cm^-1]
  Rotational constants: A = ************  B =  24442.45866  C =  24442.45866 [MHz]
  Nuclear repulsion =   33.000746062571196

  Charge       = 0
  Multiplicity = 1
  Electrons    = 22
  Nalpha       = 11
  Nbeta        = 11

  ==> Algorithm <==

  SCF Algorithm Type is OUT_OF_CORE.
  DIIS enabled.
  MOM disabled.
  Fractional occupation disabled.
  Guess Type is SAD.
  Energy threshold   = 1.00e-08
  Density threshold  = 1.00e-08
  Integral threshold = 1.00e-12

  ==> Primary Basis <==

  Basis Set: AUG-CC-PV(T+D)Z
    Blend: AUG-CC-PV(T+D)Z
    Number of shells: 31
    Number of basis function: 101
    Number of Cartesian functions: 120
    Spherical Harmonics?: true
    Max angular momentum: 3

  ==> Integral Setup <==

  ==> DiskJK: Disk-Based J/K Matrices <==

    J tasked:                  Yes
    K tasked:                  Yes
    wK tasked:                  No
    Memory [MiB]:           178813
    Schwarz Cutoff:          1E-12

  Minimum eigenvalue in the overlap matrix is 1.5235143754E-04.
  Reciprocal condition number of the overlap matrix is 3.0253016913E-05.
    Using symmetric orthogonalization.

  ==> Pre-Iterations <==

  SCF Guess: Superposition of Atomic Densities via on-the-fly atomic UHF (no occupation information).


 WARNING: Atomic UHF is not converging! Try casting from a smaller basis or call Rob at CCMST.

 WARNING: Atomic UHF is not converging! Try casting from a smaller basis or call Rob at CCMST.
   -------------------------
    Irrep   Nso     Nmo    
   -------------------------
     A1        42      42 
     A2        11      11 
     B1        24      24 
     B2        24      24 
   -------------------------
    Total     101     101
   -------------------------

  ==> Iterations <==

                        Total Energy        Delta E     RMS |[F,P]|

   @RHF iter SAD:  -408.04947134382530   -4.08049e+02   0.00000e+00 
   @RHF iter   1:  -434.48134969451837   -2.64319e+01   2.39555e-02 DIIS
   @RHF iter   2:  -435.00047741273067   -5.19128e-01   1.44856e-02 DIIS
   @RHF iter   3:  -435.32261765642806   -3.22140e-01   4.17470e-03 DIIS
   @RHF iter   4:  -435.35248640525253   -2.98687e-02   1.13698e-03 DIIS
   @RHF iter   5:  -435.35518986317271   -2.70346e-03   2.55728e-04 DIIS
   @RHF iter   6:  -435.35559776096909   -4.07898e-04   1.26178e-04 DIIS
   @RHF iter   7:  -435.35574887117565   -1.51110e-04   5.17203e-05 DIIS
   @RHF iter   8:  -435.35578967211637   -4.08009e-05   1.77904e-05 DIIS
   @RHF iter   9:  -435.35579418096103   -4.50884e-06   5.42592e-06 DIIS
   @RHF iter  10:  -435.35579441211939   -2.31158e-07   1.36804e-06 DIIS
   @RHF iter  11:  -435.35579442318681   -1.10674e-08   1.15400e-07 DIIS
   @RHF iter  12:  -435.35579442325121   -6.44036e-11   1.88776e-08 DIIS
   @RHF iter  13:  -435.35579442325286   -1.64846e-12   3.32193e-09 DIIS
  Energy and wave function converged.


  ==> Post-Iterations <==

    Orbital Energies [Eh]
    ---------------------

    Doubly Occupied:                                                      

       1A1   -92.001535     2A1   -11.357704     3A1    -9.007772  
       4A1    -6.687789     1B1    -6.686866     1B2    -6.686866  
       5A1    -1.099480     6A1    -0.693423     7A1    -0.471066  
       2B1    -0.462303     2B2    -0.462303  

    Virtual:                                                              

       3B2     0.045974     3B1     0.045974     8A1     0.052897  
       4B1     0.091650     4B2     0.091650     9A1     0.098193  
      10A1     0.106548     5B2     0.133033     5B1     0.133033  
      11A1     0.208009    12A1     0.242977     1A2     0.242977  
      13A1     0.258172     6B1     0.352516     6B2     0.352516  
      14A1     0.356596     2A2     0.376465    15A1     0.376465  
       7B1     0.405551     7B2     0.405551    16A1     0.458134  
       8B1     0.521583     8B2     0.521583    17A1     0.585943  
      18A1     0.642897    19A1     0.682090     3A2     0.682090  
       9B1     0.694293     9B2     0.694293    10B1     0.756050  
      10B2     0.756050    20A1     0.764847    11B1     0.824759  
      11B2     0.824759    21A1     0.903237     4A2     0.903237  
      22A1     0.974060    12B1     1.065829    12B2     1.065829  
       5A2     1.133907    23A1     1.133907    24A1     1.148060  
      13B2     1.164226    13B1     1.164226    14B1     1.321095  
      14B2     1.321095    25A1     1.411030     6A2     1.440521  
      26A1     1.440521    27A1     1.600997    15B1     1.668990  
      15B2     1.668990    28A1     1.673814     7A2     1.925908  
      29A1     1.925908    16B2     1.972621    16B1     1.972621  
      30A1     2.121146    17B1     2.292436    17B2     2.292436  
      18B1     2.319153    18B2     2.319153     8A2     2.350764  
      31A1     2.350764    32A1     2.435663    19B1     2.437011  
      19B2     2.437011    33A1     3.005663    20B1     3.043149  
      20B2     3.043149    34A1     3.356846    35A1     3.457023  
       9A2     3.457023    21B2     3.462203    21B1     3.462203  
      10A2     3.637178    36A1     3.637178    22B1     3.765831  
      22B2     3.765831    37A1     3.837492    23B1     3.904435  
      23B2     3.904435    38A1     4.235041    39A1     5.650494  
      11A2     7.298955    40A1     7.298955    24B2     7.419493  
      24B1     7.419493    41A1     7.596992    42A1     9.322547  

    Final Occupation by Irrep:
             A1    A2    B1    B2 
    DOCC [     7,    0,    2,    2 ]

  @RHF Final Energy:  -435.35579442325286

   => Energetics <=

    Nuclear Repulsion Energy =             33.0007460625711957
    One-Electron Energy =                -665.4788683300866978
    Two-Electron Energy =                 197.1223278442625997
    Total Energy =                       -435.3557944232528598

Computation Completed


Properties will be evaluated at   0.000000,   0.000000,   0.000000 [a0]

Properties computed using the SCF density matrix

  Nuclear Dipole Moment: [e a0]
     X:     0.0000      Y:     0.0000      Z:     0.0111

  Electronic Dipole Moment: [e a0]
     X:     0.0000      Y:     0.0000      Z:     0.6199

  Dipole Moment: [e a0]
     X:     0.0000      Y:     0.0000      Z:     0.6310     Total:     0.6310

  Dipole Moment: [D]
     X:     0.0000      Y:     0.0000      Z:     1.6037     Total:     1.6037


*** tstop() called on n412-040.vsc4.prov at Tue Jan 26 18:10:28 2021
Module time:
	user time   =      38.91 seconds =       0.65 minutes
	system time =       2.64 seconds =       0.04 minutes
	total time  =         10 seconds =       0.17 minutes
Total time:
	user time   =      38.91 seconds =       0.65 minutes
	system time =       2.64 seconds =       0.04 minutes
	total time  =         10 seconds =       0.17 minutes

*** tstart() called on n412-040.vsc4.prov
*** at Tue Jan 26 18:10:28 2021


	Wfn Parameters:
	--------------------
	Wavefunction         = CCSD_T
	Number of irreps     = 4
	Number of MOs        = 101
	Number of active MOs = 95
	AO-Basis             = NONE
	Semicanonical        = false
	Reference            = RHF
	Print Level          = 1

	IRREP	# MOs	# FZDC	# DOCC	# SOCC	# VIRT	# FZVR
	-----	-----	------	------	------	------	------
	 A1	   42	    4	    3	    0	    35	    0
	 A2	   11	    0	    0	    0	    11	    0
	 B1	   24	    1	    1	    0	    22	    0
	 B2	   24	    1	    1	    0	    22	    0
	Transforming integrals...
	IWL integrals will be deleted.
	(OO|OO)...
	Presorting SO-basis two-electron integrals.
	Sorting File: SO Ints (nn|nn) nbuckets = 1
	Constructing frozen core operators
	Starting first half-transformation.
	Sorting half-transformed integrals.
	First half integral transformation complete.
	Starting second half-transformation.
	Two-electron integral transformation complete.
	(OO|OV)...
	Starting second half-transformation.
	Two-electron integral transformation complete.
	(OO|VV)...
	Starting second half-transformation.
	Two-electron integral transformation complete.
	(OV|OO)...
	Starting first half-transformation.
	Sorting half-transformed integrals.
	First half integral transformation complete.
	Starting second half-transformation.
	Two-electron integral transformation complete.
	(OV|OV)...
	Starting second half-transformation.
	Two-electron integral transformation complete.
	(OV|VV)...
	Starting second half-transformation.
	Two-electron integral transformation complete.
	(VV|OO)...
	Starting first half-transformation.
	Sorting half-transformed integrals.
	First half integral transformation complete.
	Starting second half-transformation.
	Two-electron integral transformation complete.
	(VV|OV)...
	Starting second half-transformation.
	Two-electron integral transformation complete.
	(VV|VV)...
	Starting second half-transformation.
	Two-electron integral transformation complete.
	Frozen core energy     =   -444.66053670765882

	Size of irrep 0 of <ab|cd> integrals:      5.355 (MW) /     42.837 (MB)
	Size of irrep 1 of <ab|cd> integrals:      3.021 (MW) /     24.165 (MB)
	Size of irrep 2 of <ab|cd> integrals:      4.097 (MW) /     32.773 (MB)
	Size of irrep 3 of <ab|cd> integrals:      4.097 (MW) /     32.773 (MB)
	Total:                                    16.568 (MW) /    132.547 (MB)

	Size of irrep 0 of <ia|bc> integrals:      0.345 (MW) /      2.758 (MB)
	Size of irrep 1 of <ia|bc> integrals:      0.134 (MW) /      1.071 (MB)
	Size of irrep 2 of <ia|bc> integrals:      0.227 (MW) /      1.814 (MB)
	Size of irrep 3 of <ia|bc> integrals:      0.227 (MW) /      1.814 (MB)
	Total:                                     0.932 (MW) /      7.456 (MB)

	Size of irrep 0 of tijab amplitudes:       0.025 (MW) /      0.204 (MB)
	Size of irrep 1 of tijab amplitudes:       0.003 (MW) /      0.028 (MB)
	Size of irrep 2 of tijab amplitudes:       0.012 (MW) /      0.097 (MB)
	Size of irrep 3 of tijab amplitudes:       0.012 (MW) /      0.097 (MB)
	Total:                                     0.053 (MW) /      0.426 (MB)

	Nuclear Rep. energy          =     33.00074606257120
	SCF energy                   =   -435.35579442325286
	One-electron energy          =    -41.01485654784550
	Two-electron energy          =     17.31885276967880
	Reference energy             =   -435.35579442325434

*** tstop() called on n412-040.vsc4.prov at Tue Jan 26 18:10:33 2021
Module time:
	user time   =       1.37 seconds =       0.02 minutes
	system time =       0.77 seconds =       0.01 minutes
	total time  =          5 seconds =       0.08 minutes
Total time:
	user time   =      40.28 seconds =       0.67 minutes
	system time =       3.41 seconds =       0.06 minutes
	total time  =         15 seconds =       0.25 minutes
            **************************
            *                        *
            *        CCENERGY        *
            *                        *
            **************************

    Nuclear Rep. energy (wfn)     =   33.000746062571196
    SCF energy          (wfn)     = -435.355794423252860
    Reference energy    (file100) = -435.355794423254338

    Input parameters:
    -----------------
    Wave function   =     CCSD_T
    Reference wfn   =     RHF
    Brueckner       =     No
    Memory (Mbytes) =     250000.0
    Maxiter         =     50
    R_Convergence   =     1.0e-07
    E_Convergence   =     1.0e-06
    Restart         =     Yes
    DIIS            =     Yes
    AO Basis        =     NONE
    ABCD            =     NEW
    Cache Level     =     2
    Cache Type      =     LOW
    Print Level     =     1
    Num. of threads =     48
    # Amps to Print =     10
    Print MP2 Amps? =     No
    Analyze T2 Amps =     No
    Print Pair Ener =     No
    Local CC        =     No
    SCS-MP2         =     False
    SCSN-MP2        =     False
    SCS-CCSD        =     False

MP2 correlation energy -0.3080805400043533
                Solving CC Amplitude Equations
                ------------------------------
  Iter             Energy              RMS        T1Diag      D1Diag    New D1Diag    D2Diag
  ----     ---------------------    ---------   ----------  ----------  ----------   --------
     0        -0.308080540004353    0.000e+00    0.000000    0.000000    0.000000    0.173043
     1        -0.307267981256497    8.499e-02    0.019833    0.041593    0.041593    0.169347
     2        -0.319612042951179    3.639e-02    0.018115    0.036081    0.036081    0.180532
     3        -0.323642512665703    1.648e-02    0.022923    0.045834    0.045834    0.186118
     4        -0.323541312947658    4.393e-03    0.024031    0.047429    0.047429    0.187070
     5        -0.323616607532303    2.002e-03    0.024724    0.048641    0.048641    0.187675
     6        -0.323622909615162    5.486e-04    0.024904    0.048912    0.048912    0.187707
     7        -0.323618069841176    1.491e-04    0.024927    0.048945    0.048945    0.187687
     8        -0.323620519797530    5.247e-05    0.024938    0.048958    0.048958    0.187686
     9        -0.323620086566746    1.681e-05    0.024941    0.048961    0.048961    0.187683
    10        -0.323619543620178    5.369e-06    0.024941    0.048961    0.048961    0.187682
    11        -0.323619771822675    1.966e-06    0.024941    0.048960    0.048960    0.187682
    12        -0.323619659796788    7.304e-07    0.024941    0.048960    0.048960    0.187682
    13        -0.323619681189075    2.827e-07    0.024941    0.048960    0.048960    0.187682
    14        -0.323619688202649    6.947e-08    0.024941    0.048960    0.048960    0.187682

    Iterations converged.


    Largest TIA Amplitudes:
              4  68         0.0351044832
              3  46         0.0351044823
              2   5        -0.0218656521
              3  53         0.0184847775
              4  75         0.0184847773
              3  48         0.0167008237
              4  70         0.0167008233
              4  73         0.0132275679
              3  51         0.0132275673
              2   8        -0.0127497124

    Largest TIjAb Amplitudes:
      4   4  68  68        -0.0736634318
      3   3  46  46        -0.0736634273
      3   4  46  68        -0.0468210292
      4   3  68  46        -0.0468210292
      2   2  68  68        -0.0400530901
      2   2  46  46        -0.0400530888
      4   4  68  70        -0.0379745102
      4   4  70  68        -0.0379745102
      3   3  46  48        -0.0379745096
      3   3  48  46        -0.0379745096

    SCF energy       (wfn)                    = -435.355794423252860
    Reference energy (file100)                = -435.355794423254338

    Opposite-spin MP2 correlation energy      =   -0.232549155166438
    Same-spin MP2 correlation energy          =   -0.075531384837915
    Singles MP2 correlation energy            =   -0.000000000000000
    MP2 correlation energy                    =   -0.308080540004353
      * MP2 total energy                      = -435.663874963258706

    Opposite-spin CCSD correlation energy     =   -0.257000226112351
    Same-spin CCSD correlation energy         =   -0.066619462090297
    Singles CCSD correlation energy           =    0.000000000000000
    CCSD correlation energy                   =   -0.323619688202649
      * CCSD total energy                     = -435.679414111456992

            **************************
            *                        *
            *        CCTRIPLES       *
            *                        *
            **************************


    Wave function   =    CCSD_T
    Reference wfn   =      RHF

    Nuclear Rep. energy (wfn)                =   33.000746062571196
    SCF energy          (wfn)                = -435.355794423252860
    Reference energy    (file100)            = -435.355794423254338
    CCSD energy         (file100)            =   -0.323619688202649
    Total CCSD energy   (file100)            = -435.679414111456992

    Number of ijk index combinations:               35
    Memory available in words        :     31250000000
    ~Words needed per explicit thread:          171500
    Number of threads for explicit ijk threading:   48

    (T) energy                                =   -0.022161228235861
      * CCSD(T) total energy                  = -435.701575339692852


    Psi4 stopped on: Tuesday, 26 January 2021 06:10PM
    Psi4 wall time for execution: 0:00:21.04

*** Psi4 exiting successfully. Buy a developer a beer!
