
    -----------------------------------------------------------------------
          Psi4: An Open-Source Ab Initio Electronic Structure Package
                               Psi4 1.4a3.dev88 

                         Git: Rev {master} 262e345 


    D. G. A. Smith, L. A. Burns, A. C. Simmonett, R. M. Parrish,
    M. C. Schieber, R. Galvelis, P. Kraus, H. Kruse, R. Di Remigio,
    A. Alenaizan, A. M. James, S. Lehtola, J. P. Misiewicz, M. Scheurer,
    R. A. Shaw, J. B. Schriber, Y. Xie, Z. L. Glick, D. A. Sirianni,
    J. S. O'Brien, J. M. Waldrop, A. Kumar, E. G. Hohenstein,
    B. P. Pritchard, B. R. Brooks, H. F. Schaefer III, A. Yu. Sokolov,
    K. Patkowski, A. E. DePrince III, U. Bozkaya, R. A. King,
    F. A. Evangelista, J. M. Turney, T. D. Crawford, C. D. Sherrill,
    J. Chem. Phys. 152(18) 184108 (2020). https://doi.org/10.1063/5.0006002

                            Additional Code Authors
    E. T. Seidl, C. L. Janssen, E. F. Valeev, M. L. Leininger,
    J. F. Gonthier, R. M. Richard, H. R. McAlexander, M. Saitow, X. Wang,
    P. Verma, and M. H. Lechner

             Previous Authors, Complete List of Code Contributors,
                       and Citations for Specific Modules
    https://github.com/psi4/psi4/blob/master/codemeta.json
    https://github.com/psi4/psi4/graphs/contributors
    http://psicode.org/psi4manual/master/introduction.html#citing-psifour

    -----------------------------------------------------------------------


    Psi4 started on: Wednesday, 20 January 2021 11:38PM

    Process ID: 72420
    Host:       l43
    PSIDATADIR: /home/fs71337/gallo4/psi4/psi4/build/stage/share/psi4
    Memory:     500.0 MiB
    Threads:    48
    
  ==> Input File <==

--------------------------------------------------------------------------
# Any line starting with the # character is a comment line
memory 250000 mb
molecule molecule{
0 1
C          0.0000000000        0.0000000000        0.6060788671
H          0.0000000000        0.0000000000        1.6678001967
C          0.0000000000        0.0000000000       -0.6060788671
H          0.0000000000        0.0000000000       -1.6678001967
}

set {
  reference rhf
  basis aug-cc-pV(Q+d)Z
  scf_type OUT_OF_CORE
  freeze_core true
}

energy('ccsd(t)')
--------------------------------------------------------------------------

  Memory set to 232.831 GiB by Python driver.

Scratch directory: /tmp/

*** tstart() called on l43
*** at Wed Jan 20 23:38:10 2021

   => Loading Basis Set <=

    Name: AUG-CC-PV(Q+D)Z
    Role: ORBITAL
    Keyword: BASIS
    atoms 1, 3 entry C          line   331 file /home/fs71337/gallo4/psi4/psi4/build/stage/share/psi4/basis/aug-cc-pv_qpd_z.gbs 
    atoms 2, 4 entry H          line    68 file /home/fs71337/gallo4/psi4/psi4/build/stage/share/psi4/basis/aug-cc-pv_qpd_z.gbs 


         ---------------------------------------------------------
                                   SCF
               by Justin Turney, Rob Parrish, Andy Simmonett
                          and Daniel G. A. Smith
                              RHF Reference
                       48 Threads, 238418 MiB Core
         ---------------------------------------------------------

  ==> Geometry <==

    Molecular point group: d2h
    Full point group: D_inf_h

    Geometry (in Angstrom), charge = 0, multiplicity = 1:

       Center              X                  Y                   Z               Mass       
    ------------   -----------------  -----------------  -----------------  -----------------
         C            0.000000000000     0.000000000000     0.606078867100    12.000000000000
         H            0.000000000000     0.000000000000     1.667800196700     1.007825032230
         C            0.000000000000     0.000000000000    -0.606078867100    12.000000000000
         H            0.000000000000     0.000000000000    -1.667800196700     1.007825032230

  Running in d2h symmetry.

  Rotational constants: A = ************  B =      1.16883  C =      1.16883 [cm^-1]
  Rotational constants: A = ************  B =  35040.75834  C =  35040.75834 [MHz]
  Nuclear repulsion =   24.648348207776866

  Charge       = 0
  Multiplicity = 1
  Electrons    = 14
  Nalpha       = 7
  Nbeta        = 7

  ==> Algorithm <==

  SCF Algorithm Type is OUT_OF_CORE.
  DIIS enabled.
  MOM disabled.
  Fractional occupation disabled.
  Guess Type is SAD.
  Energy threshold   = 1.00e-08
  Density threshold  = 1.00e-08
  Integral threshold = 1.00e-12

  ==> Primary Basis <==

  Basis Set: AUG-CC-PV(Q+D)Z
    Blend: AUG-CC-PV(Q+D)Z
    Number of shells: 68
    Number of basis function: 252
    Number of Cartesian functions: 320
    Spherical Harmonics?: true
    Max angular momentum: 4

  ==> Integral Setup <==

  ==> DiskJK: Disk-Based J/K Matrices <==

    J tasked:                  Yes
    K tasked:                  Yes
    wK tasked:                  No
    Memory [MiB]:           178813
    Schwarz Cutoff:          1E-12

  Minimum eigenvalue in the overlap matrix is 1.4008036511E-06.
  Reciprocal condition number of the overlap matrix is 1.6794820734E-07.
    Using symmetric orthogonalization.

  ==> Pre-Iterations <==

  SCF Guess: Superposition of Atomic Densities via on-the-fly atomic UHF (no occupation information).


 WARNING: Atomic UHF is not converging! Try casting from a smaller basis or call Rob at CCMST.

 WARNING: Atomic UHF is not converging! Try casting from a smaller basis or call Rob at CCMST.
   -------------------------
    Irrep   Nso     Nmo    
   -------------------------
     Ag        50      50 
     B1g       16      16 
     B2g       30      30 
     B3g       30      30 
     Au        16      16 
     B1u       50      50 
     B2u       30      30 
     B3u       30      30 
   -------------------------
    Total     252     252
   -------------------------

  ==> Iterations <==

                        Total Energy        Delta E     RMS |[F,P]|

   @RHF iter SAD:   -66.08372896529073   -6.60837e+01   0.00000e+00 
    Occupation by irrep:
             Ag   B1g   B2g   B3g    Au   B1u   B2u   B3u 
    DOCC [     4,    0,    0,    0,    0,    3,    0,    0 ]

   @RHF iter   1:   -74.87522558860255   -8.79150e+00   2.17818e-02 DIIS
    Occupation by irrep:
             Ag   B1g   B2g   B3g    Au   B1u   B2u   B3u 
    DOCC [     3,    0,    0,    0,    0,    2,    1,    1 ]

   @RHF iter   2:   -72.94101087458719    1.93421e+00   1.46027e-02 DIIS
   @RHF iter   3:   -76.54943941572709   -3.60843e+00   7.44559e-03 DIIS
   @RHF iter   4:   -76.82391339911885   -2.74474e-01   2.07050e-03 DIIS
   @RHF iter   5:   -76.85316766319848   -2.92543e-02   1.61504e-04 DIIS
   @RHF iter   6:   -76.85346715511416   -2.99492e-04   3.20052e-05 DIIS
   @RHF iter   7:   -76.85347386249248   -6.70738e-06   1.08114e-05 DIIS
   @RHF iter   8:   -76.85347457889782   -7.16405e-07   2.43125e-06 DIIS
   @RHF iter   9:   -76.85347461754321   -3.86454e-08   2.02489e-07 DIIS
   @RHF iter  10:   -76.85347461781535   -2.72138e-10   1.58296e-08 DIIS
   @RHF iter  11:   -76.85347461781714   -1.79057e-12   1.76008e-09 DIIS
  Energy and wave function converged.


  ==> Post-Iterations <==

    Orbital Energies [Eh]
    ---------------------

    Doubly Occupied:                                                      

       1Ag   -11.245745     1B1u  -11.242135     2Ag    -1.027886  
       2B1u   -0.769540     3Ag    -0.681687     1B2u   -0.409140  
       1B3u   -0.409140  

    Virtual:                                                              

       4Ag     0.028056     3B1u    0.028889     2B2u    0.076584  
       2B3u    0.076584     1B3g    0.080484     1B2g    0.080484  
       5Ag     0.088641     4B1u    0.095615     6Ag     0.127704  
       2B2g    0.167214     2B3g    0.167214     5B1u    0.196776  
       6B1u    0.226867     7Ag     0.229481     8Ag     0.234864  
       1B1g    0.234864     3B2u    0.235576     3B3u    0.235576  
       1Au     0.296001     7B1u    0.296001     9Ag     0.309396  
       3B3g    0.320243     3B2g    0.320243     4B2u    0.324075  
       4B3u    0.324075     4B3g    0.337695     4B2g    0.337695  
       8B1u    0.345895    10Ag     0.348549     9B1u    0.446266  
      10B1u    0.485888    11Ag     0.486809     5B2u    0.546116  
       5B3u    0.546116    12Ag     0.648806     2B1g    0.648806  
       5B3g    0.652522     5B2g    0.652522     6B2u    0.697674  
       6B3u    0.697674    11B1u    0.725324    13Ag     0.727386  
      14Ag     0.733673     7B2u    0.744122     7B3u    0.744122  
      15Ag     0.762515     3B1g    0.762515     6B3g    0.763298  
       6B2g    0.763298    12B1u    0.775934     2Au     0.775934  
      13B1u    0.824357     3Au     0.824502    14B1u    0.824502  
       8B2u    0.840186     8B3u    0.840186    16Ag     0.864435  
       7B2g    0.912482     7B3g    0.912482    15B1u    0.930302  
      17Ag     1.128570     9B2u    1.141563     9B3u    1.141563  
       8B3g    1.143154     8B2g    1.143154     4B1g    1.210805  
      18Ag     1.210805    16B1u    1.223369     9B3g    1.250909  
       9B2g    1.250909     4Au     1.402493    17B1u    1.402493  
      18B1u    1.409208    19Ag     1.425866    10B2u    1.426892  
      10B3u    1.426892    10B3g    1.603596    10B2g    1.603596  
      20Ag     1.606560    19B1u    1.631495    11B2u    1.671980  
      11B3u    1.671980    20B1u    1.740863    12B2u    1.775712  
      12B3u    1.775712    21Ag     1.782422    11B3g    1.836744  
      11B2g    1.836744     5B1g    1.843729    22Ag     1.843729  
       5Au     1.925568    21B1u    1.925568    22B1u    1.929317  
      13B2u    1.970148    13B3u    1.970148     6B1g    2.051683  
      23Ag     2.051683     7B1g    2.079802    24Ag     2.079802  
      12B3g    2.087782    12B2g    2.087782    14B2u    2.173136  
      14B3u    2.173136    25Ag     2.222947    15B2u    2.223382  
      15B3u    2.223382     6Au     2.325493    23B1u    2.325493  
      13B3g    2.371810    13B2g    2.371810     7Au     2.382706  
      24B1u    2.382706    26Ag     2.400293    14B3g    2.405100  
      14B2g    2.405100     8B1g    2.411966    27Ag     2.411966  
      25B1u    2.414203    15B3g    2.504217    15B2g    2.504217  
       8Au     2.612276    26B1u    2.612276    16B2u    2.655998  
      16B3u    2.655998    17B2u    2.711073    17B3u    2.711073  
      27B1u    2.758447    28Ag     2.782567    29Ag     2.923222  
      16B3g    3.060878    16B2g    3.060878    28B1u    3.070431  
       9B1g    3.159165    30Ag     3.159165    17B3g    3.347979  
      17B2g    3.347979    29B1u    3.349830    18B3u    3.493832  
      18B2u    3.493832    19B2u    3.711696    19B3u    3.711696  
       9Au     3.804549    30B1u    3.804549    31B1u    3.867156  
      18B3g    3.885851    18B2g    3.885851    31Ag     3.963525  
      10B1g    4.033553    32Ag     4.033553    10Au     4.103184  
      32B1u    4.103184    33Ag     4.107756    19B2g    4.248042  
      19B3g    4.248042    33B1u    4.388536    34Ag     4.443039  
      20B3u    4.831751    20B2u    4.831751    34B1u    4.959585  
      20B3g    5.024695    20B2g    5.024695    35Ag     5.059938  
      35B1u    5.558749    21B2u    5.731329    21B3u    5.731329  
      36Ag     5.814974    11B1g    5.814974    12B1g    5.866451  
      37Ag     5.866451    22B3u    5.992350    22B2u    5.992350  
      11Au     6.006412    36B1u    6.006412    38Ag     6.110393  
      12Au     6.166497    37B1u    6.166497    23B3u    6.276134  
      23B2u    6.276134    21B2g    6.326488    21B3g    6.326488  
      13B1g    6.327120    39Ag     6.327120    22B2g    6.452617  
      22B3g    6.452617    24B2u    6.484205    24B3u    6.484205  
      40Ag     6.688806    14B1g    6.688806    23B2g    6.807011  
      23B3g    6.807011    38B1u    6.810008    25B2u    6.815422  
      25B3u    6.815422    24B3g    6.821694    24B2g    6.821694  
      26B3u    6.886449    26B2u    6.886449    41Ag     6.950557  
      25B3g    7.203328    25B2g    7.203328    39B1u    7.283023  
      13Au     7.283023    40B1u    7.609074    42Ag     7.876175  
      41B1u    7.919837    14Au     7.919837    26B2g    8.066984  
      26B3g    8.066984    43Ag     8.220696    15B1g    8.220696  
      27B3g    8.278915    27B2g    8.278915    27B3u    8.315173  
      27B2u    8.315173    42B1u    8.354169    44Ag     8.555837  
      28B3u    8.577855    28B2u    8.577855    43B1u    8.929475  
      15Au     8.929475    44B1u    8.975587    16B1g    9.384311  
      45Ag     9.384311    45B1u    9.476434    16Au     9.476434  
      46B1u    9.609316    29B2u    9.729990    29B3u    9.729990  
      46Ag     9.764449    28B2g    9.773800    28B3g    9.773800  
      29B2g   10.547503    29B3g   10.547503    47B1u   10.767875  
      47Ag    10.897727    48Ag    11.845123    30B3u   11.845379  
      30B2u   11.845379    48B1u   11.991810    30B2g   12.267033  
      30B3g   12.267033    49Ag    14.048822    49B1u   14.481158  
      50Ag    25.220224    50B1u   28.089634  

    Final Occupation by Irrep:
             Ag   B1g   B2g   B3g    Au   B1u   B2u   B3u 
    DOCC [     3,    0,    0,    0,    0,    2,    1,    1 ]

  @RHF Final Energy:   -76.85347461781714

   => Energetics <=

    Nuclear Repulsion Energy =             24.6483482077768663
    One-Electron Energy =                -151.4330968668813853
    Two-Electron Energy =                  49.9312740412873879
    Total Energy =                        -76.8534746178171417

Computation Completed


Properties will be evaluated at   0.000000,   0.000000,   0.000000 [a0]

Properties computed using the SCF density matrix

  Nuclear Dipole Moment: [e a0]
     X:     0.0000      Y:     0.0000      Z:    -0.0000

  Electronic Dipole Moment: [e a0]
     X:     0.0000      Y:     0.0000      Z:     0.0000

  Dipole Moment: [e a0]
     X:     0.0000      Y:     0.0000      Z:    -0.0000     Total:     0.0000

  Dipole Moment: [D]
     X:     0.0000      Y:     0.0000      Z:    -0.0000     Total:     0.0000


*** tstop() called on l43 at Wed Jan 20 23:38:53 2021
Module time:
	user time   =      43.30 seconds =       0.72 minutes
	system time =       6.99 seconds =       0.12 minutes
	total time  =         43 seconds =       0.72 minutes
Total time:
	user time   =      43.30 seconds =       0.72 minutes
	system time =       6.99 seconds =       0.12 minutes
	total time  =         43 seconds =       0.72 minutes

*** tstart() called on l43
*** at Wed Jan 20 23:38:53 2021


	Wfn Parameters:
	--------------------
	Wavefunction         = CCSD_T
	Number of irreps     = 8
	Number of MOs        = 252
	Number of active MOs = 250
	AO-Basis             = NONE
	Semicanonical        = false
	Reference            = RHF
	Print Level          = 1

	IRREP	# MOs	# FZDC	# DOCC	# SOCC	# VIRT	# FZVR
	-----	-----	------	------	------	------	------
	 Ag	   50	    1	    2	    0	    47	    0
	 B1g	   16	    0	    0	    0	    16	    0
	 B2g	   30	    0	    0	    0	    30	    0
	 B3g	   30	    0	    0	    0	    30	    0
	 Au	   16	    0	    0	    0	    16	    0
	 B1u	   50	    1	    1	    0	    48	    0
	 B2u	   30	    0	    1	    0	    29	    0
	 B3u	   30	    0	    1	    0	    29	    0
	Transforming integrals...
	IWL integrals will be deleted.
	(OO|OO)...
	Presorting SO-basis two-electron integrals.
	Sorting File: SO Ints (nn|nn) nbuckets = 1
	Constructing frozen core operators
	Starting first half-transformation.
	Sorting half-transformed integrals.
	First half integral transformation complete.
	Starting second half-transformation.
	Two-electron integral transformation complete.
	(OO|OV)...
	Starting second half-transformation.
	Two-electron integral transformation complete.
	(OO|VV)...
	Starting second half-transformation.
	Two-electron integral transformation complete.
	(OV|OO)...
	Starting first half-transformation.
	Sorting half-transformed integrals.
	First half integral transformation complete.
	Starting second half-transformation.
	Two-electron integral transformation complete.
	(OV|OV)...
	Starting second half-transformation.
	Two-electron integral transformation complete.
	(OV|VV)...
	Starting second half-transformation.
	Two-electron integral transformation complete.
	(VV|OO)...
	Starting first half-transformation.
	Sorting half-transformed integrals.
	First half integral transformation complete.
	Starting second half-transformation.
	Two-electron integral transformation complete.
	(VV|OV)...
	Starting second half-transformation.
	Two-electron integral transformation complete.
	(VV|VV)...
	Starting second half-transformation.
	Two-electron integral transformation complete.
	Frozen core energy     =    -76.37413599285830

	Size of irrep 0 of <ab|cd> integrals:     72.369 (MW) /    578.952 (MB)
	Size of irrep 1 of <ab|cd> integrals:     42.536 (MW) /    340.292 (MB)
	Size of irrep 2 of <ab|cd> integrals:     56.130 (MW) /    449.041 (MB)
	Size of irrep 3 of <ab|cd> integrals:     56.130 (MW) /    449.041 (MB)
	Size of irrep 4 of <ab|cd> integrals:     42.510 (MW) /    340.083 (MB)
	Size of irrep 5 of <ab|cd> integrals:     72.318 (MW) /    578.544 (MB)
	Size of irrep 6 of <ab|cd> integrals:     56.160 (MW) /    449.280 (MB)
	Size of irrep 7 of <ab|cd> integrals:     56.160 (MW) /    449.280 (MB)
	Total:                                   454.314 (MW) /   3634.513 (MB)

	Size of irrep 0 of <ia|bc> integrals:      1.701 (MW) /     13.611 (MB)
	Size of irrep 1 of <ia|bc> integrals:      0.691 (MW) /      5.531 (MB)
	Size of irrep 2 of <ia|bc> integrals:      1.146 (MW) /      9.170 (MB)
	Size of irrep 3 of <ia|bc> integrals:      1.146 (MW) /      9.170 (MB)
	Size of irrep 4 of <ia|bc> integrals:      0.704 (MW) /      5.633 (MB)
	Size of irrep 5 of <ia|bc> integrals:      1.726 (MW) /     13.810 (MB)
	Size of irrep 6 of <ia|bc> integrals:      1.132 (MW) /      9.053 (MB)
	Size of irrep 7 of <ia|bc> integrals:      1.132 (MW) /      9.053 (MB)
	Total:                                     9.379 (MW) /     75.032 (MB)

	Size of irrep 0 of tijab amplitudes:       0.060 (MW) /      0.476 (MB)
	Size of irrep 1 of tijab amplitudes:       0.013 (MW) /      0.104 (MB)
	Size of irrep 2 of tijab amplitudes:       0.015 (MW) /      0.120 (MB)
	Size of irrep 3 of tijab amplitudes:       0.015 (MW) /      0.120 (MB)
	Size of irrep 4 of tijab amplitudes:       0.000 (MW) /      0.000 (MB)
	Size of irrep 5 of tijab amplitudes:       0.034 (MW) /      0.272 (MB)
	Size of irrep 6 of tijab amplitudes:       0.030 (MW) /      0.240 (MB)
	Size of irrep 7 of tijab amplitudes:       0.030 (MW) /      0.240 (MB)
	Total:                                     0.197 (MW) /      1.572 (MB)

	Nuclear Rep. energy          =     24.64834820777687
	SCF energy                   =    -76.85347461781714
	One-electron energy          =    -43.66058608977735
	Two-electron energy          =     18.53289925704199
	Reference energy             =    -76.85347461781679

*** tstop() called on l43 at Wed Jan 20 23:39:35 2021
Module time:
	user time   =      26.92 seconds =       0.45 minutes
	system time =      15.32 seconds =       0.26 minutes
	total time  =         42 seconds =       0.70 minutes
Total time:
	user time   =      70.22 seconds =       1.17 minutes
	system time =      22.31 seconds =       0.37 minutes
	total time  =         85 seconds =       1.42 minutes
            **************************
            *                        *
            *        CCENERGY        *
            *                        *
            **************************

    Nuclear Rep. energy (wfn)     =   24.648348207776866
    SCF energy          (wfn)     =  -76.853474617817142
    Reference energy    (file100) =  -76.853474617816786

    Input parameters:
    -----------------
    Wave function   =     CCSD_T
    Reference wfn   =     RHF
    Brueckner       =     No
    Memory (Mbytes) =     250000.0
    Maxiter         =     50
    R_Convergence   =     1.0e-07
    E_Convergence   =     1.0e-06
    Restart         =     Yes
    DIIS            =     Yes
    AO Basis        =     NONE
    ABCD            =     NEW
    Cache Level     =     2
    Cache Type      =     LOW
    Print Level     =     1
    Num. of threads =     48
    # Amps to Print =     10
    Print MP2 Amps? =     No
    Analyze T2 Amps =     No
    Print Pair Ener =     No
    Local CC        =     No
    SCS-MP2         =     False
    SCSN-MP2        =     False
    SCS-CCSD        =     False

MP2 correlation energy -0.3322450405614347
                Solving CC Amplitude Equations
                ------------------------------
  Iter             Energy              RMS        T1Diag      D1Diag    New D1Diag    D2Diag
  ----     ---------------------    ---------   ----------  ----------  ----------   --------
     0        -0.332245040561435    0.000e+00    0.000000    0.000000    0.000000    0.167586
     1        -0.326632551229889    5.602e-02    0.011796    0.025069    0.025069    0.164543
     2        -0.336661891988920    2.293e-02    0.011630    0.024810    0.024810    0.174636
     3        -0.339113149400254    9.705e-03    0.013519    0.029001    0.029001    0.180425
     4        -0.339271999943725    2.811e-03    0.013621    0.029266    0.029266    0.182137
     5        -0.339354707521049    7.618e-04    0.013653    0.029354    0.029354    0.182623
     6        -0.339359584752807    1.904e-04    0.013634    0.029316    0.029316    0.182670
     7        -0.339360773511112    4.542e-05    0.013629    0.029305    0.029305    0.182678
     8        -0.339361862690013    1.410e-05    0.013628    0.029303    0.029303    0.182682
     9        -0.339361945786394    3.484e-06    0.013628    0.029302    0.029302    0.182683
    10        -0.339361852261668    9.056e-07    0.013628    0.029302    0.029302    0.182683
    11        -0.339361896259124    2.960e-07    0.013627    0.029302    0.029302    0.182683
    12        -0.339361889838126    7.478e-08    0.013627    0.029302    0.029302    0.182683

    Iterations converged.


    Largest TIA Amplitudes:
              4 218         0.0154525769
              3 189         0.0154525768
              4 222         0.0121303213
              3 193         0.0121303213
              4 220         0.0119735588
              3 191         0.0119735588
              4 216         0.0098116515
              3 187         0.0098116513
              4 226         0.0084787584
              3 197         0.0084787584

    Largest TIjAb Amplitudes:
      4   4  64  64        -0.0577934876
      3   3  94  94        -0.0577934876
      3   3  94  95        -0.0363414043
      3   3  95  94        -0.0363414043
      4   4  64  65        -0.0363414042
      4   4  65  64        -0.0363414042
      3   4  94  64        -0.0361874814
      4   3  64  94        -0.0361874814
      3   3  94  97        -0.0250004659
      3   3  97  94        -0.0250004659

    SCF energy       (wfn)                    =  -76.853474617817142
    Reference energy (file100)                =  -76.853474617816786

    Opposite-spin MP2 correlation energy      =   -0.257728803006368
    Same-spin MP2 correlation energy          =   -0.074516237555066
    Singles MP2 correlation energy            =   -0.000000000000000
    MP2 correlation energy                    =   -0.332245040561435
      * MP2 total energy                      =  -77.185719658378218

    Opposite-spin CCSD correlation energy     =   -0.275327103390641
    Same-spin CCSD correlation energy         =   -0.064034786447479
    Singles CCSD correlation energy           =    0.000000000000000
    CCSD correlation energy                   =   -0.339361889838126
      * CCSD total energy                     =  -77.192836507654917

            **************************
            *                        *
            *        CCTRIPLES       *
            *                        *
            **************************


    Wave function   =    CCSD_T
    Reference wfn   =      RHF

    Nuclear Rep. energy (wfn)                =   24.648348207776866
    SCF energy          (wfn)                =  -76.853474617817142
    Reference energy    (file100)            =  -76.853474617816786
    CCSD energy         (file100)            =   -0.339361889838126
    Total CCSD energy   (file100)            =  -77.192836507654917

    Number of ijk index combinations:               35
    Memory available in words        :     31250000000
    ~Words needed per explicit thread:          442368
    Number of threads for explicit ijk threading:   48

    (T) energy                                =   -0.018103426929589
      * CCSD(T) total energy                  =  -77.210939934584502


    Psi4 stopped on: Wednesday, 20 January 2021 11:40PM
    Psi4 wall time for execution: 0:01:52.56

*** Psi4 exiting successfully. Buy a developer a beer!
