
    -----------------------------------------------------------------------
          Psi4: An Open-Source Ab Initio Electronic Structure Package
                               Psi4 1.4a3.dev88 

                         Git: Rev {master} 262e345 


    D. G. A. Smith, L. A. Burns, A. C. Simmonett, R. M. Parrish,
    M. C. Schieber, R. Galvelis, P. Kraus, H. Kruse, R. Di Remigio,
    A. Alenaizan, A. M. James, S. Lehtola, J. P. Misiewicz, M. Scheurer,
    R. A. Shaw, J. B. Schriber, Y. Xie, Z. L. Glick, D. A. Sirianni,
    J. S. O'Brien, J. M. Waldrop, A. Kumar, E. G. Hohenstein,
    B. P. Pritchard, B. R. Brooks, H. F. Schaefer III, A. Yu. Sokolov,
    K. Patkowski, A. E. DePrince III, U. Bozkaya, R. A. King,
    F. A. Evangelista, J. M. Turney, T. D. Crawford, C. D. Sherrill,
    J. Chem. Phys. 152(18) 184108 (2020). https://doi.org/10.1063/5.0006002

                            Additional Code Authors
    E. T. Seidl, C. L. Janssen, E. F. Valeev, M. L. Leininger,
    J. F. Gonthier, R. M. Richard, H. R. McAlexander, M. Saitow, X. Wang,
    P. Verma, and M. H. Lechner

             Previous Authors, Complete List of Code Contributors,
                       and Citations for Specific Modules
    https://github.com/psi4/psi4/blob/master/codemeta.json
    https://github.com/psi4/psi4/graphs/contributors
    http://psicode.org/psi4manual/master/introduction.html#citing-psifour

    -----------------------------------------------------------------------


    Psi4 started on: Tuesday, 26 January 2021 06:39PM

    Process ID: 412420
    Host:       n412-039.vsc4.prov
    PSIDATADIR: /home/fs71337/gallo4/psi4/eri-6/psi4/build/stage/share/psi4
    Memory:     500.0 MiB
    Threads:    48
    
  ==> Input File <==

--------------------------------------------------------------------------
# Any line starting with the # character is a comment line
memory 250000 mb
molecule molecule{
0 1
C          0.0000000000        0.0000000000        0.6060788671
H          0.0000000000        0.0000000000        1.6678001967
C          0.0000000000        0.0000000000       -0.6060788671
H          0.0000000000        0.0000000000       -1.6678001967
}

set {
  reference rhf
  basis aug-cc-pV(d+d)Z
  scf_type OUT_OF_CORE
  freeze_core true
}

energy('ccsd(t)')
--------------------------------------------------------------------------

  Memory set to 232.831 GiB by Python driver.

Scratch directory: /binfl/lv71337/airmler/temp/

*** tstart() called on n412-039.vsc4.prov
*** at Tue Jan 26 18:39:13 2021

   => Loading Basis Set <=

    Name: AUG-CC-PV(D+D)Z
    Role: ORBITAL
    Keyword: BASIS
    atoms 1, 3 entry C          line   210 file /home/fs71337/gallo4/psi4/eri-6/psi4/build/stage/share/psi4/basis/aug-cc-pv_dpd_z.gbs 
    atoms 2, 4 entry H          line    68 file /home/fs71337/gallo4/psi4/eri-6/psi4/build/stage/share/psi4/basis/aug-cc-pv_dpd_z.gbs 


         ---------------------------------------------------------
                                   SCF
               by Justin Turney, Rob Parrish, Andy Simmonett
                          and Daniel G. A. Smith
                              RHF Reference
                       48 Threads, 238418 MiB Core
         ---------------------------------------------------------

  ==> Geometry <==

    Molecular point group: d2h
    Full point group: D_inf_h

    Geometry (in Angstrom), charge = 0, multiplicity = 1:

       Center              X                  Y                   Z               Mass       
    ------------   -----------------  -----------------  -----------------  -----------------
         C            0.000000000000     0.000000000000     0.606078867100    12.000000000000
         H            0.000000000000     0.000000000000     1.667800196700     1.007825032230
         C            0.000000000000     0.000000000000    -0.606078867100    12.000000000000
         H            0.000000000000     0.000000000000    -1.667800196700     1.007825032230

  Running in d2h symmetry.

  Rotational constants: A = ************  B =      1.16883  C =      1.16883 [cm^-1]
  Rotational constants: A = ************  B =  35040.75834  C =  35040.75834 [MHz]
  Nuclear repulsion =   24.648348207776866

  Charge       = 0
  Multiplicity = 1
  Electrons    = 14
  Nalpha       = 7
  Nbeta        = 7

  ==> Algorithm <==

  SCF Algorithm Type is OUT_OF_CORE.
  DIIS enabled.
  MOM disabled.
  Fractional occupation disabled.
  Guess Type is SAD.
  Energy threshold   = 1.00e-08
  Density threshold  = 1.00e-08
  Integral threshold = 1.00e-12

  ==> Primary Basis <==

  Basis Set: AUG-CC-PV(D+D)Z
    Blend: AUG-CC-PV(D+D)Z
    Number of shells: 28
    Number of basis function: 64
    Number of Cartesian functions: 68
    Spherical Harmonics?: true
    Max angular momentum: 2

  ==> Integral Setup <==

  ==> DiskJK: Disk-Based J/K Matrices <==

    J tasked:                  Yes
    K tasked:                  Yes
    wK tasked:                  No
    Memory [MiB]:           178813
    Schwarz Cutoff:          1E-12

  Minimum eigenvalue in the overlap matrix is 7.2251845261E-05.
  Reciprocal condition number of the overlap matrix is 1.2149999135E-05.
    Using symmetric orthogonalization.

  ==> Pre-Iterations <==

  SCF Guess: Superposition of Atomic Densities via on-the-fly atomic UHF (no occupation information).


 WARNING: Atomic UHF is not converging! Try casting from a smaller basis or call Rob at CCMST.

 WARNING: Atomic UHF is not converging! Try casting from a smaller basis or call Rob at CCMST.
   -------------------------
    Irrep   Nso     Nmo    
   -------------------------
     Ag        16      16 
     B1g        2       2 
     B2g        7       7 
     B3g        7       7 
     Au         2       2 
     B1u       16      16 
     B2u        7       7 
     B3u        7       7 
   -------------------------
    Total      64      64
   -------------------------

  ==> Iterations <==

                        Total Energy        Delta E     RMS |[F,P]|

   @RHF iter SAD:   -71.42993975190571   -7.14299e+01   0.00000e+00 
   @RHF iter   1:   -76.45384190491734   -5.02390e+00   2.79867e-02 DIIS
   @RHF iter   2:   -76.77590169883683   -3.22060e-01   1.09835e-02 DIIS
   @RHF iter   3:   -76.82692334700464   -5.10216e-02   1.11991e-03 DIIS
   @RHF iter   4:   -76.82782100314411   -8.97656e-04   1.54242e-04 DIIS
   @RHF iter   5:   -76.82784172642880   -2.07233e-05   2.94746e-05 DIIS
   @RHF iter   6:   -76.82784255135115   -8.24922e-07   5.35134e-06 DIIS
   @RHF iter   7:   -76.82784258425194   -3.29008e-08   4.81945e-07 DIIS
   @RHF iter   8:   -76.82784258442439   -1.72449e-10   4.03098e-08 DIIS
   @RHF iter   9:   -76.82784258442528   -8.95284e-13   5.08687e-09 DIIS
  Energy and wave function converged.


  ==> Post-Iterations <==

    Orbital Energies [Eh]
    ---------------------

    Doubly Occupied:                                                      

       1Ag   -11.256228     1B1u  -11.252714     2Ag    -1.031484  
       2B1u   -0.770110     3Ag    -0.681089     1B3u   -0.409097  
       1B2u   -0.409097  

    Virtual:                                                              

       4Ag     0.037447     3B1u    0.039811     1B3g    0.107479  
       1B2g    0.107479     2B3u    0.120453     2B2u    0.120453  
       5Ag     0.130645     4B1u    0.138873     6Ag     0.177604  
       2B2g    0.229183     2B3g    0.229183     5B1u    0.258241  
       6B1u    0.333364     7Ag     0.358851     3B3u    0.389689  
       3B2u    0.389689     1B1g    0.427341     8Ag     0.427341  
       3B2g    0.488116     3B3g    0.488116     9Ag     0.533401  
       7B1u    0.538678    10Ag     0.574540     1Au     0.596092  
       8B1u    0.596092     9B1u    0.674429     4B3u    0.773285  
       4B2u    0.773285    10B1u    0.833963     5B3u    0.848524  
       5B2u    0.848524     4B2g    0.861442     4B3g    0.861442  
      11Ag     0.993549     5B2g    1.185121     5B3g    1.185121  
      11B1u    1.240758    12Ag     1.397562     2B1g    1.561484  
      13Ag     1.561484    12B1u    1.641916     6B3u    1.648617  
       6B2u    1.648617    14Ag     1.677609     2Au     1.898917  
      13B1u    1.898917     6B2g    1.937213     6B3g    1.937213  
       7B3u    2.155282     7B2u    2.155282    14B1u    2.483169  
      15Ag     2.574712    15B1u    2.637611     7B3g    2.787823  
       7B2g    2.787823    16Ag     3.847071    16B1u    4.038104  

    Final Occupation by Irrep:
             Ag   B1g   B2g   B3g    Au   B1u   B2u   B3u 
    DOCC [     3,    0,    0,    0,    0,    2,    1,    1 ]

  @RHF Final Energy:   -76.82784258442528

   => Energetics <=

    Nuclear Repulsion Energy =             24.6483482077768663
    One-Electron Energy =                -151.3327410674867792
    Two-Electron Energy =                  49.8565502752846399
    Total Energy =                        -76.8278425844252695

Computation Completed


Properties will be evaluated at   0.000000,   0.000000,   0.000000 [a0]

Properties computed using the SCF density matrix

  Nuclear Dipole Moment: [e a0]
     X:     0.0000      Y:     0.0000      Z:    -0.0000

  Electronic Dipole Moment: [e a0]
     X:     0.0000      Y:     0.0000      Z:     0.0000

  Dipole Moment: [e a0]
     X:     0.0000      Y:     0.0000      Z:    -0.0000     Total:     0.0000

  Dipole Moment: [D]
     X:     0.0000      Y:     0.0000      Z:    -0.0000     Total:     0.0000


*** tstop() called on n412-039.vsc4.prov at Tue Jan 26 18:39:14 2021
Module time:
	user time   =      17.20 seconds =       0.29 minutes
	system time =       1.05 seconds =       0.02 minutes
	total time  =          1 seconds =       0.02 minutes
Total time:
	user time   =      17.20 seconds =       0.29 minutes
	system time =       1.05 seconds =       0.02 minutes
	total time  =          1 seconds =       0.02 minutes

*** tstart() called on n412-039.vsc4.prov
*** at Tue Jan 26 18:39:14 2021


	Wfn Parameters:
	--------------------
	Wavefunction         = CCSD_T
	Number of irreps     = 8
	Number of MOs        = 64
	Number of active MOs = 62
	AO-Basis             = NONE
	Semicanonical        = false
	Reference            = RHF
	Print Level          = 1

	IRREP	# MOs	# FZDC	# DOCC	# SOCC	# VIRT	# FZVR
	-----	-----	------	------	------	------	------
	 Ag	   16	    1	    2	    0	    13	    0
	 B1g	   2	    0	    0	    0	    2	    0
	 B2g	   7	    0	    0	    0	    7	    0
	 B3g	   7	    0	    0	    0	    7	    0
	 Au	   2	    0	    0	    0	    2	    0
	 B1u	   16	    1	    1	    0	    14	    0
	 B2u	   7	    0	    1	    0	    6	    0
	 B3u	   7	    0	    1	    0	    6	    0
	Transforming integrals...
	IWL integrals will be deleted.
	(OO|OO)...
	Presorting SO-basis two-electron integrals.
	Sorting File: SO Ints (nn|nn) nbuckets = 1
	Constructing frozen core operators
	Starting first half-transformation.
	Sorting half-transformed integrals.
	First half integral transformation complete.
	Starting second half-transformation.
	Two-electron integral transformation complete.
	(OO|OV)...
	Starting second half-transformation.
	Two-electron integral transformation complete.
	(OO|VV)...
	Starting second half-transformation.
	Two-electron integral transformation complete.
	(OV|OO)...
	Starting first half-transformation.
	Sorting half-transformed integrals.
	First half integral transformation complete.
	Starting second half-transformation.
	Two-electron integral transformation complete.
	(OV|OV)...
	Starting second half-transformation.
	Two-electron integral transformation complete.
	(OV|VV)...
	Starting second half-transformation.
	Two-electron integral transformation complete.
	(VV|OO)...
	Starting first half-transformation.
	Sorting half-transformed integrals.
	First half integral transformation complete.
	Starting second half-transformation.
	Two-electron integral transformation complete.
	(VV|OV)...
	Starting second half-transformation.
	Two-electron integral transformation complete.
	(VV|VV)...
	Starting second half-transformation.
	Two-electron integral transformation complete.
	Frozen core energy     =    -76.37269860517483

	Size of irrep 0 of <ab|cd> integrals:      0.295 (MW) /      2.359 (MB)
	Size of irrep 1 of <ab|cd> integrals:      0.077 (MW) /      0.618 (MB)
	Size of irrep 2 of <ab|cd> integrals:      0.162 (MW) /      1.293 (MB)
	Size of irrep 3 of <ab|cd> integrals:      0.162 (MW) /      1.293 (MB)
	Size of irrep 4 of <ab|cd> integrals:      0.076 (MW) /      0.609 (MB)
	Size of irrep 5 of <ab|cd> integrals:      0.292 (MW) /      2.333 (MB)
	Size of irrep 6 of <ab|cd> integrals:      0.163 (MW) /      1.306 (MB)
	Size of irrep 7 of <ab|cd> integrals:      0.163 (MW) /      1.306 (MB)
	Total:                                     1.390 (MW) /     11.116 (MB)

	Size of irrep 0 of <ia|bc> integrals:      0.028 (MW) /      0.226 (MB)
	Size of irrep 1 of <ia|bc> integrals:      0.005 (MW) /      0.040 (MB)
	Size of irrep 2 of <ia|bc> integrals:      0.014 (MW) /      0.116 (MB)
	Size of irrep 3 of <ia|bc> integrals:      0.014 (MW) /      0.116 (MB)
	Size of irrep 4 of <ia|bc> integrals:      0.006 (MW) /      0.044 (MB)
	Size of irrep 5 of <ia|bc> integrals:      0.030 (MW) /      0.238 (MB)
	Size of irrep 6 of <ia|bc> integrals:      0.014 (MW) /      0.110 (MB)
	Size of irrep 7 of <ia|bc> integrals:      0.014 (MW) /      0.110 (MB)
	Total:                                     0.125 (MW) /      0.999 (MB)

	Size of irrep 0 of tijab amplitudes:       0.004 (MW) /      0.030 (MB)
	Size of irrep 1 of tijab amplitudes:       0.001 (MW) /      0.004 (MB)
	Size of irrep 2 of tijab amplitudes:       0.001 (MW) /      0.006 (MB)
	Size of irrep 3 of tijab amplitudes:       0.001 (MW) /      0.006 (MB)
	Size of irrep 4 of tijab amplitudes:       0.000 (MW) /      0.000 (MB)
	Size of irrep 5 of tijab amplitudes:       0.002 (MW) /      0.017 (MB)
	Size of irrep 6 of tijab amplitudes:       0.002 (MW) /      0.013 (MB)
	Size of irrep 7 of tijab amplitudes:       0.002 (MW) /      0.013 (MB)
	Total:                                     0.011 (MW) /      0.091 (MB)

	Nuclear Rep. energy          =     24.64834820777687
	SCF energy                   =    -76.82784258442528
	One-electron energy          =    -43.60522951255250
	Two-electron energy          =     18.50173732552516
	Reference energy             =    -76.82784258442530

*** tstop() called on n412-039.vsc4.prov at Tue Jan 26 18:39:16 2021
Module time:
	user time   =       0.11 seconds =       0.00 minutes
	system time =       0.24 seconds =       0.00 minutes
	total time  =          2 seconds =       0.03 minutes
Total time:
	user time   =      17.31 seconds =       0.29 minutes
	system time =       1.29 seconds =       0.02 minutes
	total time  =          3 seconds =       0.05 minutes
            **************************
            *                        *
            *        CCENERGY        *
            *                        *
            **************************

    Nuclear Rep. energy (wfn)     =   24.648348207776866
    SCF energy          (wfn)     =  -76.827842584425284
    Reference energy    (file100) =  -76.827842584425298

    Input parameters:
    -----------------
    Wave function   =     CCSD_T
    Reference wfn   =     RHF
    Brueckner       =     No
    Memory (Mbytes) =     250000.0
    Maxiter         =     50
    R_Convergence   =     1.0e-07
    E_Convergence   =     1.0e-06
    Restart         =     Yes
    DIIS            =     Yes
    AO Basis        =     NONE
    ABCD            =     NEW
    Cache Level     =     2
    Cache Type      =     LOW
    Print Level     =     1
    Num. of threads =     48
    # Amps to Print =     10
    Print MP2 Amps? =     No
    Analyze T2 Amps =     No
    Print Pair Ener =     No
    Local CC        =     No
    SCS-MP2         =     False
    SCSN-MP2        =     False
    SCS-CCSD        =     False

MP2 correlation energy -0.2642132147025812
                Solving CC Amplitude Equations
                ------------------------------
  Iter             Energy              RMS        T1Diag      D1Diag    New D1Diag    D2Diag
  ----     ---------------------    ---------   ----------  ----------  ----------   --------
     0        -0.264213214702581    0.000e+00    0.000000    0.000000    0.000000    0.162453
     1        -0.268934630725600    5.208e-02    0.009706    0.020524    0.020524    0.165351
     2        -0.277598012204895    2.182e-02    0.010542    0.022008    0.022008    0.176067
     3        -0.279735029483628    9.284e-03    0.012101    0.025234    0.025234    0.181874
     4        -0.280041732847784    3.021e-03    0.012242    0.025520    0.025520    0.184079
     5        -0.280088532356642    6.611e-04    0.012246    0.025543    0.025543    0.184485
     6        -0.280088014855720    1.808e-04    0.012227    0.025510    0.025510    0.184521
     7        -0.280090349586235    4.054e-05    0.012223    0.025503    0.025503    0.184530
     8        -0.280090864299426    1.231e-05    0.012222    0.025502    0.025502    0.184533
     9        -0.280090682660713    3.023e-06    0.012222    0.025501    0.025501    0.184534
    10        -0.280090709533871    7.552e-07    0.012222    0.025501    0.025501    0.184534
    11        -0.280090719284599    2.059e-07    0.012222    0.025501    0.025501    0.184534
    12        -0.280090722029001    5.947e-08    0.012222    0.025501    0.025501    0.184534

    Iterations converged.


    Largest TIA Amplitudes:
              3  48         0.0196287821
              4  54         0.0196287819
              3  45         0.0099502522
              4  51         0.0099502515
              4  55         0.0081555865
              3  49         0.0081555865
              4  56         0.0071958875
              3  50         0.0071958874
              1   3         0.0060314947
              3  47         0.0053490385

    Largest TIjAb Amplitudes:
      4   4  16  16        -0.0712453138
      3   3  23  23        -0.0712453134
      3   4  23  16        -0.0441247577
      4   3  16  23        -0.0441247577
      3   3  22  23        -0.0422559330
      3   3  23  22        -0.0422559330
      4   4  15  16        -0.0422559329
      4   4  16  15        -0.0422559329
      4   4  16  17        -0.0275172695
      4   4  17  16        -0.0275172695

    SCF energy       (wfn)                    =  -76.827842584425284
    Reference energy (file100)                =  -76.827842584425298

    Opposite-spin MP2 correlation energy      =   -0.200485868653499
    Same-spin MP2 correlation energy          =   -0.063727346049082
    Singles MP2 correlation energy            =   -0.000000000000000
    MP2 correlation energy                    =   -0.264213214702581
      * MP2 total energy                      =  -77.092055799127877

    Opposite-spin CCSD correlation energy     =   -0.225873624940248
    Same-spin CCSD correlation energy         =   -0.054217097088754
    Singles CCSD correlation energy           =    0.000000000000000
    CCSD correlation energy                   =   -0.280090722029001
      * CCSD total energy                     =  -77.107933306454299

            **************************
            *                        *
            *        CCTRIPLES       *
            *                        *
            **************************


    Wave function   =    CCSD_T
    Reference wfn   =      RHF

    Nuclear Rep. energy (wfn)                =   24.648348207776866
    SCF energy          (wfn)                =  -76.827842584425284
    Reference energy    (file100)            =  -76.827842584425298
    CCSD energy         (file100)            =   -0.280090722029001
    Total CCSD energy   (file100)            =  -77.107933306454299

    Number of ijk index combinations:               35
    Memory available in words        :     31250000000
    ~Words needed per explicit thread:           10976
    Number of threads for explicit ijk threading:   48

    (T) energy                                =   -0.012448497162117
      * CCSD(T) total energy                  =  -77.120381803616411


    Psi4 stopped on: Tuesday, 26 January 2021 06:39PM
    Psi4 wall time for execution: 0:00:06.38

*** Psi4 exiting successfully. Buy a developer a beer!
