
    -----------------------------------------------------------------------
          Psi4: An Open-Source Ab Initio Electronic Structure Package
                               Psi4 1.2a1.dev938 

                         Git: Rev {HEAD} fc51d9a dirty


    R. M. Parrish, L. A. Burns, D. G. A. Smith, A. C. Simmonett,
    A. E. DePrince III, E. G. Hohenstein, U. Bozkaya, A. Yu. Sokolov,
    R. Di Remigio, R. M. Richard, J. F. Gonthier, A. M. James,
    H. R. McAlexander, A. Kumar, M. Saitow, X. Wang, B. P. Pritchard,
    P. Verma, H. F. Schaefer III, K. Patkowski, R. A. King, E. F. Valeev,
    F. A. Evangelista, J. M. Turney, T. D. Crawford, and C. D. Sherrill,
    J. Chem. Theory Comput. 13(7) pp 3185--3197 (2017).
    (doi: 10.1021/acs.jctc.7b00174)

    -----------------------------------------------------------------------


    Psi4 started on: Thursday, 20 August 2020 07:56PM

    Process ID: 423053
    PSIDATADIR: /home/irmler/Programs/psi4/beforeGrueneis3/stage/usr/local/psi4/share/psi4
    Memory:     500.0 MiB
    Threads:    4
    
  ==> Input File <==

--------------------------------------------------------------------------
# Any line starting with the # character is a comment line
memory 250000 mb
molecule molecule{
0 3
C          0.0000000000        0.0000000000        0.0000000000
}

set {
  reference uhf
  basis aug-cc-pv(d+d)z
  scf_type OUT_OF_CORE
  freeze_core true
}

energy('ccsd')
--------------------------------------------------------------------------

  Memory set to 232.831 GiB by Python driver.

*** tstart() called on cqc05
*** at Thu Aug 20 19:56:21 2020

   => Loading Basis Set <=

    Name: AUG-CC-PV(D+D)Z
    Role: ORBITAL
    Keyword: BASIS
    atoms 1 entry C          line   198 file /home/irmler/Programs/psi4/beforeGrueneis3/stage/usr/local/psi4/share/psi4/basis/aug-cc-pv_dpd_z.gbs 


         ---------------------------------------------------------
                                   SCF
            by Justin Turney, Rob Parrish, Andy Simmonett
                             and Daniel Smith
                              UHF Reference
                        4 Threads, 238418 MiB Core
         ---------------------------------------------------------

  ==> Geometry <==

    Molecular point group: d2h
    Geometry (in Angstrom), charge = 0, multiplicity = 3:

       Center              X                  Y                   Z               Mass       
    ------------   -----------------  -----------------  -----------------  -----------------
           C          0.000000000000     0.000000000000     0.000000000000    12.000000000000

  Running in d2h symmetry.

  Rotational constants: A = ************  B = ************  C = ************ [cm^-1]
  Rotational constants: A = ************  B = ************  C = ************ [MHz]
  Nuclear repulsion =    0.000000000000000

  Charge       = 0
  Multiplicity = 3
  Electrons    = 6
  Nalpha       = 4
  Nbeta        = 2

  ==> Algorithm <==

  SCF Algorithm Type is OUT_OF_CORE.
  DIIS enabled.
  MOM disabled.
  Fractional occupation disabled.
  Guess Type is GWH.
  Energy threshold   = 1.00e-08
  Density threshold  = 1.00e-08
  Integral threshold = 0.00e+00

  ==> Primary Basis <==

  Basis Set: AUG-CC-PV(D+D)Z
    Blend: AUG-CC-PV(D+D)Z
    Number of shells: 9
    Number of basis function: 23
    Number of Cartesian functions: 25
    Spherical Harmonics?: true
    Max angular momentum: 2

  ==> Pre-Iterations <==

   -------------------------------------------------------
    Irrep   Nso     Nmo     Nalpha   Nbeta   Ndocc  Nsocc
   -------------------------------------------------------
     Ag         8       8       0       0       0       0
     B1g        2       2       0       0       0       0
     B2g        2       2       0       0       0       0
     B3g        2       2       0       0       0       0
     Au         0       0       0       0       0       0
     B1u        3       3       0       0       0       0
     B2u        3       3       0       0       0       0
     B3u        3       3       0       0       0       0
   -------------------------------------------------------
    Total      23      23       4       2       2       2
   -------------------------------------------------------

  ==> Integral Setup <==

  ==> DiskJK: Disk-Based J/K Matrices <==

    J tasked:                  Yes
    K tasked:                  Yes
    wK tasked:                  No
    Memory (MB):            178813
    Schwarz Cutoff:          1E-12

  Minimum eigenvalue in the overlap matrix is 7.9241747161E-02.
  Using Symmetric Orthogonalization.

  SCF Guess: Generalized Wolfsberg-Helmholtz.

  ==> Iterations <==

                        Total Energy        Delta E     RMS |[F,P]|

   @UHF iter   1:   -37.55440990367016   -3.75544e+01   7.51396e-02 
   @UHF iter   2:   -37.68590797236332   -1.31498e-01   4.39776e-03 DIIS
   @UHF iter   3:   -37.68748938889819   -1.58142e-03   1.60047e-03 DIIS
   @UHF iter   4:   -37.68775024038113   -2.60851e-04   3.14958e-04 DIIS
   @UHF iter   5:   -37.68776290640506   -1.26660e-05   6.02560e-05 DIIS
   @UHF iter   6:   -37.68776326553434   -3.59129e-07   4.54689e-06 DIIS
   @UHF iter   7:   -37.68776326738974   -1.85540e-09   2.00534e-07 DIIS
   @UHF iter   8:   -37.68776326739312   -3.37508e-12   2.35299e-08 DIIS
   @UHF iter   9:   -37.68776326739317   -4.97380e-14   1.68032e-09 DIIS

  ==> Post-Iterations <==

   @Spin Contamination Metric:   9.645980023E-03
   @S^2 Expected:                2.000000000E+00
   @S^2 Observed:                2.009645980E+00
   @S   Expected:                1.000000000E+00
   @S   Observed:                1.000000000E+00

    Orbital Energies (a.u.)
    -----------------------

    Alpha Occupied:                                                       

       1Ag   -11.351427     2Ag    -0.830390     1B2u   -0.438185  
       1B1u   -0.438185  

    Alpha Virtual:                                                        

       1B3u    0.017329     3Ag     0.109114     2B2u    0.115007  
       2B1u    0.115007     2B3u    0.147956     1B3g    0.437826  
       4Ag     0.437826     1B2g    0.442446     1B1g    0.442446  
       5Ag     0.444791     3B1u    0.746199     3B2u    0.746199  
       3B3u    0.815460     6Ag     0.959027     2B3g    1.618321  
       7Ag     1.618321     2B1g    1.636417     2B2g    1.636417  
       8Ag     1.643884  

    Beta Occupied:                                                        

       1Ag   -11.304947     2Ag    -0.586405  

    Beta Virtual:                                                         

       1B3u    0.039743     1B2u    0.068181     1B1u    0.068181  
       3Ag     0.124248     2B3u    0.168046     2B2u    0.208924  
       2B1u    0.208924     4Ag     0.461678     1B2g    0.467521  
       1B1g    0.467521     1B3g    0.486050     5Ag     0.486050  
       3B3u    0.844637     3B1u    0.893511     3B2u    0.893511  
       6Ag     1.025222     7Ag     1.700889     2B1g    1.714700  
       2B2g    1.714700     2B3g    1.760450     8Ag     1.760450  

    Final Occupation by Irrep:
             Ag   B1g   B2g   B3g    Au   B1u   B2u   B3u 
    DOCC [     2,    0,    0,    0,    0,    0,    0,    0 ]
    SOCC [     0,    0,    0,    0,    0,    1,    1,    0 ]

  Energy converged.

  @UHF Final Energy:   -37.68776326739317

   => Energetics <=

    Nuclear Repulsion Energy =              0.0000000000000000
    One-Electron Energy =                 -50.4259867892831082
    Two-Electron Energy =                  12.7382235218899389
    Total Energy =                        -37.6877632673931657


  UHF NO Occupations:
  HONO-2 :    2 Ag 1.9951665
  HONO-1 :    1B2u 1.0000000
  HONO-0 :    1B1u 1.0000000
  LUNO+0 :    3 Ag 0.0048335
  LUNO+1 :    4 Ag 0.0000012
  LUNO+2 :    5 Ag 0.0000000
  LUNO+3 :    2B1u 0.0000000



Properties will be evaluated at   0.000000,   0.000000,   0.000000 Bohr

Properties computed using the SCF density matrix

  Nuclear Dipole Moment: (a.u.)
     X:     0.0000      Y:     0.0000      Z:     0.0000

  Electronic Dipole Moment: (a.u.)
     X:     0.0000      Y:     0.0000      Z:     0.0000

  Dipole Moment: (a.u.)
     X:     0.0000      Y:     0.0000      Z:     0.0000     Total:     0.0000

  Dipole Moment: (Debye)
     X:     0.0000      Y:     0.0000      Z:     0.0000     Total:     0.0000


*** tstop() called on cqc05 at Thu Aug 20 19:56:22 2020
Module time:
	user time   =       0.22 seconds =       0.00 minutes
	system time =       0.01 seconds =       0.00 minutes
	total time  =          1 seconds =       0.02 minutes
Total time:
	user time   =       0.22 seconds =       0.00 minutes
	system time =       0.01 seconds =       0.00 minutes
	total time  =          1 seconds =       0.02 minutes

*** tstart() called on cqc05
*** at Thu Aug 20 19:56:22 2020


	Wfn Parameters:
	--------------------
	Wavefunction         = CCSD
	Number of irreps     = 8
	Number of MOs        = 23
	Number of active MOs = 22
	AO-Basis             = NONE
	Semicanonical        = false
	Reference            = UHF
	Print Level          = 1

	IRREP	# MOs	# FZDC	# DOCC	# SOCC	# VIRT	# FZVR
	-----	-----	------	------	------	------	------
	 Ag	   8	    1	    1	    0	    6	    0
	 B1g	   2	    0	    0	    0	    2	    0
	 B2g	   2	    0	    0	    0	    2	    0
	 B3g	   2	    0	    0	    0	    2	    0
	 Au	   0	    0	    0	    0	    0	    0
	 B1u	   3	    0	    0	    1	    2	    0
	 B2u	   3	    0	    0	    1	    2	    0
	 B3u	   3	    0	    0	    0	    3	    0
	Transforming integrals...
	IWL integrals will be deleted.
	(OO|OO)...
	Presorting SO-basis two-electron integrals.
	Sorting File: SO Ints (nn|nn) nbuckets = 1
	Transforming the one-electron integrals and constructing Fock matrices
	Starting AA/AB first half-transformation.
	Sorting AA/AB half-transformed integrals.
	Starting BB first half-transformation.
	Sorting BB half-transformed integrals.
	First half integral transformation complete.
	Starting AA second half-transformation.
	Starting AB second half-transformation.
	Starting BB second half-transformation.
	Two-electron integral transformation complete.
	(OO|OV)...
	Starting AA second half-transformation.
	Starting AB second half-transformation.
	Starting BB second half-transformation.
	Two-electron integral transformation complete.
	(OO|VV)...
	Starting AA second half-transformation.
	Starting AB second half-transformation.
	Starting BB second half-transformation.
	Two-electron integral transformation complete.
	(OV|OO)...
	Starting AA/AB first half-transformation.
	Sorting AA/AB half-transformed integrals.
	Starting BB first half-transformation.
	Sorting BB half-transformed integrals.
	First half integral transformation complete.
	Starting AA second half-transformation.
	Starting AB second half-transformation.
	Starting BB second half-transformation.
	Two-electron integral transformation complete.
	(OV|OV)...
	Starting AA second half-transformation.
	Starting AB second half-transformation.
	Starting BB second half-transformation.
	Two-electron integral transformation complete.
	(OV|VV)...
	Starting AA second half-transformation.
	Starting AB second half-transformation.
	Starting BB second half-transformation.
	Two-electron integral transformation complete.
	(VV|OO)...
	Starting AA/AB first half-transformation.
	Sorting AA/AB half-transformed integrals.
	Starting BB first half-transformation.
	Sorting BB half-transformed integrals.
	First half integral transformation complete.
	Starting AA second half-transformation.
	Starting AB second half-transformation.
	Starting BB second half-transformation.
	Two-electron integral transformation complete.
	(VV|OV)...
	Starting AA second half-transformation.
	Starting AB second half-transformation.
	Starting BB second half-transformation.
	Two-electron integral transformation complete.
	(VV|VV)...
	Starting AA second half-transformation.
	Starting AB second half-transformation.
	Starting BB second half-transformation.
	Two-electron integral transformation complete.
	Frozen core energy     =    -32.35900719711966

	Size of irrep 0 of <AB|CD> integrals:      0.001 (MW) /      0.004 (MB)
	Size of irrep 1 of <AB|CD> integrals:      0.000 (MW) /      0.004 (MB)
	Size of irrep 2 of <AB|CD> integrals:      0.000 (MW) /      0.004 (MB)
	Size of irrep 3 of <AB|CD> integrals:      0.000 (MW) /      0.003 (MB)
	Size of irrep 4 of <AB|CD> integrals:      0.000 (MW) /      0.002 (MB)
	Size of irrep 5 of <AB|CD> integrals:      0.000 (MW) /      0.004 (MB)
	Size of irrep 6 of <AB|CD> integrals:      0.000 (MW) /      0.004 (MB)
	Size of irrep 7 of <AB|CD> integrals:      0.001 (MW) /      0.005 (MB)
	Total:                                     0.004 (MW) /      0.030 (MB)

	Size of irrep 0 of <ab|cd> integrals:      0.001 (MW) /      0.006 (MB)
	Size of irrep 1 of <ab|cd> integrals:      0.001 (MW) /      0.005 (MB)
	Size of irrep 2 of <ab|cd> integrals:      0.001 (MW) /      0.005 (MB)
	Size of irrep 3 of <ab|cd> integrals:      0.001 (MW) /      0.005 (MB)
	Size of irrep 4 of <ab|cd> integrals:      0.000 (MW) /      0.003 (MB)
	Size of irrep 5 of <ab|cd> integrals:      0.001 (MW) /      0.007 (MB)
	Size of irrep 6 of <ab|cd> integrals:      0.001 (MW) /      0.007 (MB)
	Size of irrep 7 of <ab|cd> integrals:      0.001 (MW) /      0.007 (MB)
	Total:                                     0.006 (MW) /      0.045 (MB)

	Size of irrep 0 of <Ab|Cd> integrals:      0.005 (MW) /      0.038 (MB)
	Size of irrep 1 of <Ab|Cd> integrals:      0.002 (MW) /      0.018 (MB)
	Size of irrep 2 of <Ab|Cd> integrals:      0.002 (MW) /      0.018 (MB)
	Size of irrep 3 of <Ab|Cd> integrals:      0.002 (MW) /      0.015 (MB)
	Size of irrep 4 of <Ab|Cd> integrals:      0.001 (MW) /      0.008 (MB)
	Size of irrep 5 of <Ab|Cd> integrals:      0.003 (MW) /      0.022 (MB)
	Size of irrep 6 of <Ab|Cd> integrals:      0.003 (MW) /      0.022 (MB)
	Size of irrep 7 of <Ab|Cd> integrals:      0.003 (MW) /      0.025 (MB)
	Total:                                     0.021 (MW) /      0.165 (MB)

	Size of irrep 0 of <IA|BC> integrals:      0.001 (MW) /      0.005 (MB)
	Size of irrep 1 of <IA|BC> integrals:      0.000 (MW) /      0.002 (MB)
	Size of irrep 2 of <IA|BC> integrals:      0.000 (MW) /      0.002 (MB)
	Size of irrep 3 of <IA|BC> integrals:      0.000 (MW) /      0.002 (MB)
	Size of irrep 4 of <IA|BC> integrals:      0.000 (MW) /      0.001 (MB)
	Size of irrep 5 of <IA|BC> integrals:      0.000 (MW) /      0.004 (MB)
	Size of irrep 6 of <IA|BC> integrals:      0.000 (MW) /      0.004 (MB)
	Size of irrep 7 of <IA|BC> integrals:      0.000 (MW) /      0.003 (MB)
	Total:                                     0.003 (MW) /      0.021 (MB)

	Size of irrep 0 of <ia|bc> integrals:      0.000 (MW) /      0.004 (MB)
	Size of irrep 1 of <ia|bc> integrals:      0.000 (MW) /      0.001 (MB)
	Size of irrep 2 of <ia|bc> integrals:      0.000 (MW) /      0.001 (MB)
	Size of irrep 3 of <ia|bc> integrals:      0.000 (MW) /      0.001 (MB)
	Size of irrep 4 of <ia|bc> integrals:      0.000 (MW) /      0.000 (MB)
	Size of irrep 5 of <ia|bc> integrals:      0.000 (MW) /      0.001 (MB)
	Size of irrep 6 of <ia|bc> integrals:      0.000 (MW) /      0.001 (MB)
	Size of irrep 7 of <ia|bc> integrals:      0.000 (MW) /      0.001 (MB)
	Total:                                     0.001 (MW) /      0.010 (MB)

	Size of irrep 0 of <Ia|Bc> integrals:      0.001 (MW) /      0.007 (MB)
	Size of irrep 1 of <Ia|Bc> integrals:      0.000 (MW) /      0.002 (MB)
	Size of irrep 2 of <Ia|Bc> integrals:      0.000 (MW) /      0.002 (MB)
	Size of irrep 3 of <Ia|Bc> integrals:      0.000 (MW) /      0.003 (MB)
	Size of irrep 4 of <Ia|Bc> integrals:      0.000 (MW) /      0.001 (MB)
	Size of irrep 5 of <Ia|Bc> integrals:      0.001 (MW) /      0.005 (MB)
	Size of irrep 6 of <Ia|Bc> integrals:      0.001 (MW) /      0.005 (MB)
	Size of irrep 7 of <Ia|Bc> integrals:      0.000 (MW) /      0.003 (MB)
	Total:                                     0.003 (MW) /      0.027 (MB)

	Size of irrep 0 of <iA|bC> integrals:      0.000 (MW) /      0.003 (MB)
	Size of irrep 1 of <iA|bC> integrals:      0.000 (MW) /      0.001 (MB)
	Size of irrep 2 of <iA|bC> integrals:      0.000 (MW) /      0.001 (MB)
	Size of irrep 3 of <iA|bC> integrals:      0.000 (MW) /      0.001 (MB)
	Size of irrep 4 of <iA|bC> integrals:      0.000 (MW) /      0.000 (MB)
	Size of irrep 5 of <iA|bC> integrals:      0.000 (MW) /      0.001 (MB)
	Size of irrep 6 of <iA|bC> integrals:      0.000 (MW) /      0.001 (MB)
	Size of irrep 7 of <iA|bC> integrals:      0.000 (MW) /      0.001 (MB)
	Total:                                     0.001 (MW) /      0.009 (MB)

	Size of irrep 0 of tIjAb amplitudes:       0.000 (MW) /      0.001 (MB)
	Size of irrep 1 of tIjAb amplitudes:       0.000 (MW) /      0.000 (MB)
	Size of irrep 2 of tIjAb amplitudes:       0.000 (MW) /      0.000 (MB)
	Size of irrep 3 of tIjAb amplitudes:       0.000 (MW) /      0.000 (MB)
	Size of irrep 4 of tIjAb amplitudes:       0.000 (MW) /      0.000 (MB)
	Size of irrep 5 of tIjAb amplitudes:       0.000 (MW) /      0.000 (MB)
	Size of irrep 6 of tIjAb amplitudes:       0.000 (MW) /      0.000 (MB)
	Size of irrep 7 of tIjAb amplitudes:       0.000 (MW) /      0.000 (MB)
	Total:                                     0.000 (MW) /      0.001 (MB)

	Nuclear Rep. energy          =      0.00000000000000
	SCF energy                   =    -37.68776326739317
	One-electron energy          =     -8.36434648425729
	Two-electron (AA) energy     =      1.37657629036426
	Two-electron (BB) energy     =      0.00000000000000
	Two-electron (AB) energy     =      1.65901412361951
	Two-electron energy          =      3.03559041398377
	Reference energy             =    -37.68776326739318

*** tstop() called on cqc05 at Thu Aug 20 19:56:22 2020
Module time:
	user time   =       0.03 seconds =       0.00 minutes
	system time =       0.04 seconds =       0.00 minutes
	total time  =          0 seconds =       0.00 minutes
Total time:
	user time   =       0.25 seconds =       0.00 minutes
	system time =       0.05 seconds =       0.00 minutes
	total time  =          1 seconds =       0.02 minutes

*** tstart() called on cqc05
*** at Thu Aug 20 19:56:22 2020

            **************************
            *                        *
            *        CCENERGY        *
            *                        *
            **************************

    Nuclear Rep. energy (wfn)     =    0.000000000000000
    SCF energy          (wfn)     =  -37.687763267393166
    Reference energy    (file100) =  -37.687763267393180

    Input parameters:
    -----------------
    Wave function   =     CCSD
    Reference wfn   =     UHF
    Brueckner       =     No
    Memory (Mbytes) =     250000.0
    Maxiter         =     50
    R_Convergence   =     1.0e-07
    E_Convergence   =     1.0e-06
    Restart         =     Yes
    DIIS            =     Yes
    AO Basis        =     NONE
    ABCD            =     NEW
    Cache Level     =     2
    Cache Type      =     LRU
    Print Level     =     1
    Num. of threads =     4
    # Amps to Print =     10
    Print MP2 Amps? =     No
    Analyze T2 Amps =     No
    Print Pair Ener =     No
    Local CC        =     No
    SCS-MP2         =     False
    SCSN-MP2        =     False
    SCS-CCSD        =     False

MP2 correlation energy -0.0537013555847033
                Solving CC Amplitude Equations
                ------------------------------
  Iter             Energy              RMS        T1Diag      D1Diag    New D1Diag    D2Diag
  ----     ---------------------    ---------   ----------  ----------  ----------   --------
     0        -0.053701355584703    0.000e+00    0.000000    0.000000    0.000000    0.000000
     1        -0.068058170245728    4.973e-02    0.005681    0.000000    0.000000    0.000000
     2        -0.075250665500214    2.206e-02    0.011383    0.000000    0.000000    0.000000
     3        -0.075776043296285    5.760e-03    0.013574    0.000000    0.000000    0.000000
     4        -0.075863193939124    9.023e-04    0.013707    0.000000    0.000000    0.000000
     5        -0.075831916154416    1.973e-04    0.013659    0.000000    0.000000    0.000000
     6        -0.075840481025411    6.279e-05    0.013651    0.000000    0.000000    0.000000
     7        -0.075842032637995    1.774e-05    0.013648    0.000000    0.000000    0.000000
     8        -0.075840950528060    5.426e-06    0.013647    0.000000    0.000000    0.000000
     9        -0.075841384164404    1.662e-06    0.013647    0.000000    0.000000    0.000000
    10        -0.075841377942292    3.456e-07    0.013647    0.000000    0.000000    0.000000
    11        -0.075841369881855    1.106e-07    0.013647    0.000000    0.000000    0.000000
    12        -0.075841369935183    2.110e-08    0.013647    0.000000    0.000000    0.000000
    12        -0.075841369935183    2.110e-08    0.013647    0.000000    0.000000    0.000000

    Iterations converged.


    CCSD corr. energy   =   -0.075841369935183
    PPL corr. energy    =    0.021657753246289
    OS PPL corr. energy =    0.019758647793150
    SS PPL corr. energy =    0.001899105453139
    Largest TIA Amplitudes:
              0   2        -0.0131238236
              1  12        -0.0109596463
              2  14        -0.0109596463
              0   5         0.0101441072
              1  13        -0.0048633223
              2  15        -0.0048633223
              0   0         0.0044963103
              0   3         0.0011588642

    Largest Tia Amplitudes:
              0   3        -0.0088666622
              0   0         0.0085212777
              0   4         0.0027673538
              0   1         0.0013652033

    Largest TIJAB Amplitudes:
      2   1  15  13        -0.0422967105
      2   1  14  13        -0.0228119745
      2   1  15  12        -0.0228119745
      2   1  10   1        -0.0219281236
      1   0  13   3        -0.0214112428
      2   0  15   3        -0.0214112428
      2   1  11   4        -0.0211352508
      2   1  14  12        -0.0158049841
      2   1  10   4         0.0149619399
      2   1  11   1         0.0149619399

    Largest TIjAb Amplitudes:
      0   0  16  18         0.1087611659
      0   0  16  19         0.1004479970
      0   0  17  18         0.0734246238
      0   0  17  19         0.0693077222
      0   0  16  20         0.0434791632
      1   0  13   3         0.0371313022
      2   0  15   3         0.0371313022
      0   0  18  19         0.0360178995
      1   0   1  13        -0.0358014346
      1   0  10  16        -0.0358014346

    SCF energy       (wfn)                    =  -37.687763267393166
    Reference energy (file100)                =  -37.687763267393180

    Opposite-spin MP2 correlation energy      =   -0.043898865183520
    Same-spin MP2 correlation energy          =   -0.009802490401183
    MP2 correlation energy                    =   -0.053701355584703
      * MP2 total energy                      =  -37.741464622977887

    Opposite-spin CCSD correlation energy     =   -0.064339220770972
    Same-spin CCSD correlation energy         =   -0.011502149222817
    CCSD correlation energy                   =   -0.075841369935183
      * CCSD total energy                     =  -37.763604637328363


*** tstop() called on cqc05 at Thu Aug 20 19:56:23 2020
Module time:
	user time   =       0.17 seconds =       0.00 minutes
	system time =       0.09 seconds =       0.00 minutes
	total time  =          1 seconds =       0.02 minutes
Total time:
	user time   =       0.42 seconds =       0.01 minutes
	system time =       0.14 seconds =       0.00 minutes
	total time  =          2 seconds =       0.03 minutes

*** Psi4 exiting successfully. Buy a developer a beer!
