
    -----------------------------------------------------------------------
          Psi4: An Open-Source Ab Initio Electronic Structure Package
                               Psi4 1.2a1.dev939 

                         Git: Rev {HEAD} fa1ec19 dirty


    R. M. Parrish, L. A. Burns, D. G. A. Smith, A. C. Simmonett,
    A. E. DePrince III, E. G. Hohenstein, U. Bozkaya, A. Yu. Sokolov,
    R. Di Remigio, R. M. Richard, J. F. Gonthier, A. M. James,
    H. R. McAlexander, A. Kumar, M. Saitow, X. Wang, B. P. Pritchard,
    P. Verma, H. F. Schaefer III, K. Patkowski, R. A. King, E. F. Valeev,
    F. A. Evangelista, J. M. Turney, T. D. Crawford, and C. D. Sherrill,
    J. Chem. Theory Comput. 13(7) pp 3185--3197 (2017).
    (doi: 10.1021/acs.jctc.7b00174)

    -----------------------------------------------------------------------


    Psi4 started on: Saturday, 31 October 2020 02:59PM

    Process ID:   6296
    PSIDATADIR: /home/fs71337/airmler/src/psi4_uhf/build/stage/usr/local/psi4/share/psi4
    Memory:     500.0 MiB
    Threads:    48
    
  ==> Input File <==

--------------------------------------------------------------------------
# Any line starting with the # character is a comment line
memory 250000 mb
molecule molecule{
-1 2
S          0.0000000000        0.0000000000        1.0065241194
S          0.0000000000        0.0000000000       -1.0065241194
}

set {
  reference uhf
  basis aug-cc-pv(6+d)z
  scf_type OUT_OF_CORE
  freeze_core true
}

energy('ccsd')
--------------------------------------------------------------------------

  Memory set to 232.831 GiB by Python driver.

*** tstart() called on n412-050.vsc4.prov
*** at Sat Oct 31 14:59:32 2020

   => Loading Basis Set <=

    Name: AUG-CC-PV(6+D)Z
    Role: ORBITAL
    Keyword: BASIS
    atoms 1-2 entry S          line  1164 file /home/fs71337/airmler/src/psi4_uhf/build/stage/usr/local/psi4/share/psi4/basis/aug-cc-pv_6pd_z.gbs 


         ---------------------------------------------------------
                                   SCF
            by Justin Turney, Rob Parrish, Andy Simmonett
                             and Daniel Smith
                              UHF Reference
                       48 Threads, 238418 MiB Core
         ---------------------------------------------------------

  ==> Geometry <==

    Molecular point group: d2h
    Full point group: D_inf_h

    Geometry (in Angstrom), charge = -1, multiplicity = 2:

       Center              X                  Y                   Z               Mass       
    ------------   -----------------  -----------------  -----------------  -----------------
           S          0.000000000000     0.000000000000     1.006524119400    31.972070999000
           S          0.000000000000     0.000000000000    -1.006524119400    31.972070999000

  Running in d2h symmetry.

  Rotational constants: A = ************  B =      0.26022  C =      0.26022 [cm^-1]
  Rotational constants: A = ************  B =   7801.31940  C =   7801.31940 [MHz]
  Nuclear repulsion =   67.295637922613693

  Charge       = -1
  Multiplicity = 2
  Electrons    = 33
  Nalpha       = 17
  Nbeta        = 16

  ==> Algorithm <==

  SCF Algorithm Type is OUT_OF_CORE.
  DIIS enabled.
  MOM disabled.
  Fractional occupation disabled.
  Guess Type is GWH.
  Energy threshold   = 1.00e-08
  Density threshold  = 1.00e-08
  Integral threshold = 0.00e+00

  ==> Primary Basis <==

  Basis Set: AUG-CC-PV(6+D)Z
    Blend: AUG-CC-PV(6+D)Z
    Number of shells: 76
    Number of basis function: 396
    Number of Cartesian functions: 608
    Spherical Harmonics?: true
    Max angular momentum: 6

  ==> Pre-Iterations <==

   -------------------------------------------------------
    Irrep   Nso     Nmo     Nalpha   Nbeta   Ndocc  Nsocc
   -------------------------------------------------------
     Ag        70      70       0       0       0       0
     B1g       32      32       0       0       0       0
     B2g       48      48       0       0       0       0
     B3g       48      48       0       0       0       0
     Au        32      32       0       0       0       0
     B1u       70      70       0       0       0       0
     B2u       48      48       0       0       0       0
     B3u       48      48       0       0       0       0
   -------------------------------------------------------
    Total     396     396      17      16      16       1
   -------------------------------------------------------

  ==> Integral Setup <==

  ==> DiskJK: Disk-Based J/K Matrices <==

    J tasked:                  Yes
    K tasked:                  Yes
    wK tasked:                  No
    Memory (MB):            178813
    Schwarz Cutoff:          1E-12

  Minimum eigenvalue in the overlap matrix is 5.1679308781E-06.
  Using Symmetric Orthogonalization.

  SCF Guess: Generalized Wolfsberg-Helmholtz.

  ==> Iterations <==

                        Total Energy        Delta E     RMS |[F,P]|

    Occupation by irrep:
             Ag   B1g   B2g   B3g    Au   B1u   B2u   B3u 
    DOCC [     5,    0,    2,    1,    0,    4,    2,    2 ]
    SOCC [     0,    0,    0,    1,    0,    0,    0,    0 ]

   @UHF iter   1:  -781.59729587859431   -7.81597e+02   2.22674e-01 
   @UHF iter   2:  -794.21391939045145   -1.26166e+01   3.14616e-02 DIIS
   @UHF iter   3:  -794.91574484477201   -7.01825e-01   1.58198e-02 DIIS
   @UHF iter   4:  -795.13271970492792   -2.16975e-01   2.32479e-03 DIIS
   @UHF iter   5:  -795.13767032742601   -4.95062e-03   6.32880e-04 DIIS
   @UHF iter   6:  -795.13833391698859   -6.63590e-04   1.95972e-04 DIIS
   @UHF iter   7:  -795.13845766838062   -1.23751e-04   6.39145e-05 DIIS
   @UHF iter   8:  -795.13847117032219   -1.35019e-05   1.38442e-05 DIIS
   @UHF iter   9:  -795.13847199193822   -8.21616e-07   3.37940e-06 DIIS
   @UHF iter  10:  -795.13847203661271   -4.46745e-08   7.96294e-07 DIIS
   @UHF iter  11:  -795.13847203958665   -2.97393e-09   2.70475e-07 DIIS
   @UHF iter  12:  -795.13847203997466   -3.88013e-10   8.57032e-08 DIIS
   @UHF iter  13:  -795.13847204000876   -3.41061e-11   2.14062e-08 DIIS
   @UHF iter  14:  -795.13847204001172   -2.95586e-12   7.02805e-09 DIIS

  ==> Post-Iterations <==

   @Spin Contamination Metric:   3.555943330E-02
   @S^2 Expected:                7.500000000E-01
   @S^2 Observed:                7.855594333E-01
   @S   Expected:                5.000000000E-01
   @S   Observed:                5.000000000E-01

    Orbital Energies (a.u.)
    -----------------------

    Alpha Occupied:                                                       

       1Ag   -91.745004     1B1u  -91.745002     2Ag    -8.744073  
       2B1u   -8.743858     1B2u   -6.433650     1B3g   -6.433623  
       3Ag    -6.423461     3B1u   -6.422930     1B3u   -6.422266  
       1B2g   -6.422237     4Ag    -0.803271     4B1u   -0.593847  
       2B2u   -0.264249     5Ag    -0.257107     2B3u   -0.229557  
       2B3g   -0.135419     2B2g   -0.092603  

    Alpha Virtual:                                                        

       5B1u    0.136840     6Ag     0.173233     3B2u    0.182612  
       3B3u    0.185411     3B3g    0.188590     3B2g    0.190980  
       7Ag     0.235681     6B1u    0.247680     1B1g    0.323996  
       8Ag     0.324023     9Ag     0.337076     7B1u    0.338555  
       4B3g    0.347519     4B2g    0.350852     4B2u    0.356857  
       1Au     0.359916     8B1u    0.360144     4B3u    0.361489  
       9B1u    0.386756     5B2u    0.432942     5B3u    0.441723  
      10Ag     0.466823     5B3g    0.491740     5B2g    0.501252  
      10B1u    0.527022    11Ag     0.548389     6B2u    0.582240  
       6B3u    0.582258     7B2u    0.583842     7B3u    0.599490  
       2B1g    0.607574    12Ag     0.607830    11B1u    0.631173  
       2Au     0.631403    12B1u    0.665915     6B3g    0.669721  
       6B2g    0.669818    13Ag     0.672392     3B1g    0.674063  
       7B3g    0.677816     7B2g    0.685100    14Ag     0.687971  
       8B2u    0.747137     8B3u    0.755998    13B1u    0.806830  
      15Ag     0.808552     3Au     0.818980    14B1u    0.820257  
       8B3g    0.940154     8B2g    0.956015     9B2u    0.999655  
      15B1u    1.000694     9B3u    1.011424     4B1g    1.014128  
      16Ag     1.014128    10B2u    1.091142    10B3u    1.091184  
      16B1u    1.139234     4Au     1.139240    17Ag     1.144774  
      11B2u    1.145366    17B1u    1.157756     5Au     1.158887  
      11B3u    1.164787    18B1u    1.187601     9B3g    1.193868  
      18Ag     1.205147     5B1g    1.205575     9B2g    1.214968  
      10B3g    1.230735    10B2g    1.238928    19Ag     1.256554  
      11B3g    1.271549    11B2g    1.271611    12B2u    1.308024  
      12B3u    1.308084    20Ag     1.315996     6B1g    1.316032  
       7B1g    1.335927    21Ag     1.336618    13B2u    1.354528  
      13B3u    1.366767    22Ag     1.378600    19B1u    1.408293  
       6Au     1.408745    12B3g    1.421004    23Ag     1.430965  
      12B2g    1.434684    13B3g    1.440771    13B2g    1.441933  
      20B1u    1.450010    21B1u    1.548424    14B2u    1.741254  
      22B1u    1.744270    14B3u    1.755819     7Au     1.797706  
      23B1u    1.799370    14B3g    2.050618    24Ag     2.058419  
      14B2g    2.064537     8B1g    2.100179    25Ag     2.100179  
      15B2u    2.109189    15B3u    2.109189    16B2u    2.210341  
      16B3u    2.210351    15B3g    2.251274    15B2g    2.251274  
      26Ag     2.291433     9B1g    2.291437    27Ag     2.321503  
      10B1g    2.321836    17B2u    2.365784    24B1u    2.367944  
      17B3u    2.380953     8Au     2.382254    25B1u    2.382257  
      18B2u    2.417530    18B3u    2.417750    16B3g    2.432079  
      16B2g    2.447912    28Ag     2.456118    26B1u    2.456647  
       9Au     2.459495    19B2u    2.469915    19B3u    2.485435  
      17B3g    2.487028    17B2g    2.487294    27B1u    2.495069  
      10Au     2.495093    28B1u    2.498944    11B1g    2.505471  
      29Ag     2.505596    30Ag     2.563926    11Au     2.569080  
      29B1u    2.570057    12B1g    2.622211    31Ag     2.623465  
      20B2u    2.652434    20B3u    2.659432    21B2u    2.663583  
      18B3g    2.672308    21B3u    2.681074    18B2g    2.688928  
      19B3g    2.709251    19B2g    2.709489    30B1u    2.781119  
      20B3g    2.781731    32Ag     2.802959    20B2g    2.805181  
      22B2u    2.828977    22B3u    2.845034    31B1u    2.901972  
      12Au     2.902960    21B3g    2.943689    21B2g    2.943723  
      13B1g    3.004579    33Ag     3.005216    32B1u    3.016795  
      34Ag     3.057667    22B3g    3.232275    22B2g    3.251399  
      33B1u    3.351848    35Ag     3.360640    13Au     3.544933  
      34B1u    3.545555    23B2u    3.669661    23B3u    3.686090  
      23B3g    4.049245    23B2g    4.064582    24B2u    4.175473  
      24B3u    4.175473    36Ag     4.178245    14B1g    4.178245  
      25B2u    4.262216    25B3u    4.262224    37Ag     4.308582  
      15B1g    4.308582    38Ag     4.311031    16B1g    4.311522  
      35B1u    4.380728    14Au     4.380728    26B2u    4.422949  
      39Ag     4.434655    26B3u    4.435573    36B1u    4.559673  
      17B1g    4.566129    40Ag     4.566129    24B3g    4.569162  
      24B2g    4.569162    27B2u    4.610647    27B3u    4.610647  
      41Ag     4.615652    18B1g    4.615652    15Au     4.623859  
      37B1u    4.623902    28B2u    4.664867    28B3u    4.664908  
      25B3g    4.690739    25B2g    4.690739    16Au     4.693586  
      38B1u    4.695280    26B3g    4.708621    26B2g    4.727117  
      27B3g    4.740208    27B2g    4.742851    17Au     4.831464  
      39B1u    4.831464    42Ag     4.840943    29B2u    4.842493  
      19B1g    4.859431    29B3u    4.863765    43Ag     4.867748  
      40B1u    4.886594    30B2u    4.936655    30B3u    4.936750  
      44Ag     5.008032    18Au     5.013534    41B1u    5.014392  
      31B2u    5.039821    19Au     5.040908    42B1u    5.040927  
      31B3u    5.058842    28B3g    5.068097    28B2g    5.068112  
      43B1u    5.130023    44B1u    5.254325    20Au     5.255473  
      20B1g    5.288339    45Ag     5.288874    29B3g    5.296764  
      29B2g    5.316383    32B2u    5.357010    32B3u    5.357018  
      45B1u    5.364450    30B3g    5.370143    30B2g    5.370172  
      21B1g    5.421823    46Ag     5.421904    47Ag     5.484087  
      31B3g    5.488199    31B2g    5.506283    33B2u    5.594293  
      33B3u    5.612741    48Ag     5.633376    46B1u    5.662945  
      22B1g    5.739514    49Ag     5.740161    21Au     5.789509  
      47B1u    5.789670    32B3g    5.804149    32B2g    5.804156  
      48B1u    6.139446    33B3g    6.222405    33B2g    6.240262  
      50Ag     6.570024    34B2u    6.681796    34B3u    6.698067  
      34B3g    6.816217    22Au     6.824867    49B1u    6.824983  
      34B2g    6.836688    50B1u    7.355667    35B2u    7.418853  
      35B3u    7.439955    35B3g    8.146259    35B2g    8.166121  
      51Ag     8.554706    36B2u    8.892339    36B3u    8.892364  
      23B1g    8.897960    52Ag     8.897961    51B1u    8.947390  
      23Au     8.947390    24B1g    8.951801    53Ag     8.951807  
      37B2u    8.967500    37B3u    8.981558    36B3g    9.040088  
      36B2g    9.040090    52B1u    9.051558    54Ag     9.069423  
      38B2u    9.079768    38B3u    9.079768    25B1g    9.128453  
      55Ag     9.128453    26B1g    9.140848    56Ag     9.140851  
      24Au     9.167040    53B1u    9.167040    39B2u    9.172476  
      39B3u    9.194861    25Au     9.211070    54B1u    9.211807  
      37B3g    9.247152    37B2g    9.247152    40B2u    9.251318  
      40B3u    9.251504    27B1g    9.273890    57Ag     9.274152  
      55B1u    9.421004    26Au     9.421004    58Ag     9.444502  
      28B1g    9.496419    59Ag     9.496420    38B3g    9.514414  
      41B2u    9.517406    41B3u    9.517406    38B2g    9.532414  
      39B3g    9.570057    39B2g    9.570057    42B2u    9.599502  
      42B3u    9.599509    56B1u    9.679366    27Au     9.679376  
      57B1u    9.720388    40B3g    9.723031    40B2g    9.723327  
      28Au     9.737888    58B1u    9.743463    41B3g    9.757606  
      41B2g    9.774498    60Ag     9.868049    29B1g    9.868270  
      42B3g    9.916849    42B2g    9.916881    43B2u    9.981762  
      43B3u   10.001865    59B1u   10.006891    61Ag    10.078849  
      29Au    10.240226    60B1u   10.240994    43B3g   10.805066  
      43B2g   10.824163    61B1u   10.829980    62Ag    10.914502  
      30B1g   10.914788    44B2u   11.000790    44B3u   11.000791  
      44B3g   11.065447    44B2g   11.065451    31B1g   11.078981  
      63Ag    11.079054    64Ag    11.174800    45B2u   11.219356  
      45B3u   11.232604    62B1u   11.255081    30Au    11.255309  
      63B1u   11.416334    64B1u   11.721601    31Au    11.721633  
      46B2u   11.839807    46B3u   11.853709    45B3g   11.912140  
      45B2g   11.925366    65B1u   12.284222    65Ag    12.510111  
      46B3g   12.609560    46B2g   12.624777    66Ag    13.976879  
      66B1u   15.115054    47B2u   29.979736    47B3u   29.992022  
      47B3g   30.499384    47B2g   30.510871    67Ag    30.925375  
      32B1g   30.925603    68Ag    30.996145    67B1u   31.187377  
      32Au    31.187408    48B2u   31.240406    48B3u   31.249073  
      68B1u   31.586084    48B3g   31.817358    48B2g   31.826711  
      69Ag    32.623390    69B1u   34.202223    70Ag   245.719485  
      70B1u  247.049998  

    Beta Occupied:                                                        

       1Ag   -91.739169     1B1u  -91.739166     2Ag    -8.738236  
       2B1u   -8.737980     3Ag    -6.420790     3B1u   -6.420243  
       1B3u   -6.418739     1B2g   -6.418709     1B2u   -6.409110  
       1B3g   -6.409058     4Ag    -0.766323     4B1u   -0.523929  
       5Ag    -0.240035     2B3u   -0.220872     2B2u   -0.144597  
       2B2g   -0.079548  

    Beta Virtual:                                                         

       5B1u    0.137003     6Ag     0.173528     2B3g    0.179897  
       3B2u    0.184226     3B3u    0.185429     3B2g    0.191258  
       3B3g    0.232412     7Ag     0.234596     6B1u    0.250241  
       1B1g    0.324885     8Ag     0.325014     9Ag     0.337602  
       7B1u    0.341841     4B2g    0.351177     4B3g    0.355804  
       4B3u    0.360708     4B2u    0.361089     1Au     0.362025  
       8B1u    0.362028     9B1u    0.394335     5B2u    0.442148  
       5B3u    0.442336    10Ag     0.467214     5B2g    0.502911  
       5B3g    0.515033    10B1u    0.531671    11Ag     0.550641  
       6B3u    0.582186     6B2u    0.582282     7B3u    0.599039  
       7B2u    0.616538    12Ag     0.616783     2B1g    0.616957  
       2Au     0.645837    11B1u    0.646020    12B1u    0.669503  
       6B2g    0.671516     6B3g    0.671518    13Ag     0.682686  
       3B1g    0.682890     7B3g    0.683991     7B2g    0.684695  
      14Ag     0.690964     8B3u    0.756438     8B2u    0.757838  
      13B1u    0.811636    15Ag     0.815782     3Au     0.838133  
      14B1u    0.838399     8B2g    0.958353     8B3g    0.967733  
      15B1u    1.006212     9B2u    1.008800     9B3u    1.012121  
      16Ag     1.014469     4B1g    1.014469    10B3u    1.090875  
      10B2u    1.090881     4Au     1.140906    16B1u    1.140907  
      17Ag     1.148651    11B3u    1.166953     5Au     1.168991  
      17B1u    1.169072    11B2u    1.175813    18B1u    1.190108  
       5B1g    1.213832    18Ag     1.214318     9B2g    1.217041  
       9B3g    1.222944    10B3g    1.236234    10B2g    1.239175  
      19Ag     1.259935    11B3g    1.274418    11B2g    1.274424  
      12B3u    1.316909    12B2u    1.316919     6B1g    1.319922  
      20Ag     1.319933     7B1g    1.352771    21Ag     1.352864  
      13B2u    1.362645    13B3u    1.367130    22Ag     1.380565  
       6Au     1.425055    19B1u    1.425057    12B3g    1.437514  
      12B2g    1.437875    23Ag     1.439187    13B3g    1.450226  
      13B2g    1.450244    20B1u    1.454002    21B1u    1.557540  
      22B1u    1.749560    14B2u    1.752180    14B3u    1.756177  
       7Au     1.804455    23B1u    1.804830    24Ag     2.061213  
      14B3g    2.061329    14B2g    2.065433     8B1g    2.100307  
      25Ag     2.100307    15B2u    2.111221    15B3u    2.111221  
      16B2u    2.211596    16B3u    2.211598    15B3g    2.254311  
      15B2g    2.254311    26Ag     2.299176     9B1g    2.299176  
      27Ag     2.324285    10B1g    2.324383    17B2u    2.373205  
      24B1u    2.376827    17B3u    2.382279    25B1u    2.390433  
       8Au     2.390433    18B2u    2.420804    18B3u    2.420849  
      16B3g    2.439978    16B2g    2.449013    26B1u    2.463166  
      28Ag     2.464035     9Au     2.464129    19B2u    2.479249  
      19B3u    2.486270    17B3g    2.492197    17B2g    2.492256  
      27B1u    2.497428    10Au     2.497441    28B1u    2.501587  
      29Ag     2.511477    11B1g    2.511514    30Ag     2.567731  
      11Au     2.577184    29B1u    2.577263    12B1g    2.632981  
      31Ag     2.633090    20B2u    2.676239    20B3u    2.677260  
      21B2u    2.681062    18B3g    2.683161    21B3u    2.683613  
      18B2g    2.690510    19B3g    2.725271    19B2g    2.725325  
      30B1u    2.782546    20B3g    2.804228    20B2g    2.808108  
      32Ag     2.809672    22B2u    2.841550    22B3u    2.846796  
      31B1u    2.913564    12Au     2.913745    21B3g    2.947905  
      21B2g    2.947912    13B1g    3.011486    33Ag     3.011525  
      32B1u    3.022016    34Ag     3.060445    22B3g    3.246394  
      22B2g    3.253101    33B1u    3.355235    35Ag     3.362354  
      13Au     3.549184    34B1u    3.549448    23B2u    3.678445  
      23B3u    3.686833    23B3g    4.056172    23B2g    4.065560  
      24B2u    4.178243    24B3u    4.178243    36Ag     4.179362  
      14B1g    4.179362    25B2u    4.263442    25B3u    4.263445  
      37Ag     4.313100    15B1g    4.313103    38Ag     4.313344  
      16B1g    4.313592    35B1u    4.385566    14Au     4.385566  
      26B2u    4.425923    26B3u    4.436070    39Ag     4.437450  
      36B1u    4.568759    24B3g    4.572508    24B2g    4.572508  
      17B1g    4.577640    40Ag     4.577640    27B2u    4.618794  
      27B3u    4.618794    41Ag     4.623210    18B1g    4.623210  
      15Au     4.636329    37B1u    4.636333    28B2u    4.674106  
      28B3u    4.674114    25B3g    4.699391    25B2g    4.699391  
      16Au     4.701894    38B1u    4.702394    26B3g    4.719729  
      26B2g    4.731503    27B3g    4.747429    27B2g    4.747824  
      17Au     4.837951    39B1u    4.837951    42Ag     4.849061  
      29B2u    4.851232    29B3u    4.864525    19B1g    4.864616  
      43Ag     4.868613    40B1u    4.890928    30B2u    4.941103  
      30B3u    4.941136    18Au     5.017126    41B1u    5.017535  
      44Ag     5.018675    19Au     5.044088    42B1u    5.044094  
      31B2u    5.047412    31B3u    5.059858    28B3g    5.073071  
      28B2g    5.073075    43B1u    5.135191    44B1u    5.261520  
      20Au     5.261966    20B1g    5.297223    45Ag     5.297377  
      29B3g    5.303579    29B2g    5.317373    45B1u    5.368801  
      32B2u    5.370379    32B3u    5.370380    30B3g    5.382049  
      30B2g    5.382058    21B1g    5.429396    46Ag     5.429431  
      47Ag     5.487281    31B3g    5.495032    31B2g    5.507253  
      33B2u    5.604784    33B3u    5.613935    48Ag     5.637153  
      46B1u    5.665267    22B1g    5.743508    49Ag     5.743845  
      21Au     5.795699    47B1u    5.795752    32B3g    5.808645  
      32B2g    5.808648    48B1u    6.142878    33B3g    6.231278  
      33B2g    6.241155    50Ag     6.572550    34B2u    6.687755  
      34B3u    6.698749    34B3g    6.829838    22Au     6.830201  
      49B1u    6.830261    34B2g    6.838767    50B1u    7.358650  
      35B2u    7.437620    35B3u    7.442925    35B3g    8.158558  
      35B2g    8.168209    51Ag     8.557954    36B2u    8.899327  
      36B3u    8.899334    23B1g    8.908123    52Ag     8.908124  
      53Ag     8.955581    24B1g    8.955587    51B1u    8.957101  
      23Au     8.957101    37B2u    8.970784    37B3u    8.981951  
      36B3g    9.046527    36B2g    9.046528    52B1u    9.055549  
      54Ag     9.071760    38B2u    9.086295    38B3u    9.086295  
      25B1g    9.136961    55Ag     9.136961    26B1g    9.145531  
      56Ag     9.145532    24Au     9.175220    53B1u    9.175220  
      39B2u    9.182192    39B3u    9.196916    25Au     9.215619  
      54B1u    9.215948    37B3g    9.253318    37B2g    9.253318  
      40B2u    9.254838    40B3u    9.254899    27B1g    9.277936  
      57Ag     9.278126    55B1u    9.425787    26Au     9.425787  
      58Ag     9.448125    28B1g    9.504201    59Ag     9.504201  
      38B3g    9.520044    41B2u    9.527369    41B3u    9.527369  
      38B2g    9.532675    39B3g    9.580073    39B2g    9.580073  
      42B2u    9.605539    42B3u    9.605541    56B1u    9.687255  
      27Au     9.687258    57B1u    9.725657    40B3g    9.727761  
      40B2g    9.727882    28Au     9.741727    58B1u    9.745200  
      41B3g    9.763246    41B2g    9.775732    60Ag     9.872971  
      29B1g    9.873072    42B3g    9.922400    42B2g    9.922411  
      43B2u    9.988942    43B3u   10.003059    59B1u   10.010780  
      61Ag    10.082463    29Au    10.245154    60B1u   10.245559  
      43B3g   10.811783    43B2g   10.825506    61B1u   10.833395  
      62Ag    10.921636    30B1g   10.921750    44B2u   11.005775  
      44B3u   11.005775    44B3g   11.070313    44B2g   11.070315  
      31B1g   11.082056    63Ag    11.082095    64Ag    11.177634  
      45B2u   11.224247    45B3u   11.233048    62B1u   11.260575  
      30Au    11.260695    63B1u   11.418373    64B1u   11.725299  
      31Au    11.725304    46B2u   11.844162    46B3u   11.854392  
      45B3g   11.917671    45B2g   11.926107    65B1u   12.287110  
      65Ag    12.512778    46B3g   12.614017    46B2g   12.625403  
      66Ag    13.981098    66B1u   15.118919    47B2u   29.994262  
      47B3u   29.994376    47B3g   30.512396    47B2g   30.513066  
      67Ag    30.933803    32B1g   30.933804    68Ag    30.999058  
      32Au    31.195531    67B1u   31.195544    48B2u   31.248257  
      48B3u   31.250658    68B1u   31.589454    48B3g   31.826198  
      48B2g   31.828381    69Ag    32.625459    69B1u   34.203980  
      70Ag   245.721765    70B1u  247.052273  

    Final Occupation by Irrep:
             Ag   B1g   B2g   B3g    Au   B1u   B2u   B3u 
    DOCC [     5,    0,    2,    1,    0,    4,    2,    2 ]
    SOCC [     0,    0,    0,    1,    0,    0,    0,    0 ]

  Energy converged.

  @UHF Final Energy:  -795.13847204001172

   => Energetics <=

    Nuclear Repulsion Energy =             67.2956379226136931
    One-Electron Energy =               -1241.5295589944091716
    Two-Electron Energy =                 379.0954490317838008
    Total Energy =                       -795.1384720400117203


  UHF NO Occupations:
  HONO-2 :    4B1u 1.9974374
  HONO-1 :    2B2u 1.9876495
  HONO-0 :    2B3g 1.0000000
  LUNO+0 :    3B2u 0.0123505
  LUNO+1 :    5B1u 0.0025626
  LUNO+2 :    6 Ag 0.0023343
  LUNO+3 :    3B2g 0.0003370



Properties will be evaluated at   0.000000,   0.000000,   0.000000 Bohr

Properties computed using the SCF density matrix

  Nuclear Dipole Moment: (a.u.)
     X:     0.0000      Y:     0.0000      Z:     0.0000

  Electronic Dipole Moment: (a.u.)
     X:     0.0000      Y:     0.0000      Z:     0.0000

  Dipole Moment: (a.u.)
     X:     0.0000      Y:     0.0000      Z:     0.0000     Total:     0.0000

  Dipole Moment: (Debye)
     X:     0.0000      Y:     0.0000      Z:     0.0000     Total:     0.0000


*** tstop() called on n412-050.vsc4.prov at Sat Oct 31 15:18:48 2020
Module time:
	user time   =    1167.45 seconds =      19.46 minutes
	system time =      48.53 seconds =       0.81 minutes
	total time  =       1156 seconds =      19.27 minutes
Total time:
	user time   =    1167.45 seconds =      19.46 minutes
	system time =      48.53 seconds =       0.81 minutes
	total time  =       1156 seconds =      19.27 minutes

*** tstart() called on n412-050.vsc4.prov
*** at Sat Oct 31 15:18:48 2020


	Wfn Parameters:
	--------------------
	Wavefunction         = CCSD
	Number of irreps     = 8
	Number of MOs        = 396
	Number of active MOs = 386
	AO-Basis             = NONE
	Semicanonical        = false
	Reference            = UHF
	Print Level          = 1

	IRREP	# MOs	# FZDC	# DOCC	# SOCC	# VIRT	# FZVR
	-----	-----	------	------	------	------	------
	 Ag	   70	    3	    2	    0	    65	    0
	 B1g	   32	    0	    0	    0	    32	    0
	 B2g	   48	    1	    1	    0	    46	    0
	 B3g	   48	    1	    0	    1	    46	    0
	 Au	   32	    0	    0	    0	    32	    0
	 B1u	   70	    3	    1	    0	    66	    0
	 B2u	   48	    1	    1	    0	    46	    0
	 B3u	   48	    1	    1	    0	    46	    0
	Transforming integrals...
	IWL integrals will be deleted.
	(OO|OO)...
	Presorting SO-basis two-electron integrals.
	Sorting File: SO Ints (nn|nn) nbuckets = 1
	Transforming the one-electron integrals and constructing Fock matrices
	Starting AA/AB first half-transformation.
	Sorting AA/AB half-transformed integrals.
	Starting BB first half-transformation.
	Sorting BB half-transformed integrals.
	First half integral transformation complete.
	Starting AA second half-transformation.
	Starting AB second half-transformation.
	Starting BB second half-transformation.
	Two-electron integral transformation complete.
	(OO|OV)...
	Starting AA second half-transformation.
	Starting AB second half-transformation.
	Starting BB second half-transformation.
	Two-electron integral transformation complete.
	(OO|VV)...
	Starting AA second half-transformation.
	Starting AB second half-transformation.
	Starting BB second half-transformation.
	Two-electron integral transformation complete.
	(OV|OO)...
	Starting AA/AB first half-transformation.
	Sorting AA/AB half-transformed integrals.
	Starting BB first half-transformation.
	Sorting BB half-transformed integrals.
	First half integral transformation complete.
	Starting AA second half-transformation.
	Starting AB second half-transformation.
	Starting BB second half-transformation.
	Two-electron integral transformation complete.
	(OV|OV)...
	Starting AA second half-transformation.
	Starting AB second half-transformation.
	Starting BB second half-transformation.
	Two-electron integral transformation complete.
	(OV|VV)...
	Starting AA second half-transformation.
	Starting AB second half-transformation.
	Starting BB second half-transformation.
	Two-electron integral transformation complete.
	(VV|OO)...
	Starting AA/AB first half-transformation.
	Sorting AA/AB half-transformed integrals.
	Starting BB first half-transformation.
	Sorting BB half-transformed integrals.
	First half integral transformation complete.
	Starting AA second half-transformation.
	Starting AB second half-transformation.
	Starting BB second half-transformation.
	Two-electron integral transformation complete.
	(VV|OV)...
	Starting AA second half-transformation.
	Starting AB second half-transformation.
	Starting BB second half-transformation.
	Two-electron integral transformation complete.
	(VV|VV)...
	Starting AA second half-transformation.
	Starting AB second half-transformation.
	Starting BB second half-transformation.
	Two-electron integral transformation complete.
	Frozen core energy     =   -832.94181361859194

	Size of irrep 0 of <AB|CD> integrals:     87.553 (MW) /    700.428 (MB)
	Size of irrep 1 of <AB|CD> integrals:     70.964 (MW) /    567.710 (MB)
	Size of irrep 2 of <AB|CD> integrals:     80.461 (MW) /    643.687 (MB)
	Size of irrep 3 of <AB|CD> integrals:     80.461 (MW) /    643.687 (MB)
	Size of irrep 4 of <AB|CD> integrals:     70.964 (MW) /    567.710 (MB)
	Size of irrep 5 of <AB|CD> integrals:     91.126 (MW) /    729.009 (MB)
	Size of irrep 6 of <AB|CD> integrals:     80.461 (MW) /    643.687 (MB)
	Size of irrep 7 of <AB|CD> integrals:     80.461 (MW) /    643.687 (MB)
	Total:                                   642.451 (MW) /   5139.606 (MB)

	Size of irrep 0 of <ab|cd> integrals:     88.416 (MW) /    707.331 (MB)
	Size of irrep 1 of <ab|cd> integrals:     71.741 (MW) /    573.927 (MB)
	Size of irrep 2 of <ab|cd> integrals:     81.036 (MW) /    648.288 (MB)
	Size of irrep 3 of <ab|cd> integrals:     81.631 (MW) /    653.050 (MB)
	Size of irrep 4 of <ab|cd> integrals:     71.741 (MW) /    573.927 (MB)
	Size of irrep 5 of <ab|cd> integrals:     92.006 (MW) /    736.052 (MB)
	Size of irrep 6 of <ab|cd> integrals:     81.649 (MW) /    653.194 (MB)
	Size of irrep 7 of <ab|cd> integrals:     81.036 (MW) /    648.288 (MB)
	Total:                                   649.257 (MW) /   5194.058 (MB)

	Size of irrep 0 of <Ab|Cd> integrals:    366.301 (MW) /   2930.411 (MB)
	Size of irrep 1 of <Ab|Cd> integrals:    285.407 (MW) /   2283.258 (MB)
	Size of irrep 2 of <Ab|Cd> integrals:    322.993 (MW) /   2583.942 (MB)
	Size of irrep 3 of <Ab|Cd> integrals:    324.180 (MW) /   2593.440 (MB)
	Size of irrep 4 of <Ab|Cd> integrals:    285.407 (MW) /   2283.258 (MB)
	Size of irrep 5 of <Ab|Cd> integrals:    366.263 (MW) /   2930.104 (MB)
	Size of irrep 6 of <Ab|Cd> integrals:    324.216 (MW) /   2593.728 (MB)
	Size of irrep 7 of <Ab|Cd> integrals:    322.993 (MW) /   2583.942 (MB)
	Total:                                  2597.760 (MW) /  20782.084 (MB)

	Size of irrep 0 of <IA|BC> integrals:      7.255 (MW) /     58.043 (MB)
	Size of irrep 1 of <IA|BC> integrals:      4.717 (MW) /     37.740 (MB)
	Size of irrep 2 of <IA|BC> integrals:      5.974 (MW) /     47.792 (MB)
	Size of irrep 3 of <IA|BC> integrals:      5.974 (MW) /     47.792 (MB)
	Size of irrep 4 of <IA|BC> integrals:      4.717 (MW) /     37.740 (MB)
	Size of irrep 5 of <IA|BC> integrals:      7.274 (MW) /     58.192 (MB)
	Size of irrep 6 of <IA|BC> integrals:      5.974 (MW) /     47.792 (MB)
	Size of irrep 7 of <IA|BC> integrals:      5.974 (MW) /     47.792 (MB)
	Total:                                    47.860 (MW) /    382.883 (MB)

	Size of irrep 0 of <ia|bc> integrals:      6.408 (MW) /     51.265 (MB)
	Size of irrep 1 of <ia|bc> integrals:      3.981 (MW) /     31.847 (MB)
	Size of irrep 2 of <ia|bc> integrals:      5.419 (MW) /     43.354 (MB)
	Size of irrep 3 of <ia|bc> integrals:      4.879 (MW) /     39.031 (MB)
	Size of irrep 4 of <ia|bc> integrals:      3.981 (MW) /     31.847 (MB)
	Size of irrep 5 of <ia|bc> integrals:      6.446 (MW) /     51.567 (MB)
	Size of irrep 6 of <ia|bc> integrals:      4.843 (MW) /     38.746 (MB)
	Size of irrep 7 of <ia|bc> integrals:      5.419 (MW) /     43.354 (MB)
	Total:                                    41.376 (MW) /    331.011 (MB)

	Size of irrep 0 of <Ia|Bc> integrals:      7.292 (MW) /     58.336 (MB)
	Size of irrep 1 of <Ia|Bc> integrals:      4.747 (MW) /     37.978 (MB)
	Size of irrep 2 of <Ia|Bc> integrals:      5.985 (MW) /     47.877 (MB)
	Size of irrep 3 of <Ia|Bc> integrals:      6.032 (MW) /     48.253 (MB)
	Size of irrep 4 of <Ia|Bc> integrals:      4.747 (MW) /     37.978 (MB)
	Size of irrep 5 of <Ia|Bc> integrals:      7.311 (MW) /     58.486 (MB)
	Size of irrep 6 of <Ia|Bc> integrals:      6.014 (MW) /     48.112 (MB)
	Size of irrep 7 of <Ia|Bc> integrals:      5.985 (MW) /     47.877 (MB)
	Total:                                    48.112 (MW) /    384.897 (MB)

	Size of irrep 0 of <iA|bC> integrals:      6.392 (MW) /     51.139 (MB)
	Size of irrep 1 of <iA|bC> integrals:      3.953 (MW) /     31.626 (MB)
	Size of irrep 2 of <iA|bC> integrals:      5.410 (MW) /     43.277 (MB)
	Size of irrep 3 of <iA|bC> integrals:      4.825 (MW) /     38.603 (MB)
	Size of irrep 4 of <iA|bC> integrals:      3.953 (MW) /     31.626 (MB)
	Size of irrep 5 of <iA|bC> integrals:      6.411 (MW) /     51.290 (MB)
	Size of irrep 6 of <iA|bC> integrals:      4.808 (MW) /     38.461 (MB)
	Size of irrep 7 of <iA|bC> integrals:      5.410 (MW) /     43.277 (MB)
	Total:                                    41.162 (MW) /    329.297 (MB)

	Size of irrep 0 of tIjAb amplitudes:       0.153 (MW) /      1.225 (MB)
	Size of irrep 1 of tIjAb amplitudes:       0.051 (MW) /      0.405 (MB)
	Size of irrep 2 of tIjAb amplitudes:       0.108 (MW) /      0.863 (MB)
	Size of irrep 3 of tIjAb amplitudes:       0.072 (MW) /      0.576 (MB)
	Size of irrep 4 of tIjAb amplitudes:       0.051 (MW) /      0.405 (MB)
	Size of irrep 5 of tIjAb amplitudes:       0.134 (MW) /      1.072 (MB)
	Size of irrep 6 of tIjAb amplitudes:       0.090 (MW) /      0.720 (MB)
	Size of irrep 7 of tIjAb amplitudes:       0.108 (MW) /      0.863 (MB)
	Total:                                     0.766 (MW) /      6.129 (MB)

	Nuclear Rep. energy          =     67.29563792261369
	SCF energy                   =   -795.13847204001172
	One-electron energy          =    -54.63323579729899
	Two-electron (AA) energy     =      6.18442413787202
	Two-electron (BB) energy     =      4.40382371051812
	Two-electron (AB) energy     =     14.55269160487481
	Two-electron energy          =     25.14093945326496
	Reference energy             =   -795.13847204001229

*** tstop() called on n412-050.vsc4.prov at Sat Oct 31 15:34:00 2020
Module time:
	user time   =    5357.64 seconds =      89.29 minutes
	system time =     215.67 seconds =       3.59 minutes
	total time  =        912 seconds =      15.20 minutes
Total time:
	user time   =    6525.09 seconds =     108.75 minutes
	system time =     264.20 seconds =       4.40 minutes
	total time  =       2068 seconds =      34.47 minutes

*** tstart() called on n412-050.vsc4.prov
*** at Sat Oct 31 15:34:00 2020

            **************************
            *                        *
            *        CCENERGY        *
            *                        *
            **************************

    Nuclear Rep. energy (wfn)     =   67.295637922613693
    SCF energy          (wfn)     = -795.138472040011720
    Reference energy    (file100) = -795.138472040012289

    Input parameters:
    -----------------
    Wave function   =     CCSD
    Reference wfn   =     UHF
    Brueckner       =     No
    Memory (Mbytes) =     250000.0
    Maxiter         =     50
    R_Convergence   =     1.0e-07
    E_Convergence   =     1.0e-06
    Restart         =     Yes
    DIIS            =     Yes
    AO Basis        =     NONE
    ABCD            =     NEW
    Cache Level     =     2
    Cache Type      =     LRU
    Print Level     =     1
    Num. of threads =     48
    # Amps to Print =     10
    Print MP2 Amps? =     No
    Analyze T2 Amps =     No
    Print Pair Ener =     No
    Local CC        =     No
    SCS-MP2         =     False
    SCSN-MP2        =     False
    SCS-CCSD        =     False

MP2 correlation energy -0.3918831633296411
                Solving CC Amplitude Equations
                ------------------------------
  Iter             Energy              RMS        T1Diag      D1Diag    New D1Diag    D2Diag
  ----     ---------------------    ---------   ----------  ----------  ----------   --------
     0        -0.391883163329648    0.000e+00    0.000000    0.000000    0.000000    0.000000
     1        -0.394753002859839    8.094e-02    0.015943    0.000000    0.000000    0.000000
     2        -0.405748328978346    2.555e-02    0.017960    0.000000    0.000000    0.000000
     3        -0.408051040745974    1.242e-02    0.021552    0.000000    0.000000    0.000000
     4        -0.407845602555591    3.287e-03    0.022523    0.000000    0.000000    0.000000
     5        -0.407813219489983    1.313e-03    0.022858    0.000000    0.000000    0.000000
     6        -0.407815067052444    4.314e-04    0.022931    0.000000    0.000000    0.000000
     7        -0.407810794800466    1.850e-04    0.022943    0.000000    0.000000    0.000000
     8        -0.407811063654666    6.801e-05    0.022942    0.000000    0.000000    0.000000
     9        -0.407813088014372    2.826e-05    0.022942    0.000000    0.000000    0.000000
    10        -0.407812394253538    1.183e-05    0.022942    0.000000    0.000000    0.000000
    11        -0.407812429306753    3.538e-06    0.022941    0.000000    0.000000    0.000000
    12        -0.407812332812825    1.272e-06    0.022942    0.000000    0.000000    0.000000
    13        -0.407812314462163    4.727e-07    0.022942    0.000000    0.000000    0.000000
    14        -0.407812316616244    1.690e-07    0.022942    0.000000    0.000000    0.000000
    15        -0.407812317438991    7.629e-08    0.022942    0.000000    0.000000    0.000000
    15        -0.407812317438991    7.629e-08    0.022942    0.000000    0.000000    0.000000

    Iterations converged.


    CCSD corr. energy   =   -0.407812317438991
    PPL corr. energy    =    0.121947141228991
    OS PPL corr. energy =    0.101542627071083
    SS PPL corr. energy =    0.020404514157911
    Largest TIA Amplitudes:
              5 291        -0.0261549918
              5 288         0.0152690822
              6 337        -0.0149916573
              3 143        -0.0130065694
              5 292         0.0110714754
              6 334         0.0108408439
              1   8        -0.0106976615
              1  11         0.0097493415
              1  13         0.0078152397
              1   9        -0.0074852357

    Largest Tia Amplitudes:
              4 292         0.0276861268
              4 290         0.0229228789
              4 288        -0.0179799666
              5 338         0.0153361151
              4 296        -0.0151594531
              3 226        -0.0144759874
              4 293         0.0134659345
              5 335        -0.0120265601
              4 289        -0.0108700922
              4 294        -0.0106229242

    Largest TIJAB Amplitudes:
      6   5  66   6        -0.0204612874
      3   1 291 223        -0.0197943997
      2   1 337 223        -0.0194850017
      3   1 291 226        -0.0181008467
      2   1 337 226        -0.0179573734
      3   1 291 225         0.0178896482
      2   1 337 225         0.0178153966
      3   2 337 291         0.0165184202
      3   2 227 190         0.0135795087
      3   2  66   6         0.0121409284

    Largest Tijab Amplitudes:
      4   1 226 144        -0.0400765204
      4   1 227 144         0.0340504420
      4   1 224 144         0.0326381629
      4   2 338 144         0.0320369613
      2   1 338 226         0.0191620663
      5   4  66   6         0.0189731064
      2   1 338 227        -0.0189710691
      4   1 223 144         0.0189003698
      2   1 338 224        -0.0184755832
      4   1 226 143         0.0178458069

    Largest TIjAb Amplitudes:
      3   4 291 144        -0.0449268482
      1   4 225 144         0.0433681098
      1   4 223 144        -0.0378582128
      1   4 226 144        -0.0363004430
      1   1 225 226        -0.0337209979
      2   4 337 144        -0.0336325687
      1   1 226 227        -0.0321730184
      1   1 223 226         0.0317893816
      2   2 337 338        -0.0315753572
      1   1 223 227        -0.0286773883

    SCF energy       (wfn)                    = -795.138472040011720
    Reference energy (file100)                = -795.138472040012289

    Opposite-spin MP2 correlation energy      =   -0.299809116800587
    Same-spin MP2 correlation energy          =   -0.092074046528907
    MP2 correlation energy                    =   -0.391883163329641
      * MP2 total energy                      = -795.530355203341969

    Opposite-spin CCSD correlation energy     =   -0.322366558714089
    Same-spin CCSD correlation energy         =   -0.085445751575400
    CCSD correlation energy                   =   -0.407812317438991
      * CCSD total energy                     = -795.546284357451327


*** tstop() called on n412-050.vsc4.prov at Sat Oct 31 15:49:52 2020
Module time:
	user time   =    9425.24 seconds =     157.09 minutes
	system time =     387.23 seconds =       6.45 minutes
	total time  =        952 seconds =      15.87 minutes
Total time:
	user time   =   15950.33 seconds =     265.84 minutes
	system time =     651.43 seconds =      10.86 minutes
	total time  =       3020 seconds =      50.33 minutes

*** Psi4 exiting successfully. Buy a developer a beer!
