
    -----------------------------------------------------------------------
          Psi4: An Open-Source Ab Initio Electronic Structure Package
                               Psi4 1.2a1.dev939 

                         Git: Rev {HEAD} fa1ec19 


    R. M. Parrish, L. A. Burns, D. G. A. Smith, A. C. Simmonett,
    A. E. DePrince III, E. G. Hohenstein, U. Bozkaya, A. Yu. Sokolov,
    R. Di Remigio, R. M. Richard, J. F. Gonthier, A. M. James,
    H. R. McAlexander, A. Kumar, M. Saitow, X. Wang, B. P. Pritchard,
    P. Verma, H. F. Schaefer III, K. Patkowski, R. A. King, E. F. Valeev,
    F. A. Evangelista, J. M. Turney, T. D. Crawford, and C. D. Sherrill,
    J. Chem. Theory Comput. 13(7) pp 3185--3197 (2017).
    (doi: 10.1021/acs.jctc.7b00174)

    -----------------------------------------------------------------------


    Psi4 started on: Friday, 26 April 2019 06:55PM

    Process ID:  22952
    PSIDATADIR: /home/grueneis/src/psi4/objdir/stage/usr/local/psi4/share/psi4
    Memory:     500.0 MiB
    Threads:    1
    
  ==> Input File <==

--------------------------------------------------------------------------
# Any line starting with the # character is a comment line

memory 32000 mb

molecule molecule {
0 1
N          0.0000000000        0.0000000000       -0.5570422157
N          0.0000000000        0.0000000000        0.5570422157
}

set {
  reference rhf
  basis aug-cc-pv(T+d)z
  scf_type OUT_OF_CORE
  freeze_core true
}

energy('ccsd')
--------------------------------------------------------------------------

  Memory set to  29.802 GiB by Python driver.

*** tstart() called on cqc01
*** at Fri Apr 26 18:55:03 2019

   => Loading Basis Set <=

    Name: AUG-CC-PV(T+D)Z
    Role: ORBITAL
    Keyword: BASIS
    atoms 1-2 entry N          line   301 file /home/grueneis/src/psi4/objdir/stage/usr/local/psi4/share/psi4/basis/aug-cc-pv_tpd_z.gbs 


         ---------------------------------------------------------
                                   SCF
            by Justin Turney, Rob Parrish, Andy Simmonett
                             and Daniel Smith
                              RHF Reference
                        1 Threads,  30517 MiB Core
         ---------------------------------------------------------

  ==> Geometry <==

    Molecular point group: d2h
    Full point group: D_inf_h

    Geometry (in Angstrom), charge = 0, multiplicity = 1:

       Center              X                  Y                   Z               Mass       
    ------------   -----------------  -----------------  -----------------  -----------------
           N          0.000000000000     0.000000000000    -0.557042215700    14.003074004780
           N          0.000000000000     0.000000000000     0.557042215700    14.003074004780

  Running in d2h symmetry.

  Rotational constants: A = ************  B =      1.93984  C =      1.93984 [cm^-1]
  Rotational constants: A = ************  B =  58155.07191  C =  58155.07191 [MHz]
  Nuclear repulsion =   23.274432789915029

  Charge       = 0
  Multiplicity = 1
  Electrons    = 14
  Nalpha       = 7
  Nbeta        = 7

  ==> Algorithm <==

  SCF Algorithm Type is OUT_OF_CORE.
  DIIS enabled.
  MOM disabled.
  Fractional occupation disabled.
  Guess Type is SAD.
  Energy threshold   = 1.00e-08
  Density threshold  = 1.00e-08
  Integral threshold = 0.00e+00

  ==> Primary Basis <==

  Basis Set: AUG-CC-PV(T+D)Z
    Blend: AUG-CC-PV(T+D)Z
    Number of shells: 28
    Number of basis function: 92
    Number of Cartesian functions: 110
    Spherical Harmonics?: true
    Max angular momentum: 3

  ==> Pre-Iterations <==

   -------------------------------------------------------
    Irrep   Nso     Nmo     Nalpha   Nbeta   Ndocc  Nsocc
   -------------------------------------------------------
     Ag        19      19       0       0       0       0
     B1g        5       5       0       0       0       0
     B2g       11      11       0       0       0       0
     B3g       11      11       0       0       0       0
     Au         5       5       0       0       0       0
     B1u       19      19       0       0       0       0
     B2u       11      11       0       0       0       0
     B3u       11      11       0       0       0       0
   -------------------------------------------------------
    Total      92      92       7       7       7       0
   -------------------------------------------------------

  ==> Integral Setup <==

  ==> DiskJK: Disk-Based J/K Matrices <==

    J tasked:                  Yes
    K tasked:                  Yes
    wK tasked:                  No
    Memory (MB):             22888
    Schwarz Cutoff:          1E-12

  Minimum eigenvalue in the overlap matrix is 7.2972487828E-05.
  Using Symmetric Orthogonalization.

  SCF Guess: Superposition of Atomic Densities via on-the-fly atomic UHF.

  ==> Iterations <==

                        Total Energy        Delta E     RMS |[F,P]|

   @RHF iter   0:  -109.02837342855835   -1.09028e+02   6.40015e-02 
   @RHF iter   1:  -108.96611189472351    6.22615e-02   4.70742e-03 
   @RHF iter   2:  -108.97968233448339   -1.35704e-02   1.41257e-03 DIIS
   @RHF iter   3:  -108.98067207225837   -9.89738e-04   3.05920e-04 DIIS
   @RHF iter   4:  -108.98075891405571   -8.68418e-05   3.63264e-05 DIIS
   @RHF iter   5:  -108.98075986149328   -9.47438e-07   4.19631e-06 DIIS
   @RHF iter   6:  -108.98075988202592   -2.05326e-08   8.82087e-07 DIIS
   @RHF iter   7:  -108.98075988313772   -1.11180e-09   9.54713e-08 DIIS
   @RHF iter   8:  -108.98075988314743   -9.70601e-12   5.85087e-09 DIIS

  ==> Post-Iterations <==

    Orbital Energies (a.u.)
    -----------------------

    Doubly Occupied:                                                      

       1Ag   -15.691416     1B1u  -15.688196     2Ag    -1.460643  
       2B1u   -0.785116     3Ag    -0.633146     1B3u   -0.607629  
       1B2u   -0.607629  

    Virtual:                                                              

       3B1u    0.082705     1B2g    0.114003     1B3g    0.114003  
       4Ag     0.116891     2B3u    0.125690     2B2u    0.125690  
       5Ag     0.160191     2B2g    0.204719     2B3g    0.204719  
       4B1u    0.280974     1B1g    0.413016     6Ag     0.413016  
       7Ag     0.479496     5B1u    0.529477     3B2u    0.568938  
       3B3u    0.568938     3B2g    0.578135     3B3g    0.578135  
       1Au     0.581843     6B1u    0.581843     4B2u    0.733138  
       4B3u    0.733138     7B1u    0.740736     8Ag     0.761401  
       4B2g    1.045307     4B3g    1.045307     8B1u    1.058050  
       9Ag     1.217088     2B1g    1.342132    10Ag     1.342132  
       5B3u    1.371265     5B2u    1.371265     6B2u    1.470259  
       6B3u    1.470259     9B1u    1.572414     2Au     1.572414  
      10B1u    1.600092    11Ag     1.694301    12Ag     1.698302  
       3B1g    1.698302     5B2g    1.716400     5B3g    1.716400  
       6B2g    1.719559     6B3g    1.719559    11B1u    1.993463  
       7B2u    2.148352     7B3u    2.148352    12B1u    2.302027  
       3Au     2.302027     7B2g    2.436343     7B3g    2.436343  
      13B1u    2.722621    13Ag     2.796277     8B2u    3.292020  
       8B3u    3.292020    14Ag     3.993187     8B2g    4.259891  
       8B3g    4.259891    15Ag     4.403036     4B1g    4.403036  
       9B3u    4.515342     9B2u    4.515342    14B1u    4.522558  
      16Ag     4.543224    10B3u    4.668395    10B2u    4.668395  
       9B2g    5.031732     9B3g    5.031732    17Ag     5.068033  
       5B1g    5.068033     4Au     5.153381    15B1u    5.153381  
      16B1u    5.157435    10B2g    5.421624    10B3g    5.421624  
      11B3u    5.570680    11B2u    5.570680     5Au     5.711231  
      17B1u    5.711231    18Ag     6.653806    18B1u    6.725741  
      11B2g    6.805998    11B3g    6.805998    19Ag    10.844948  
      19B1u   18.505202  

    Final Occupation by Irrep:
             Ag   B1g   B2g   B3g    Au   B1u   B2u   B3u 
    DOCC [     3,    0,    0,    0,    0,    2,    1,    1 ]

  Energy converged.

  @RHF Final Energy:  -108.98075988314743

   => Energetics <=

    Nuclear Repulsion Energy =             23.2744327899150285
    One-Electron Energy =                -193.5628380243652771
    Two-Electron Energy =                  61.3076453513028099
    Total Energy =                       -108.9807598831474280



Properties will be evaluated at   0.000000,   0.000000,   0.000000 Bohr

Properties computed using the SCF density matrix

  Nuclear Dipole Moment: (a.u.)
     X:     0.0000      Y:     0.0000      Z:     0.0000

  Electronic Dipole Moment: (a.u.)
     X:     0.0000      Y:     0.0000      Z:     0.0000

  Dipole Moment: (a.u.)
     X:     0.0000      Y:     0.0000      Z:     0.0000     Total:     0.0000

  Dipole Moment: (Debye)
     X:     0.0000      Y:     0.0000      Z:     0.0000     Total:     0.0000


*** tstop() called on cqc01 at Fri Apr 26 18:55:07 2019
Module time:
	user time   =       1.18 seconds =       0.02 minutes
	system time =       0.91 seconds =       0.02 minutes
	total time  =          4 seconds =       0.07 minutes
Total time:
	user time   =       1.18 seconds =       0.02 minutes
	system time =       0.91 seconds =       0.02 minutes
	total time  =          4 seconds =       0.07 minutes

*** tstart() called on cqc01
*** at Fri Apr 26 18:55:07 2019


	Wfn Parameters:
	--------------------
	Wavefunction         = CCSD
	Number of irreps     = 8
	Number of MOs        = 92
	Number of active MOs = 90
	AO-Basis             = NONE
	Semicanonical        = false
	Reference            = RHF
	Print Level          = 1

	IRREP	# MOs	# FZDC	# DOCC	# SOCC	# VIRT	# FZVR
	-----	-----	------	------	------	------	------
	 Ag	   19	    1	    2	    0	    16	    0
	 B1g	   5	    0	    0	    0	    5	    0
	 B2g	   11	    0	    0	    0	    11	    0
	 B3g	   11	    0	    0	    0	    11	    0
	 Au	   5	    0	    0	    0	    5	    0
	 B1u	   19	    1	    1	    0	    17	    0
	 B2u	   11	    0	    1	    0	    10	    0
	 B3u	   11	    0	    1	    0	    10	    0
	Transforming integrals...
	IWL integrals will be deleted.
	(OO|OO)...
	Presorting SO-basis two-electron integrals.
	Sorting File: SO Ints (nn|nn) nbuckets = 1
	Transforming the one-electron integrals and constructing Fock matrices
	Starting first half-transformation.
	Sorting half-transformed integrals.
	First half integral transformation complete.
	Starting second half-transformation.
	Two-electron integral transformation complete.
	(OO|OV)...
	Starting second half-transformation.
	Two-electron integral transformation complete.
	(OO|VV)...
	Starting second half-transformation.
	Two-electron integral transformation complete.
	(OV|OO)...
	Starting first half-transformation.
	Sorting half-transformed integrals.
	First half integral transformation complete.
	Starting second half-transformation.
	Two-electron integral transformation complete.
	(OV|OV)...
	Starting second half-transformation.
	Two-electron integral transformation complete.
	(OV|VV)...
	Starting second half-transformation.
	Two-electron integral transformation complete.
	(VV|OO)...
	Starting first half-transformation.
	Sorting half-transformed integrals.
	First half integral transformation complete.
	Starting second half-transformation.
	Two-electron integral transformation complete.
	(VV|OV)...
	Starting second half-transformation.
	Two-electron integral transformation complete.
	(VV|VV)...
	Starting second half-transformation.
	Two-electron integral transformation complete.
	Frozen core energy     =   -100.86662632705658

	Size of irrep 0 of <ab|cd> integrals:      1.075 (MW) /      8.603 (MB)
	Size of irrep 1 of <ab|cd> integrals:      0.596 (MW) /      4.768 (MB)
	Size of irrep 2 of <ab|cd> integrals:      0.814 (MW) /      6.509 (MB)
	Size of irrep 3 of <ab|cd> integrals:      0.814 (MW) /      6.509 (MB)
	Size of irrep 4 of <ab|cd> integrals:      0.593 (MW) /      4.743 (MB)
	Size of irrep 5 of <ab|cd> integrals:      1.069 (MW) /      8.553 (MB)
	Size of irrep 6 of <ab|cd> integrals:      0.817 (MW) /      6.538 (MB)
	Size of irrep 7 of <ab|cd> integrals:      0.817 (MW) /      6.538 (MB)
	Total:                                     6.595 (MW) /     52.760 (MB)

	Size of irrep 0 of <ia|bc> integrals:      0.072 (MW) /      0.572 (MB)
	Size of irrep 1 of <ia|bc> integrals:      0.027 (MW) /      0.216 (MB)
	Size of irrep 2 of <ia|bc> integrals:      0.049 (MW) /      0.390 (MB)
	Size of irrep 3 of <ia|bc> integrals:      0.049 (MW) /      0.390 (MB)
	Size of irrep 4 of <ia|bc> integrals:      0.028 (MW) /      0.228 (MB)
	Size of irrep 5 of <ia|bc> integrals:      0.074 (MW) /      0.596 (MB)
	Size of irrep 6 of <ia|bc> integrals:      0.047 (MW) /      0.376 (MB)
	Size of irrep 7 of <ia|bc> integrals:      0.047 (MW) /      0.376 (MB)
	Total:                                     0.393 (MW) /      3.144 (MB)

	Size of irrep 0 of tijab amplitudes:       0.007 (MW) /      0.058 (MB)
	Size of irrep 1 of tijab amplitudes:       0.002 (MW) /      0.012 (MB)
	Size of irrep 2 of tijab amplitudes:       0.002 (MW) /      0.014 (MB)
	Size of irrep 3 of tijab amplitudes:       0.002 (MW) /      0.014 (MB)
	Size of irrep 4 of tijab amplitudes:       0.000 (MW) /      0.000 (MB)
	Size of irrep 5 of tijab amplitudes:       0.004 (MW) /      0.033 (MB)
	Size of irrep 6 of tijab amplitudes:       0.004 (MW) /      0.029 (MB)
	Size of irrep 7 of tijab amplitudes:       0.004 (MW) /      0.029 (MB)
	Total:                                     0.024 (MW) /      0.190 (MB)

	Nuclear Rep. energy          =     23.27443278991503
	SCF energy                   =   -108.98075988314743
	One-electron energy          =    -54.58880867602308
	Two-electron energy          =     23.20024233001694
	Reference energy             =   -108.98075988314770

*** tstop() called on cqc01 at Fri Apr 26 18:55:11 2019
Module time:
	user time   =       0.36 seconds =       0.01 minutes
	system time =       0.23 seconds =       0.00 minutes
	total time  =          4 seconds =       0.07 minutes
Total time:
	user time   =       1.54 seconds =       0.03 minutes
	system time =       1.14 seconds =       0.02 minutes
	total time  =          8 seconds =       0.13 minutes

*** tstart() called on cqc01
*** at Fri Apr 26 18:55:11 2019

            **************************
            *                        *
            *        CCENERGY        *
            *                        *
            **************************

    Nuclear Rep. energy (wfn)     =   23.274432789915029
    SCF energy          (wfn)     = -108.980759883147428
    Reference energy    (file100) = -108.980759883147698

    Input parameters:
    -----------------
    Wave function   =     CCSD
    Reference wfn   =     RHF
    Brueckner       =     No
    Memory (Mbytes) =     32000.0
    Maxiter         =     50
    R_Convergence   =     1.0e-07
    E_Convergence   =     1.0e-06
    Restart         =     Yes
    DIIS            =     Yes
    AO Basis        =     NONE
    ABCD            =     NEW
    Cache Level     =     2
    Cache Type      =     LOW
    Print Level     =     1
    Num. of threads =     1
    # Amps to Print =     10
    Print MP2 Amps? =     No
    Analyze T2 Amps =     No
    Print Pair Ener =     No
    Local CC        =     No
    SCS-MP2         =     False
    SCSN-MP2        =     False
    SCS-CCSD        =     False

MP2 correlation energy -0.3840400308469073
                Solving CC Amplitude Equations
                ------------------------------
  Iter             Energy              RMS        T1Diag      D1Diag    New D1Diag    D2Diag
  ----     ---------------------    ---------   ----------  ----------  ----------   --------
     0        -0.384040030846904    0.000e+00    0.000000    0.000000    0.000000    0.168131
     1        -0.388533275379531    2.934e-01    0.025000    0.050677    0.050677    0.185146
     2        -0.389143208029359    4.774e-02    0.014509    0.028237    0.028237    0.182847
     3        -0.379674977278606    1.205e-02    0.014341    0.028205    0.028205    0.176663
     4        -0.380416955812714    2.643e-03    0.013800    0.027098    0.027098    0.176725
     5        -0.380019672231703    8.716e-04    0.013653    0.026832    0.026832    0.176259
     6        -0.380029657368600    2.087e-04    0.013625    0.026794    0.026794    0.176179
     7        -0.380022380599628    5.378e-05    0.013622    0.026793    0.026793    0.176154
     8        -0.380018424319746    1.634e-05    0.013621    0.026792    0.026792    0.176145
     9        -0.380018131351388    4.662e-06    0.013621    0.026792    0.026792    0.176143
    10        -0.380017966960338    1.286e-06    0.013621    0.026792    0.026792    0.176142
    11        -0.380017952841712    3.020e-07    0.013621    0.026792    0.026792    0.176142
    12        -0.380017941453856    9.141e-08    0.013621    0.026792    0.026792    0.176142
    12        -0.380017941453856    9.141e-08    0.013621    0.026792    0.026792    0.176142

    Iterations converged.


    CCSD corr. energy   =   -0.380017941453856
    PPL corr. energy    =    0.100819923111502
    OS PPL corr. energy =    0.083389208960936
    SS PPL corr. energy =    0.017430714150565
    Largest TIA Amplitudes:
              3  67         0.0190483950
              4  77         0.0190483950
              1   0        -0.0114760871
              3  65         0.0110527895
              4  75         0.0110527895
              3  69         0.0100690895
              4  79         0.0100690895
              2  53        -0.0099316303
              3  71         0.0082121871
              4  81         0.0082121871

    Largest TIjAb Amplitudes:
      3   3  33  33        -0.0737683005
      4   4  22  22        -0.0737683005
      3   3  32  33        -0.0698959156
      3   3  33  32        -0.0698959156
      4   4  21  22        -0.0698959156
      4   4  22  21        -0.0698959156
      3   3  32  32        -0.0670039452
      4   4  21  21        -0.0670039452
      3   4  33  22        -0.0449361476
      4   3  22  33        -0.0449361476

    SCF energy       (wfn)                    = -108.980759883147428
    Reference energy (file100)                = -108.980759883147698

    Opposite-spin MP2 correlation energy      =   -0.285843483064659
    Same-spin MP2 correlation energy          =   -0.098196547782245
    MP2 correlation energy                    =   -0.384040030846907
      * MP2 total energy                      = -109.364799913994602

    Opposite-spin CCSD correlation energy     =   -0.299475759908270
    Same-spin CCSD correlation energy         =   -0.080542179268759
    CCSD correlation energy                   =   -0.380017941453856
      * CCSD total energy                     = -109.360777824601556


*** tstop() called on cqc01 at Fri Apr 26 18:55:17 2019
Module time:
	user time   =       0.87 seconds =       0.01 minutes
	system time =       2.20 seconds =       0.04 minutes
	total time  =          6 seconds =       0.10 minutes
Total time:
	user time   =       2.41 seconds =       0.04 minutes
	system time =       3.34 seconds =       0.06 minutes
	total time  =         14 seconds =       0.23 minutes

*** Psi4 exiting successfully. Buy a developer a beer!
