
    -----------------------------------------------------------------------
          Psi4: An Open-Source Ab Initio Electronic Structure Package
                               Psi4 1.2a1.dev939 

                         Git: Rev {HEAD} fa1ec19 dirty


    R. M. Parrish, L. A. Burns, D. G. A. Smith, A. C. Simmonett,
    A. E. DePrince III, E. G. Hohenstein, U. Bozkaya, A. Yu. Sokolov,
    R. Di Remigio, R. M. Richard, J. F. Gonthier, A. M. James,
    H. R. McAlexander, A. Kumar, M. Saitow, X. Wang, B. P. Pritchard,
    P. Verma, H. F. Schaefer III, K. Patkowski, R. A. King, E. F. Valeev,
    F. A. Evangelista, J. M. Turney, T. D. Crawford, and C. D. Sherrill,
    J. Chem. Theory Comput. 13(7) pp 3185--3197 (2017).
    (doi: 10.1021/acs.jctc.7b00174)

    -----------------------------------------------------------------------


    Psi4 started on: Tuesday, 11 August 2020 07:25PM

    Process ID: 436353
    PSIDATADIR: /home/fs71337/airmler/src/psi4new/build/stage/usr/local/psi4/share/psi4
    Memory:     500.0 MiB
    Threads:    48
    
  ==> Input File <==

--------------------------------------------------------------------------
# Any line starting with the # character is a comment line
memory 250000 mb
molecule molecule{
0 1
N          0.0000000000        0.0000000000       -0.5570422157
N          0.0000000000        0.0000000000        0.5570422157
}

set {
  reference rhf
  basis aug-cc-pv(6+d)z
  scf_type OUT_OF_CORE
  freeze_core true
}

energy('ccsd')
--------------------------------------------------------------------------

  Memory set to 232.831 GiB by Python driver.

*** tstart() called on n412-017.vsc4.prov
*** at Tue Aug 11 19:25:29 2020

   => Loading Basis Set <=

    Name: AUG-CC-PV(6+D)Z
    Role: ORBITAL
    Keyword: BASIS
    atoms 1-2 entry N          line   363 file /home/fs71337/airmler/src/psi4new/build/stage/usr/local/psi4/share/psi4/basis/aug-cc-pv_6pd_z.gbs 


         ---------------------------------------------------------
                                   SCF
            by Justin Turney, Rob Parrish, Andy Simmonett
                             and Daniel Smith
                              RHF Reference
                       48 Threads, 238418 MiB Core
         ---------------------------------------------------------

  ==> Geometry <==

    Molecular point group: d2h
    Full point group: D_inf_h

    Geometry (in Angstrom), charge = 0, multiplicity = 1:

       Center              X                  Y                   Z               Mass       
    ------------   -----------------  -----------------  -----------------  -----------------
           N          0.000000000000     0.000000000000    -0.557042215700    14.003074004780
           N          0.000000000000     0.000000000000     0.557042215700    14.003074004780

  Running in d2h symmetry.

  Rotational constants: A = ************  B =      1.93984  C =      1.93984 [cm^-1]
  Rotational constants: A = ************  B =  58155.07191  C =  58155.07191 [MHz]
  Nuclear repulsion =   23.274432789915029

  Charge       = 0
  Multiplicity = 1
  Electrons    = 14
  Nalpha       = 7
  Nbeta        = 7

  ==> Algorithm <==

  SCF Algorithm Type is OUT_OF_CORE.
  DIIS enabled.
  MOM disabled.
  Fractional occupation disabled.
  Guess Type is SAD.
  Energy threshold   = 1.00e-08
  Density threshold  = 1.00e-08
  Integral threshold = 0.00e+00

  ==> Primary Basis <==

  Basis Set: AUG-CC-PV(6+D)Z
    Blend: AUG-CC-PV(6+D)Z
    Number of shells: 70
    Number of basis function: 378
    Number of Cartesian functions: 588
    Spherical Harmonics?: true
    Max angular momentum: 6

  ==> Pre-Iterations <==

   -------------------------------------------------------
    Irrep   Nso     Nmo     Nalpha   Nbeta   Ndocc  Nsocc
   -------------------------------------------------------
     Ag        66      66       0       0       0       0
     B1g       31      31       0       0       0       0
     B2g       46      46       0       0       0       0
     B3g       46      46       0       0       0       0
     Au        31      31       0       0       0       0
     B1u       66      66       0       0       0       0
     B2u       46      46       0       0       0       0
     B3u       46      46       0       0       0       0
   -------------------------------------------------------
    Total     378     378       7       7       7       0
   -------------------------------------------------------

  ==> Integral Setup <==

  ==> DiskJK: Disk-Based J/K Matrices <==

    J tasked:                  Yes
    K tasked:                  Yes
    wK tasked:                  No
    Memory (MB):            178813
    Schwarz Cutoff:          1E-12

  Minimum eigenvalue in the overlap matrix is 1.2030000221E-06.
  Using Symmetric Orthogonalization.

  SCF Guess: Superposition of Atomic Densities via on-the-fly atomic UHF.

  ==> Iterations <==

                        Total Energy        Delta E     RMS |[F,P]|

   @RHF iter   0:  -109.03381517884135   -1.09034e+02   5.08569e-02 
   @RHF iter   1:  -108.97446053993221    5.93546e-02   3.70502e-03 
   @RHF iter   2:  -108.98795448312195   -1.34939e-02   1.27668e-03 DIIS
   @RHF iter   3:  -108.98895692130804   -1.00244e-03   2.53148e-04 DIIS
   @RHF iter   4:  -108.98904554592278   -8.86246e-05   3.29417e-05 DIIS
   @RHF iter   5:  -108.98904665811986   -1.11220e-06   3.80275e-06 DIIS
   @RHF iter   6:  -108.98904667900925   -2.08894e-08   7.92207e-07 DIIS
   @RHF iter   7:  -108.98904668027460   -1.26535e-09   1.08722e-07 DIIS
   @RHF iter   8:  -108.98904668029085   -1.62572e-11   8.24398e-09 DIIS

  ==> Post-Iterations <==

    Orbital Energies (a.u.)
    -----------------------

    Doubly Occupied:                                                      

       1Ag   -15.688945     1B1u  -15.685722     2Ag    -1.459122  
       2B1u   -0.784525     3Ag    -0.633002     1B2u   -0.607310  
       1B3u   -0.607310  

    Virtual:                                                              

       3B1u    0.049601     4Ag     0.069000     2B2u    0.070091  
       2B3u    0.070091     1B2g    0.088043     1B3g    0.088043  
       5Ag     0.096748     2B2g    0.151290     2B3g    0.151290  
       4B1u    0.164949     6Ag     0.248966     1B1g    0.248966  
       7Ag     0.261225     3B2u    0.286246     3B3u    0.286246  
       5B1u    0.299962     1Au     0.302123     6B1u    0.302123  
       4B3u    0.326342     4B2u    0.326342     3B2g    0.328330  
       3B3g    0.328330     8Ag     0.337366     7B1u    0.386108  
       4B2g    0.440260     4B3g    0.440260     9Ag     0.560751  
       5B2u    0.586311     5B3u    0.586311     8B1u    0.658863  
       2Au     0.678947     9B1u    0.678947     6B3u    0.687638  
       6B2u    0.687638     2B1g    0.699672    10Ag     0.699672  
      11Ag     0.703222     5B3g    0.722052     5B2g    0.722052  
      10B1u    0.755229     6B2g    0.760974     6B3g    0.760974  
       3B1g    0.765734    12Ag     0.765734    11B1u    0.892930  
       7B3u    0.898943     7B2u    0.898943    13Ag     0.902735  
       7B2g    1.065230     7B3g    1.065230     8B3u    1.090498  
       8B2u    1.090498     3Au     1.135420    12B1u    1.135420  
      13B1u    1.241164    14Ag     1.360514    14B1u    1.393942  
       8B2g    1.420943     8B3g    1.420943     4B1g    1.540095  
      15Ag     1.540095    16Ag     1.548736     9B3u    1.675753  
       9B2u    1.675753     5B1g    1.700074    17Ag     1.700074  
       9B3g    1.729274     9B2g    1.729274    10B3u    1.764728  
      10B2u    1.764728    15B1u    1.775365     4Au     1.803200  
      16B1u    1.803200    11B3u    1.822438    11B2u    1.822438  
       5Au     1.827518    17B1u    1.827518    18Ag     1.835528  
       6B1g    1.835528    12B3u    1.918620    12B2u    1.918620  
      19Ag     1.976326    10B2g    2.016615    10B3g    2.016615  
       6Au     2.037818    18B1u    2.037818    20Ag     2.248727  
      19B1u    2.278317    11B2g    2.309500    11B3g    2.309500  
      12B2g    2.314199    12B3g    2.314199     7B1g    2.315715  
      21Ag     2.315715    13B3u    2.369621    13B2u    2.369621  
      20B1u    2.401933    22Ag     2.430400    13B2g    2.560954  
      13B3g    2.560954    14B3u    2.932808    14B2u    2.932808  
       7Au     3.146253    21B1u    3.146253    22B1u    3.232604  
      15B2u    3.274749    15B3u    3.274749    23Ag     3.529631  
       8B1g    3.529631    14B2g    3.667688    14B3g    3.667688  
      15B3g    3.708597    15B2g    3.708597    24Ag     3.759901  
      25Ag     3.835647     9B1g    3.886346    26Ag     3.886346  
      16B3u    3.892735    16B2u    3.892735    23B1u    3.929112  
      16B2g    3.947425    16B3g    3.947425    24B1u    4.055460  
       8Au     4.055460     9Au     4.064774    25B1u    4.064774  
      26B1u    4.075963    10B1g    4.084682    27Ag     4.084682  
      17B2g    4.094303    17B3g    4.094303    17B3u    4.120091  
      17B2u    4.120091    28Ag     4.169528    29Ag     4.205920  
      11B1g    4.205920    18B2u    4.206339    18B3u    4.206339  
      19B2u    4.304811    19B3u    4.304811    10Au     4.345690  
      27B1u    4.345690    18B2g    4.413511    18B3g    4.413511  
      20B3u    4.488815    20B2u    4.488815    12B1g    4.601200  
      30Ag     4.601200    28B1u    4.614558    29B1u    4.758869  
      11Au     4.758869    21B3u    4.803968    21B2u    4.803968  
      31Ag     4.913740    19B2g    5.297488    19B3g    5.297488  
      12Au     5.486163    30B1u    5.486163    32Ag     5.510768  
      20B2g    5.688333    20B3g    5.688333    31B1u    5.876639  
      13B1g    5.931171    33Ag     5.931171    22B3u    5.933871  
      22B2u    5.933871    21B3g    6.146996    21B2g    6.146996  
      22B2g    6.330423    22B3g    6.330423    32B1u    6.507899  
      34Ag     6.645020    35Ag     6.966196    14B1g    6.966196  
      23B3u    6.989260    23B2u    6.989260    13Au     7.050505  
      33B1u    7.050505    14Au     7.444133    34B1u    7.444133  
      35B1u    7.578208    24B2u    7.687718    24B3u    7.687718  
      36Ag     7.702192    15B1g    7.702192    16B1g    8.040782  
      37Ag     8.040782    38Ag     8.104275    23B3g    8.179896  
      23B2g    8.179896    25B2u    8.194073    25B3u    8.194073  
      24B3g    8.269427    24B2g    8.269427    39Ag     8.302593  
      17B1g    8.302593    25B2g    8.326544    25B3g    8.326544  
      26B2u    8.378588    26B3u    8.378588    26B2g    8.447400  
      26B3g    8.447400    40Ag     8.453480    36B1u    8.496794  
      15Au     8.496794    27B3g    8.590115    27B2g    8.590115  
      27B3u    8.624803    27B2u    8.624803    37B1u    8.646417  
      18B1g    8.672915    41Ag     8.672915    38B1u    8.696052  
      16Au     8.696052    28B2u    8.756483    28B3u    8.756483  
      29B2u    8.778902    29B3u    8.778902    42Ag     8.911625  
      17Au     9.249222    39B1u    9.249222    28B3g    9.332603  
      28B2g    9.332603    40B1u    9.377537    30B3u    9.422180  
      30B2u    9.422180    31B2u    9.775462    31B3u    9.775462  
      41B1u   10.009027    18Au    10.035090    42B1u   10.035090  
      43Ag    10.100496    19B1g   10.100496    20B1g   10.347361  
      44Ag    10.347361    43B1u   10.370327    19Au    10.370327  
      45Ag    10.736994    32B3u   10.781496    32B2u   10.781496  
      29B2g   10.874427    29B3g   10.874427    30B3g   11.133153  
      30B2g   11.133153    46Ag    11.136298    21B1g   11.136298  
      20Au    11.431072    44B1u   11.431072    21Au    11.612212  
      45B1u   11.612212    31B2g   11.660448    31B3g   11.660448  
      47Ag    12.166735    46B1u   12.197979    32B2g   12.360549  
      32B3g   12.360549    33B2u   12.483453    33B3u   12.483453  
      33B3g   12.540817    33B2g   12.540817    47B1u   13.061288  
      48Ag    13.161224    49Ag    13.341144    22B1g   13.341144  
      34B2u   14.927159    34B3u   14.927159    22Au    15.055761  
      48B1u   15.055761    34B2g   15.758398    34B3g   15.758398  
      49B1u   16.073395    23B1g   16.764837    50Ag    16.764837  
      35B3u   16.974420    35B2u   16.974420    36B3u   17.106472  
      36B2u   17.106472    51Ag    17.159096    24B1g   17.159096  
      23Au    17.377643    50B1u   17.377643    25B1g   17.725442  
      52Ag    17.725442    35B2g   17.881465    35B3g   17.881465  
      53Ag    17.975232    51B1u   18.144077    54Ag    18.235333  
      37B2u   18.254366    37B3u   18.254366    24Au    18.551313  
      52B1u   18.551313    38B3u   18.592444    38B2u   18.592444  
      36B2g   18.688263    36B3g   18.688263    25Au    18.911961  
      53B1u   18.911961    37B2g   19.174517    37B3g   19.174517  
      39B2u   19.890639    39B3u   19.890639    54B1u   19.932034  
      40B2u   20.102735    40B3u   20.102735    38B2g   20.162461  
      38B3g   20.162461    55Ag    20.181741    26B1g   20.181741  
      39B2g   20.269608    39B3g   20.269608    56Ag    20.483556  
      27B1g   20.483556    57Ag    20.504242    41B2u   20.517024  
      41B3u   20.517024    55B1u   20.706954    26Au    20.706954  
      40B3g   20.888908    40B2g   20.888908    42B3u   20.901833  
      42B2u   20.901833    56B1u   21.639532    57B1u   21.751652  
      27Au    21.751652    58Ag    21.995962    59Ag    22.094982  
      28B1g   22.094982    41B3g   22.547492    41B2g   22.547492  
      60Ag    22.647801    42B2g   22.653066    42B3g   22.653066  
      43B2u   23.455529    43B3u   23.455529    58B1u   23.660737  
      29B1g   23.813686    61Ag    23.813686    44B3u   23.993891  
      44B2u   23.993891    28Au    24.029972    59B1u   24.029972  
      29Au    24.302243    60B1u   24.302243    43B2g   24.670296  
      43B3g   24.670296    62Ag    24.869792    30B1g   24.869792  
      44B3g   25.043250    44B2g   25.043250    61B1u   25.954885  
      63Ag    26.010227    30Au    26.529286    62B1u   26.529286  
      45B2u   27.264178    45B3u   27.264178    45B2g   28.115085  
      45B3g   28.115085    64Ag    28.501572    31B1g   28.501572  
      63B1u   29.287065    46B2u   29.890004    46B3u   29.890004  
      64B1u   30.118066    31Au    30.118066    65Ag    32.917699  
      46B2g   33.271490    46B3g   33.271490    65B1u   34.553495  
      66Ag    82.631083    66B1u   83.970732  

    Final Occupation by Irrep:
             Ag   B1g   B2g   B3g    Au   B1u   B2u   B3u 
    DOCC [     3,    0,    0,    0,    0,    2,    1,    1 ]

  Energy converged.

  @RHF Final Energy:  -108.98904668029085

   => Energetics <=

    Nuclear Repulsion Energy =             23.2744327899150285
    One-Electron Energy =                -193.5950861700786731
    Two-Electron Energy =                  61.3316066998727791
    PCM Polarization Energy =               0.0000000000000000
    Total Energy =                       -108.9890466802908549

    Alert: EFP and PCM quantities not currently incorporated into SCF psivars.

Properties will be evaluated at   0.000000,   0.000000,   0.000000 Bohr

Properties computed using the SCF density matrix

  Nuclear Dipole Moment: (a.u.)
     X:     0.0000      Y:     0.0000      Z:     0.0000

  Electronic Dipole Moment: (a.u.)
     X:     0.0000      Y:     0.0000      Z:     0.0000

  Dipole Moment: (a.u.)
     X:     0.0000      Y:     0.0000      Z:     0.0000     Total:     0.0000

  Dipole Moment: (Debye)
     X:     0.0000      Y:     0.0000      Z:     0.0000     Total:     0.0000


*** tstop() called on n412-017.vsc4.prov at Tue Aug 11 19:36:41 2020
Module time:
	user time   =     866.02 seconds =      14.43 minutes
	system time =      28.94 seconds =       0.48 minutes
	total time  =        672 seconds =      11.20 minutes
Total time:
	user time   =     866.02 seconds =      14.43 minutes
	system time =      28.94 seconds =       0.48 minutes
	total time  =        672 seconds =      11.20 minutes

*** tstart() called on n412-017.vsc4.prov
*** at Tue Aug 11 19:36:41 2020


	Wfn Parameters:
	--------------------
	Wavefunction         = CCSD
	Number of irreps     = 8
	Number of MOs        = 378
	Number of active MOs = 376
	AO-Basis             = NONE
	Semicanonical        = false
	Reference            = RHF
	Print Level          = 1

	IRREP	# MOs	# FZDC	# DOCC	# SOCC	# VIRT	# FZVR
	-----	-----	------	------	------	------	------
	 Ag	   66	    1	    2	    0	    63	    0
	 B1g	   31	    0	    0	    0	    31	    0
	 B2g	   46	    0	    0	    0	    46	    0
	 B3g	   46	    0	    0	    0	    46	    0
	 Au	   31	    0	    0	    0	    31	    0
	 B1u	   66	    1	    1	    0	    64	    0
	 B2u	   46	    0	    1	    0	    45	    0
	 B3u	   46	    0	    1	    0	    45	    0
	Transforming integrals...
	IWL integrals will be deleted.
	(OO|OO)...
	Presorting SO-basis two-electron integrals.
	Sorting File: SO Ints (nn|nn) nbuckets = 1
	Transforming the one-electron integrals and constructing Fock matrices
	Starting first half-transformation.
	Sorting half-transformed integrals.
	First half integral transformation complete.
	Starting second half-transformation.
	Two-electron integral transformation complete.
	(OO|OV)...
	Starting second half-transformation.
	Two-electron integral transformation complete.
	(OO|VV)...
	Starting second half-transformation.
	Two-electron integral transformation complete.
	(OV|OO)...
	Starting first half-transformation.
	Sorting half-transformed integrals.
	First half integral transformation complete.
	Starting second half-transformation.
	Two-electron integral transformation complete.
	(OV|OV)...
	Starting second half-transformation.
	Two-electron integral transformation complete.
	(OV|VV)...
	Starting second half-transformation.
	Two-electron integral transformation complete.
	(VV|OO)...
	Starting first half-transformation.
	Sorting half-transformed integrals.
	First half integral transformation complete.
	Starting second half-transformation.
	Two-electron integral transformation complete.
	(VV|OV)...
	Starting second half-transformation.
	Two-electron integral transformation complete.
	(VV|VV)...
	Starting second half-transformation.
	Two-electron integral transformation complete.
	Frozen core energy     =   -100.86893159850014

	Size of irrep 0 of <ab|cd> integrals:    333.756 (MW) /   2670.051 (MB)
	Size of irrep 1 of <ab|cd> integrals:    261.016 (MW) /   2088.131 (MB)
	Size of irrep 2 of <ab|cd> integrals:    295.771 (MW) /   2366.170 (MB)
	Size of irrep 3 of <ab|cd> integrals:    295.771 (MW) /   2366.170 (MB)
	Size of irrep 4 of <ab|cd> integrals:    260.952 (MW) /   2087.614 (MB)
	Size of irrep 5 of <ab|cd> integrals:    333.647 (MW) /   2669.174 (MB)
	Size of irrep 6 of <ab|cd> integrals:    295.840 (MW) /   2366.720 (MB)
	Size of irrep 7 of <ab|cd> integrals:    295.840 (MW) /   2366.720 (MB)
	Total:                                  2372.594 (MW) /  18980.749 (MB)

	Size of irrep 0 of <ia|bc> integrals:      5.115 (MW) /     40.923 (MB)
	Size of irrep 1 of <ia|bc> integrals:      2.957 (MW) /     23.652 (MB)
	Size of irrep 2 of <ia|bc> integrals:      3.990 (MW) /     31.919 (MB)
	Size of irrep 3 of <ia|bc> integrals:      3.990 (MW) /     31.919 (MB)
	Size of irrep 4 of <ia|bc> integrals:      2.988 (MW) /     23.908 (MB)
	Size of irrep 5 of <ia|bc> integrals:      5.169 (MW) /     41.354 (MB)
	Size of irrep 6 of <ia|bc> integrals:      3.956 (MW) /     31.648 (MB)
	Size of irrep 7 of <ia|bc> integrals:      3.956 (MW) /     31.648 (MB)
	Total:                                    32.122 (MW) /    256.972 (MB)

	Size of irrep 0 of tijab amplitudes:       0.128 (MW) /      1.023 (MB)
	Size of irrep 1 of tijab amplitudes:       0.032 (MW) /      0.258 (MB)
	Size of irrep 2 of tijab amplitudes:       0.034 (MW) /      0.275 (MB)
	Size of irrep 3 of tijab amplitudes:       0.034 (MW) /      0.275 (MB)
	Size of irrep 4 of tijab amplitudes:       0.000 (MW) /      0.000 (MB)
	Size of irrep 5 of tijab amplitudes:       0.073 (MW) /      0.585 (MB)
	Size of irrep 6 of tijab amplitudes:       0.069 (MW) /      0.550 (MB)
	Size of irrep 7 of tijab amplitudes:       0.069 (MW) /      0.550 (MB)
	Total:                                     0.440 (MW) /      3.517 (MB)

	Nuclear Rep. energy          =     23.27443278991503
	SCF energy                   =   -108.98904668029085
	One-electron energy          =    -54.60655728933931
	Two-electron energy          =     23.21200941763408
	Reference energy             =   -108.98904668029034

*** tstop() called on n412-017.vsc4.prov at Tue Aug 11 19:42:41 2020
Module time:
	user time   =    2153.55 seconds =      35.89 minutes
	system time =      79.18 seconds =       1.32 minutes
	total time  =        360 seconds =       6.00 minutes
Total time:
	user time   =    3019.57 seconds =      50.33 minutes
	system time =     108.12 seconds =       1.80 minutes
	total time  =       1032 seconds =      17.20 minutes

*** tstart() called on n412-017.vsc4.prov
*** at Tue Aug 11 19:42:41 2020

            **************************
            *                        *
            *        CCENERGY        *
            *                        *
            **************************

    Nuclear Rep. energy (wfn)     =   23.274432789915029
    SCF energy          (wfn)     = -108.989046680290855
    Reference energy    (file100) = -108.989046680290343

    Input parameters:
    -----------------
    Wave function   =     CCSD
    Reference wfn   =     RHF
    Brueckner       =     No
    Memory (Mbytes) =     250000.0
    Maxiter         =     50
    R_Convergence   =     1.0e-07
    E_Convergence   =     1.0e-06
    Restart         =     Yes
    DIIS            =     Yes
    AO Basis        =     NONE
    ABCD            =     NEW
    Cache Level     =     2
    Cache Type      =     LOW
    Print Level     =     1
    Num. of threads =     48
    # Amps to Print =     10
    Print MP2 Amps? =     No
    Analyze T2 Amps =     No
    Print Pair Ener =     No
    Local CC        =     No
    SCS-MP2         =     False
    SCSN-MP2        =     False
    SCS-CCSD        =     False

MP2 correlation energy -0.4191527472491751
                Solving CC Amplitude Equations
                ------------------------------
  Iter             Energy              RMS        T1Diag      D1Diag    New D1Diag    D2Diag
  ----     ---------------------    ---------   ----------  ----------  ----------   --------
     0        -0.419152747249168    0.000e+00    0.000000    0.000000    0.000000    0.169526
     1        -0.405815422300394    3.070e-01    0.026431    0.054191    0.054191    0.181151
     2        -0.417379172830254    5.223e-02    0.014772    0.029411    0.029411    0.182353
     3        -0.406824591464112    1.380e-02    0.014775    0.029707    0.029707    0.175369
     4        -0.407385116036590    2.859e-03    0.014176    0.028472    0.028472    0.175302
     5        -0.407062368378431    9.127e-04    0.014019    0.028174    0.028174    0.174835
     6        -0.407042332236266    2.417e-04    0.013989    0.028130    0.028130    0.174720
     7        -0.407039801564773    5.927e-05    0.013987    0.028131    0.028131    0.174695
     8        -0.407035054748306    1.995e-05    0.013986    0.028129    0.028129    0.174684
     9        -0.407034684346233    5.409e-06    0.013986    0.028129    0.028129    0.174681
    10        -0.407034551426781    1.531e-06    0.013986    0.028129    0.028129    0.174681
    11        -0.407034533859523    4.151e-07    0.013986    0.028129    0.028129    0.174680
    12        -0.407034523936982    1.126e-07    0.013986    0.028129    0.028129    0.174680
    13        -0.407034526157148    3.398e-08    0.013986    0.028129    0.028129    0.174680
    13        -0.407034526157148    3.398e-08    0.013986    0.028129    0.028129    0.174680

    Iterations converged.


    CCSD corr. energy   =   -0.407034526157148
    PPL corr. energy    =    0.113306349960685
    OS PPL corr. energy =    0.094869075809181
    SS PPL corr. energy =    0.018437274151503
    Largest TIA Amplitudes:
              3 286         0.0126427677
              4 331         0.0126427677
              3 287         0.0118243539
              4 332         0.0118243539
              3 282         0.0115388662
              4 327         0.0115388662
              3 283         0.0102809600
              4 328         0.0102809600
              2 225         0.0096335940
              1   0         0.0078546930

    Largest TIjAb Amplitudes:
      3   3 141 141        -0.1040031263
      4   4  95  95        -0.1040031263
      3   4 141  95        -0.0635094517
      4   3  95 141        -0.0635094517
      2   2  95  95        -0.0449351535
      2   2 141 141        -0.0449351535
      3   3 141 142        -0.0423290144
      3   3 142 141        -0.0423290144
      4   4  95  96        -0.0423290144
      4   4  96  95        -0.0423290144

    SCF energy       (wfn)                    = -108.989046680290855
    Reference energy (file100)                = -108.989046680290343

    Opposite-spin MP2 correlation energy      =   -0.317040023464650
    Same-spin MP2 correlation energy          =   -0.102112723784518
    MP2 correlation energy                    =   -0.419152747249175
      * MP2 total energy                      = -109.408199427539515

    Opposite-spin CCSD correlation energy     =   -0.323103449551669
    Same-spin CCSD correlation energy         =   -0.083931073356367
    CCSD correlation energy                   =   -0.407034526157148
      * CCSD total energy                     = -109.396081206447491


*** tstop() called on n412-017.vsc4.prov at Tue Aug 11 19:44:35 2020
Module time:
	user time   =    2548.41 seconds =      42.47 minutes
	system time =      84.26 seconds =       1.40 minutes
	total time  =        114 seconds =       1.90 minutes
Total time:
	user time   =    5567.98 seconds =      92.80 minutes
	system time =     192.38 seconds =       3.21 minutes
	total time  =       1146 seconds =      19.10 minutes

*** Psi4 exiting successfully. Buy a developer a beer!
