
    -----------------------------------------------------------------------
          Psi4: An Open-Source Ab Initio Electronic Structure Package
                               Psi4 1.2a1.dev938 

                         Git: Rev {HEAD} fc51d9a dirty


    R. M. Parrish, L. A. Burns, D. G. A. Smith, A. C. Simmonett,
    A. E. DePrince III, E. G. Hohenstein, U. Bozkaya, A. Yu. Sokolov,
    R. Di Remigio, R. M. Richard, J. F. Gonthier, A. M. James,
    H. R. McAlexander, A. Kumar, M. Saitow, X. Wang, B. P. Pritchard,
    P. Verma, H. F. Schaefer III, K. Patkowski, R. A. King, E. F. Valeev,
    F. A. Evangelista, J. M. Turney, T. D. Crawford, and C. D. Sherrill,
    J. Chem. Theory Comput. 13(7) pp 3185--3197 (2017).
    (doi: 10.1021/acs.jctc.7b00174)

    -----------------------------------------------------------------------


    Psi4 started on: Thursday, 20 August 2020 07:55PM

    Process ID: 422778
    PSIDATADIR: /home/irmler/Programs/psi4/beforeGrueneis3/stage/usr/local/psi4/share/psi4
    Memory:     500.0 MiB
    Threads:    4
    
  ==> Input File <==

--------------------------------------------------------------------------
# Any line starting with the # character is a comment line
memory 250000 mb
molecule molecule{
1 2
P         -0.0333080229        0.0000000000        0.0000001010
H          0.3411822908        1.1617449213       -0.6707361931
H          0.3411831569        0.0000000000        1.3414692835
H          0.3411822908       -1.1617449213       -0.6707361931
}

set {
  reference uhf
  basis aug-cc-pv(d+d)z
  scf_type OUT_OF_CORE
  freeze_core true
}

energy('ccsd')
--------------------------------------------------------------------------

  Memory set to 232.831 GiB by Python driver.

*** tstart() called on cqc05
*** at Thu Aug 20 19:55:17 2020

   => Loading Basis Set <=

    Name: AUG-CC-PV(D+D)Z
    Role: ORBITAL
    Keyword: BASIS
    atoms 1   entry P          line   656 file /home/irmler/Programs/psi4/beforeGrueneis3/stage/usr/local/psi4/share/psi4/basis/aug-cc-pv_dpd_z.gbs 
    atoms 2-4 entry H          line    56 file /home/irmler/Programs/psi4/beforeGrueneis3/stage/usr/local/psi4/share/psi4/basis/aug-cc-pv_dpd_z.gbs 


         ---------------------------------------------------------
                                   SCF
            by Justin Turney, Rob Parrish, Andy Simmonett
                             and Daniel Smith
                              UHF Reference
                        4 Threads, 238418 MiB Core
         ---------------------------------------------------------

  ==> Geometry <==

    Molecular point group: cs
    Full point group: Cs

    Geometry (in Angstrom), charge = 1, multiplicity = 2:

       Center              X                  Y                   Z               Mass       
    ------------   -----------------  -----------------  -----------------  -----------------
           P          0.033304559993     0.000000100960     0.000000000000    30.973761629000
           H         -0.341185753707    -0.670736193140     1.161744921300     1.007825032070
           H         -0.341186619807     1.341469283460     0.000000000000     1.007825032070
           H         -0.341185753707    -0.670736193140    -1.161744921300     1.007825032070

  Running in cs symmetry.

  Rotational constants: A =      5.42615  B =      5.42613  C =      3.09834 [cm^-1]
  Rotational constants: A = 162671.96318  B = 162671.36182  C =  92885.85472 [MHz]
  Nuclear repulsion =   17.780932170388734

  Charge       = 1
  Multiplicity = 2
  Electrons    = 17
  Nalpha       = 9
  Nbeta        = 8

  ==> Algorithm <==

  SCF Algorithm Type is OUT_OF_CORE.
  DIIS enabled.
  MOM disabled.
  Fractional occupation disabled.
  Guess Type is GWH.
  Energy threshold   = 1.00e-08
  Density threshold  = 1.00e-08
  Integral threshold = 0.00e+00

  ==> Primary Basis <==

  Basis Set: AUG-CC-PV(D+D)Z
    Blend: AUG-CC-PV(D+D)Z
    Number of shells: 27
    Number of basis function: 59
    Number of Cartesian functions: 62
    Spherical Harmonics?: true
    Max angular momentum: 2

  ==> Pre-Iterations <==

   -------------------------------------------------------
    Irrep   Nso     Nmo     Nalpha   Nbeta   Ndocc  Nsocc
   -------------------------------------------------------
     A'        38      38       0       0       0       0
     A"        21      21       0       0       0       0
   -------------------------------------------------------
    Total      59      59       9       8       8       1
   -------------------------------------------------------

  ==> Integral Setup <==

  ==> DiskJK: Disk-Based J/K Matrices <==

    J tasked:                  Yes
    K tasked:                  Yes
    wK tasked:                  No
    Memory (MB):            178813
    Schwarz Cutoff:          1E-12

  Minimum eigenvalue in the overlap matrix is 4.5054115262E-04.
  Using Symmetric Orthogonalization.

  SCF Guess: Generalized Wolfsberg-Helmholtz.

  ==> Iterations <==

                        Total Energy        Delta E     RMS |[F,P]|

   @UHF iter   1:  -321.04339277275733   -3.21043e+02   2.20798e-01 
   @UHF iter   2:  -339.00642689428184   -1.79630e+01   1.07462e-01 DIIS
   @UHF iter   3:  -342.13899986191279   -3.13257e+00   8.51021e-03 DIIS
   @UHF iter   4:  -342.16114068370877   -2.21408e-02   1.72303e-03 DIIS
   @UHF iter   5:  -342.16222979233640   -1.08911e-03   4.64676e-04 DIIS
   @UHF iter   6:  -342.16241991108649   -1.90119e-04   1.84488e-04 DIIS
   @UHF iter   7:  -342.16246114574875   -4.12347e-05   8.04155e-05 DIIS
   @UHF iter   8:  -342.16247131060015   -1.01649e-05   2.56746e-05 DIIS
   @UHF iter   9:  -342.16247239727448   -1.08667e-06   5.60196e-06 DIIS
   @UHF iter  10:  -342.16247244143403   -4.41595e-08   1.59943e-06 DIIS
   @UHF iter  11:  -342.16247244504058   -3.60654e-09   4.55179e-07 DIIS
   @UHF iter  12:  -342.16247244533520   -2.94619e-10   1.24979e-07 DIIS
   @UHF iter  13:  -342.16247244535566   -2.04636e-11   3.15246e-08 DIIS
   @UHF iter  14:  -342.16247244535606   -3.97904e-13   7.03539e-09 DIIS

  ==> Post-Iterations <==

   @Spin Contamination Metric:   7.093163704E-03
   @S^2 Expected:                7.500000000E-01
   @S^2 Observed:                7.570931637E-01
   @S   Expected:                5.000000000E-01
   @S   Observed:                5.000000000E-01

    Orbital Energies (a.u.)
    -----------------------

    Alpha Occupied:                                                       

       1Ap   -80.303263     2Ap    -7.844085     3Ap    -5.750307  
       1App   -5.735637     4Ap    -5.735637     5Ap    -1.193153  
       6Ap    -0.856972     2App   -0.856972     7Ap    -0.711508  

    Alpha Virtual:                                                        

       8Ap    -0.130205     3App   -0.101889     9Ap    -0.101888  
      10Ap    -0.074729     4App   -0.074729    11Ap    -0.074060  
      12Ap    -0.053068    13Ap     0.000953    14Ap     0.005592  
       5App    0.005592     6App    0.012031    15Ap     0.012031  
      16Ap     0.156300    17Ap     0.170027     7App    0.170027  
       8App    0.226893    18Ap     0.252182     9App    0.252182  
      19Ap     0.273559    20Ap     0.319721    21Ap     0.360762  
      10App    0.360762    11App    0.387165    22Ap     0.387165  
      23Ap     0.456352    24Ap     0.476212    25Ap     0.541964  
      12App    0.541964    26Ap     0.586159    13App    0.586159  
      27Ap     0.699990    14App    0.699990    28Ap     0.769447  
      29Ap     0.922187    15App    0.922188    30Ap     1.113414  
      16App    1.470024    17App    1.577719    31Ap     1.577719  
      32Ap     1.629055    18App    1.759216    33Ap     1.759217  
      34Ap     1.909244    35Ap     2.158419    19App    2.158419  
      36Ap     4.062528    20App    4.062994    37Ap     4.062994  
      38Ap     4.193889    21App    4.193889  

    Beta Occupied:                                                        

       1Ap   -80.294571     2Ap    -7.832617     1App   -5.729725  
       3Ap    -5.729725     4Ap    -5.716853     5Ap    -1.124019  
       6Ap    -0.847077     2App   -0.847077  

    Beta Virtual:                                                         

       7Ap    -0.256002     8Ap    -0.123089     3App   -0.086975  
       9Ap    -0.086974    10Ap    -0.073737     4App   -0.073737  
      11Ap    -0.046532    12Ap    -0.029014    13Ap     0.008827  
       5App    0.015361    14Ap     0.015361    15Ap     0.041444  
       6App    0.041444    16Ap     0.173713     7App    0.173714  
      17Ap     0.179539     8App    0.227050    18Ap     0.259789  
       9App    0.259789    19Ap     0.287124    20Ap     0.338602  
      21Ap     0.373552    10App    0.373552    11App    0.391748  
      22Ap     0.391748    23Ap     0.481010    24Ap     0.521447  
      25Ap     0.575998    12App    0.575998    26Ap     0.595300  
      13App    0.595300    27Ap     0.705489    14App    0.705489  
      28Ap     0.802760    29Ap     0.931641    15App    0.931642  
      30Ap     1.131677    16App    1.469721    17App    1.583854  
      31Ap     1.583854    32Ap     1.633607    18App    1.761517  
      33Ap     1.761518    34Ap     1.913676    35Ap     2.164819  
      19App    2.164819    20App    4.071084    36Ap     4.071085  
      37Ap     4.072686    38Ap     4.197286    21App    4.197287  

    Final Occupation by Irrep:
             Ap   App 
    DOCC [     6,    2 ]
    SOCC [     1,    0 ]

  Energy converged.

  @UHF Final Energy:  -342.16247244535606

   => Energetics <=

    Nuclear Repulsion Energy =             17.7809321703887342
    One-Electron Energy =                -502.7776116290219761
    Two-Electron Energy =                 142.8342070132771653
    PCM Polarization Energy =               0.0000000000000000
    Total Energy =                       -342.1624724453561157

    Alert: EFP and PCM quantities not currently incorporated into SCF psivars.
  UHF NO Occupations:
  HONO-2 :    2App 1.9996064
  HONO-1 :    6 Ap 1.9972381
  HONO-0 :    7 Ap 1.0000000
  LUNO+0 :    8 Ap 0.0027619
  LUNO+1 :    3App 0.0003936
  LUNO+2 :    9 Ap 0.0003936
  LUNO+3 :   10 Ap 0.0000012



Properties will be evaluated at   0.000000,   0.000000,   0.000000 Bohr

Properties computed using the SCF density matrix

  Nuclear Dipole Moment: (a.u.)
     X:    -0.9902      Y:    -0.0000      Z:     0.0000

  Electronic Dipole Moment: (a.u.)
     X:     0.8015      Y:     0.0000      Z:     0.0000

  Dipole Moment: (a.u.)
     X:    -0.1887      Y:     0.0000      Z:     0.0000     Total:     0.1887

  Dipole Moment: (Debye)
     X:    -0.4797      Y:     0.0000      Z:     0.0000     Total:     0.4797


*** tstop() called on cqc05 at Thu Aug 20 19:55:18 2020
Module time:
	user time   =       1.26 seconds =       0.02 minutes
	system time =       0.02 seconds =       0.00 minutes
	total time  =          1 seconds =       0.02 minutes
Total time:
	user time   =       1.26 seconds =       0.02 minutes
	system time =       0.02 seconds =       0.00 minutes
	total time  =          1 seconds =       0.02 minutes

*** tstart() called on cqc05
*** at Thu Aug 20 19:55:18 2020


	Wfn Parameters:
	--------------------
	Wavefunction         = CCSD
	Number of irreps     = 2
	Number of MOs        = 59
	Number of active MOs = 54
	AO-Basis             = NONE
	Semicanonical        = false
	Reference            = UHF
	Print Level          = 1

	IRREP	# MOs	# FZDC	# DOCC	# SOCC	# VIRT	# FZVR
	-----	-----	------	------	------	------	------
	 Ap	   38	    4	    2	    1	    31	    0
	 App	   21	    1	    1	    0	    19	    0
	Transforming integrals...
	IWL integrals will be deleted.
	(OO|OO)...
	Presorting SO-basis two-electron integrals.
	Sorting File: SO Ints (nn|nn) nbuckets = 1
	Transforming the one-electron integrals and constructing Fock matrices
	Starting AA/AB first half-transformation.
	Sorting AA/AB half-transformed integrals.
	Starting BB first half-transformation.
	Sorting BB half-transformed integrals.
	First half integral transformation complete.
	Starting AA second half-transformation.
	Starting AB second half-transformation.
	Starting BB second half-transformation.
	Two-electron integral transformation complete.
	(OO|OV)...
	Starting AA second half-transformation.
	Starting AB second half-transformation.
	Starting BB second half-transformation.
	Two-electron integral transformation complete.
	(OO|VV)...
	Starting AA second half-transformation.
	Starting AB second half-transformation.
	Starting BB second half-transformation.
	Two-electron integral transformation complete.
	(OV|OO)...
	Starting AA/AB first half-transformation.
	Sorting AA/AB half-transformed integrals.
	Starting BB first half-transformation.
	Sorting BB half-transformed integrals.
	First half integral transformation complete.
	Starting AA second half-transformation.
	Starting AB second half-transformation.
	Starting BB second half-transformation.
	Two-electron integral transformation complete.
	(OV|OV)...
	Starting AA second half-transformation.
	Starting AB second half-transformation.
	Starting BB second half-transformation.
	Two-electron integral transformation complete.
	(OV|VV)...
	Starting AA second half-transformation.
	Starting AB second half-transformation.
	Starting BB second half-transformation.
	Two-electron integral transformation complete.
	(VV|OO)...
	Starting AA/AB first half-transformation.
	Sorting AA/AB half-transformed integrals.
	Starting BB first half-transformation.
	Sorting BB half-transformed integrals.
	First half integral transformation complete.
	Starting AA second half-transformation.
	Starting AB second half-transformation.
	Starting BB second half-transformation.
	Two-electron integral transformation complete.
	(VV|OV)...
	Starting AA second half-transformation.
	Starting AB second half-transformation.
	Starting BB second half-transformation.
	Two-electron integral transformation complete.
	(VV|VV)...
	Starting AA second half-transformation.
	Starting AB second half-transformation.
	Starting BB second half-transformation.
	Two-electron integral transformation complete.
	Frozen core energy     =   -345.75430639269069

	Size of irrep 0 of <AB|CD> integrals:      0.404 (MW) /      3.236 (MB)
	Size of irrep 1 of <AB|CD> integrals:      0.347 (MW) /      2.775 (MB)
	Total:                                     0.751 (MW) /      6.011 (MB)

	Size of irrep 0 of <ab|cd> integrals:      0.445 (MW) /      3.559 (MB)
	Size of irrep 1 of <ab|cd> integrals:      0.370 (MW) /      2.957 (MB)
	Total:                                     0.815 (MW) /      6.516 (MB)

	Size of irrep 0 of <Ab|Cd> integrals:      1.831 (MW) /     14.645 (MB)
	Size of irrep 1 of <Ab|Cd> integrals:      1.433 (MW) /     11.462 (MB)
	Total:                                     3.263 (MW) /     26.107 (MB)

	Size of irrep 0 of <IA|BC> integrals:      0.148 (MW) /      1.185 (MB)
	Size of irrep 1 of <IA|BC> integrals:      0.104 (MW) /      0.829 (MB)
	Total:                                     0.252 (MW) /      2.014 (MB)

	Size of irrep 0 of <ia|bc> integrals:      0.115 (MW) /      0.920 (MB)
	Size of irrep 1 of <ia|bc> integrals:      0.085 (MW) /      0.681 (MB)
	Total:                                     0.200 (MW) /      1.601 (MB)

	Size of irrep 0 of <Ia|Bc> integrals:      0.156 (MW) /      1.245 (MB)
	Size of irrep 1 of <Ia|Bc> integrals:      0.107 (MW) /      0.852 (MB)
	Total:                                     0.262 (MW) /      2.097 (MB)

	Size of irrep 0 of <iA|bC> integrals:      0.110 (MW) /      0.877 (MB)
	Size of irrep 1 of <iA|bC> integrals:      0.083 (MW) /      0.661 (MB)
	Total:                                     0.192 (MW) /      1.537 (MB)

	Size of irrep 0 of tIjAb amplitudes:       0.009 (MW) /      0.076 (MB)
	Size of irrep 1 of tIjAb amplitudes:       0.006 (MW) /      0.048 (MB)
	Total:                                     0.015 (MW) /      0.124 (MB)

	Nuclear Rep. energy          =     17.78093217038873
	SCF energy                   =   -342.16247244535606
	One-electron energy          =    -21.94141950696352
	Two-electron (AA) energy     =      1.95070597539856
	Two-electron (BB) energy     =      0.91623725453643
	Two-electron (AB) energy     =      4.88537805397447
	Two-electron energy          =      7.75232128390946
	Reference energy             =   -342.16247244535600

*** tstop() called on cqc05 at Thu Aug 20 19:55:19 2020
Module time:
	user time   =       0.43 seconds =       0.01 minutes
	system time =       0.23 seconds =       0.00 minutes
	total time  =          1 seconds =       0.02 minutes
Total time:
	user time   =       1.70 seconds =       0.03 minutes
	system time =       0.25 seconds =       0.00 minutes
	total time  =          2 seconds =       0.03 minutes

*** tstart() called on cqc05
*** at Thu Aug 20 19:55:19 2020

            **************************
            *                        *
            *        CCENERGY        *
            *                        *
            **************************

    Nuclear Rep. energy (wfn)     =   17.780932170388734
    SCF energy          (wfn)     = -342.162472445356059
    Reference energy    (file100) = -342.162472445356002

    Input parameters:
    -----------------
    Wave function   =     CCSD
    Reference wfn   =     UHF
    Brueckner       =     No
    Memory (Mbytes) =     250000.0
    Maxiter         =     50
    R_Convergence   =     1.0e-07
    E_Convergence   =     1.0e-06
    Restart         =     Yes
    DIIS            =     Yes
    AO Basis        =     NONE
    ABCD            =     NEW
    Cache Level     =     2
    Cache Type      =     LRU
    Print Level     =     1
    Num. of threads =     4
    # Amps to Print =     10
    Print MP2 Amps? =     No
    Analyze T2 Amps =     No
    Print Pair Ener =     No
    Local CC        =     No
    SCS-MP2         =     False
    SCSN-MP2        =     False
    SCS-CCSD        =     False

MP2 correlation energy -0.1065509567873858
                Solving CC Amplitude Equations
                ------------------------------
  Iter             Energy              RMS        T1Diag      D1Diag    New D1Diag    D2Diag
  ----     ---------------------    ---------   ----------  ----------  ----------   --------
     0        -0.106550956787387    0.000e+00    0.000000    0.000000    0.000000    0.000000
     1        -0.126434970040100    5.165e-02    0.008650    0.000000    0.000000    0.000000
     2        -0.133642468168964    1.918e-02    0.014639    0.000000    0.000000    0.000000
     3        -0.133921243113323    5.163e-03    0.016818    0.000000    0.000000    0.000000
     4        -0.133939122817011    1.634e-03    0.017348    0.000000    0.000000    0.000000
     5        -0.133934385362178    6.744e-04    0.017529    0.000000    0.000000    0.000000
     6        -0.133935120146662    2.195e-04    0.017543    0.000000    0.000000    0.000000
     7        -0.133938564917625    6.094e-05    0.017542    0.000000    0.000000    0.000000
     8        -0.133938553102843    1.834e-05    0.017541    0.000000    0.000000    0.000000
     9        -0.133938415842594    5.471e-06    0.017541    0.000000    0.000000    0.000000
    10        -0.133938390778430    1.852e-06    0.017541    0.000000    0.000000    0.000000
    11        -0.133938399956748    4.661e-07    0.017541    0.000000    0.000000    0.000000
    12        -0.133938396157516    1.447e-07    0.017541    0.000000    0.000000    0.000000
    13        -0.133938392784967    5.303e-08    0.017541    0.000000    0.000000    0.000000
    13        -0.133938392784967    5.303e-08    0.017541    0.000000    0.000000    0.000000

    Iterations converged.


    CCSD corr. energy   =   -0.133938392784967
    PPL corr. energy    =    0.035386138108392
    OS PPL corr. energy =    0.031765179901164
    SS PPL corr. energy =    0.003620958207226
    Largest TIA Amplitudes:
              2   3        -0.0179185693
              2   4         0.0102013938
              2   8        -0.0093923874
              3  31        -0.0093715203
              1   1        -0.0093714803
              2   0        -0.0083519786
              3  43        -0.0077434592
              1  21        -0.0077434521
              2  20         0.0058040543
              3  35        -0.0043890276

    Largest Tia Amplitudes:
              0   0        -0.0118333819
              2  32         0.0117769117
              1   2         0.0117768639
              0   5         0.0112323572
              0   4         0.0085158201
              1  22        -0.0071496829
              2  44        -0.0071496804
              0   1         0.0063592750
              2  34        -0.0062806771
              1   7        -0.0062806600

    Largest TIJAB Amplitudes:
      3   2  33   3         0.0211553784
      2   1   6   3        -0.0211551863
      3   2  31   6         0.0177345981
      2   1   6   1        -0.0177345807
      2   1  33  31         0.0177344724
      3   2  33   1        -0.0177343291
      3   1  31   1         0.0167247084
      3   2  33   4        -0.0151663329
      2   1   6   4         0.0151662841
      2   1   3   1         0.0148881069

    Largest Tijab Amplitudes:
      2   1  32   2         0.0169172714
      2   1  32   7        -0.0120064855
      2   1  34   2        -0.0120064303
      2   0  35   0        -0.0113981424
      1   0   8   0        -0.0113981346
      2   1  35   8        -0.0088828394
      2   1  32  15        -0.0075262631
      2   1  40   2        -0.0075261999
      2   1  36   7         0.0063820510
      2   1  34   9         0.0063820471

    Largest TIjAb Amplitudes:
      2   0   3   0         0.0391271314
      3   2  31  32         0.0363305419
      1   1   1   2         0.0363305100
      3   0  33   0        -0.0264035859
      1   0   6   0        -0.0264035409
      1   1  31  32         0.0252826154
      3   2   1   2         0.0252823719
      2   0   4   0        -0.0246330039
      3   2  33  35        -0.0237353546
      1   1   6   8        -0.0237352931

    SCF energy       (wfn)                    = -342.162472445356059
    Reference energy (file100)                = -342.162472445356002

    Opposite-spin MP2 correlation energy      =   -0.090230924652049
    Same-spin MP2 correlation energy          =   -0.016320032135317
    MP2 correlation energy                    =   -0.106550956787386
      * MP2 total energy                      = -342.269023402143375

    Opposite-spin CCSD correlation energy     =   -0.115408553976919
    Same-spin CCSD correlation energy         =   -0.018529839918602
    CCSD correlation energy                   =   -0.133938392784967
      * CCSD total energy                     = -342.296410838140957


*** tstop() called on cqc05 at Thu Aug 20 19:55:20 2020
Module time:
	user time   =       0.63 seconds =       0.01 minutes
	system time =       0.25 seconds =       0.00 minutes
	total time  =          1 seconds =       0.02 minutes
Total time:
	user time   =       2.33 seconds =       0.04 minutes
	system time =       0.50 seconds =       0.01 minutes
	total time  =          3 seconds =       0.05 minutes

*** Psi4 exiting successfully. Buy a developer a beer!
