
    -----------------------------------------------------------------------
          Psi4: An Open-Source Ab Initio Electronic Structure Package
                               Psi4 1.2a1.dev938 

                         Git: Rev {HEAD} fc51d9a dirty


    R. M. Parrish, L. A. Burns, D. G. A. Smith, A. C. Simmonett,
    A. E. DePrince III, E. G. Hohenstein, U. Bozkaya, A. Yu. Sokolov,
    R. Di Remigio, R. M. Richard, J. F. Gonthier, A. M. James,
    H. R. McAlexander, A. Kumar, M. Saitow, X. Wang, B. P. Pritchard,
    P. Verma, H. F. Schaefer III, K. Patkowski, R. A. King, E. F. Valeev,
    F. A. Evangelista, J. M. Turney, T. D. Crawford, and C. D. Sherrill,
    J. Chem. Theory Comput. 13(7) pp 3185--3197 (2017).
    (doi: 10.1021/acs.jctc.7b00174)

    -----------------------------------------------------------------------


    Psi4 started on: Thursday, 20 August 2020 08:02PM

    Process ID: 423509
    PSIDATADIR: /home/irmler/Programs/psi4/beforeGrueneis3/stage/usr/local/psi4/share/psi4
    Memory:     500.0 MiB
    Threads:    4
    
  ==> Input File <==

--------------------------------------------------------------------------
# Any line starting with the # character is a comment line
memory 250000 mb
molecule molecule{
-1 2
N          0.0000000000        0.0000000000        0.0696479824
H          0.0000000000        0.0000000000       -0.9678536371
}

set {
  reference uhf
  basis aug-cc-pv(t+d)z
  scf_type OUT_OF_CORE
  freeze_core true
}

energy('ccsd')
--------------------------------------------------------------------------

  Memory set to 232.831 GiB by Python driver.

*** tstart() called on cqc05
*** at Thu Aug 20 20:02:05 2020

   => Loading Basis Set <=

    Name: AUG-CC-PV(T+D)Z
    Role: ORBITAL
    Keyword: BASIS
    atoms 1 entry N          line   301 file /home/irmler/Programs/psi4/beforeGrueneis3/stage/usr/local/psi4/share/psi4/basis/aug-cc-pv_tpd_z.gbs 
    atoms 2 entry H          line    56 file /home/irmler/Programs/psi4/beforeGrueneis3/stage/usr/local/psi4/share/psi4/basis/aug-cc-pv_tpd_z.gbs 


         ---------------------------------------------------------
                                   SCF
            by Justin Turney, Rob Parrish, Andy Simmonett
                             and Daniel Smith
                              UHF Reference
                        4 Threads, 238418 MiB Core
         ---------------------------------------------------------

  ==> Geometry <==

    Molecular point group: c2v
    Full point group: C_inf_v

    Geometry (in Angstrom), charge = -1, multiplicity = 2:

       Center              X                  Y                   Z               Mass       
    ------------   -----------------  -----------------  -----------------  -----------------
           N          0.000000000000     0.000000000000     0.069657393630    14.003074004780
           H          0.000000000000     0.000000000000    -0.967844225870     1.007825032070

  Running in c2v symmetry.

  Rotational constants: A = ************  B =     16.65778  C =     16.65778 [cm^-1]
  Rotational constants: A = ************  B = 499387.66190  C = 499387.66190 [MHz]
  Nuclear repulsion =    3.570346677545596

  Charge       = -1
  Multiplicity = 2
  Electrons    = 9
  Nalpha       = 5
  Nbeta        = 4

  ==> Algorithm <==

  SCF Algorithm Type is OUT_OF_CORE.
  DIIS enabled.
  MOM disabled.
  Fractional occupation disabled.
  Guess Type is GWH.
  Energy threshold   = 1.00e-08
  Density threshold  = 1.00e-08
  Integral threshold = 0.00e+00

  ==> Primary Basis <==

  Basis Set: AUG-CC-PV(T+D)Z
    Blend: AUG-CC-PV(T+D)Z
    Number of shells: 23
    Number of basis function: 69
    Number of Cartesian functions: 80
    Spherical Harmonics?: true
    Max angular momentum: 3

  ==> Pre-Iterations <==

   -------------------------------------------------------
    Irrep   Nso     Nmo     Nalpha   Nbeta   Ndocc  Nsocc
   -------------------------------------------------------
     A1        30      30       0       0       0       0
     A2         7       7       0       0       0       0
     B1        16      16       0       0       0       0
     B2        16      16       0       0       0       0
   -------------------------------------------------------
    Total      69      69       5       4       4       1
   -------------------------------------------------------

  ==> Integral Setup <==

  ==> DiskJK: Disk-Based J/K Matrices <==

    J tasked:                  Yes
    K tasked:                  Yes
    wK tasked:                  No
    Memory (MB):            178813
    Schwarz Cutoff:          1E-12

  Minimum eigenvalue in the overlap matrix is 4.7683115485E-04.
  Using Symmetric Orthogonalization.

  SCF Guess: Generalized Wolfsberg-Helmholtz.

  ==> Iterations <==

                        Total Energy        Delta E     RMS |[F,P]|

    Occupation by irrep:
             A1    A2    B1    B2 
    DOCC [     4,    0,    0,    0 ]
    SOCC [     0,    0,    1,    0 ]

   @UHF iter   1:   -49.24000274931672   -4.92400e+01   1.80757e-01 
    Occupation by irrep:
             A1    A2    B1    B2 
    DOCC [     3,    0,    0,    1 ]
    SOCC [     0,    0,    1,    0 ]

   @UHF iter   2:   -49.21939803346095    2.06047e-02   7.60113e-02 DIIS
   @UHF iter   3:   -52.94019273331286   -3.72079e+00   8.74851e-02 DIIS
   @UHF iter   4:   -54.20744310455390   -1.26725e+00   4.74364e-02 DIIS
   @UHF iter   5:   -54.86635692659767   -6.58914e-01   1.11157e-02 DIIS
   @UHF iter   6:   -54.92564894350939   -5.92920e-02   2.08240e-03 DIIS
   @UHF iter   7:   -54.92747955809216   -1.83061e-03   1.06396e-03 DIIS
   @UHF iter   8:   -54.92813894032972   -6.59382e-04   3.38104e-04 DIIS
   @UHF iter   9:   -54.92838235849559   -2.43418e-04   2.04710e-04 DIIS
   @UHF iter  10:   -54.92856888809010   -1.86530e-04   1.27305e-04 DIIS
   @UHF iter  11:   -54.92869903200427   -1.30144e-04   6.64747e-05 DIIS
   @UHF iter  12:   -54.92871192289555   -1.28909e-05   1.80582e-05 DIIS
   @UHF iter  13:   -54.92871224841966   -3.25524e-07   4.16385e-06 DIIS
   @UHF iter  14:   -54.92871227940059   -3.09809e-08   1.55307e-06 DIIS
   @UHF iter  15:   -54.92871228402377   -4.62318e-09   7.19344e-07 DIIS
   @UHF iter  16:   -54.92871228477435   -7.50575e-10   2.70393e-07 DIIS
   @UHF iter  17:   -54.92871228493019   -1.55843e-10   8.35333e-08 DIIS
   @UHF iter  18:   -54.92871228494376   -1.35714e-11   2.39696e-08 DIIS
   @UHF iter  19:   -54.92871228494452   -7.53175e-13   8.07271e-09 DIIS

  ==> Post-Iterations <==

   @Spin Contamination Metric:   6.080734110E-02
   @S^2 Expected:                7.500000000E-01
   @S^2 Observed:                8.108073411E-01
   @S   Expected:                5.000000000E-01
   @S   Observed:                5.000000000E-01

    Orbital Energies (a.u.)
    -----------------------

    Alpha Occupied:                                                       

       1A1   -15.266594     2A1    -0.770523     3A1    -0.226836  
       1B1    -0.167637     1B2    -0.099110  

    Alpha Virtual:                                                        

       4A1     0.167318     5A1     0.300348     2B1     0.308266  
       2B2     0.321958     6A1     0.357129     7A1     0.451353  
       3B1     0.467402     3B2     0.478338     8A1     0.646180  
       9A1     0.713504     1A2     0.715279    10A1     0.754676  
       4B1     0.798608     4B2     0.816157     5B1     1.029633  
      11A1     1.038220     5B2     1.060360    12A1     1.077534  
       2A2     1.177869    13A1     1.178106     6B1     1.207920  
       6B2     1.226871    14A1     1.253421    15A1     1.613069  
       7B1     1.616592     7B2     1.640663     8B1     1.808530  
       8B2     1.808553     3A2     1.864093    16A1     1.864888  
      17A1     1.985069     9B1     2.002410     9B2     2.027327  
       4A2     2.069994    18A1     2.071810    19A1     2.406735  
      10B1     2.495373    20A1     2.504478    10B2     2.527572  
      21A1     3.533919    11B1     3.783872    11B2     3.825870  
       5A2     4.226865    22A1     4.226942    23A1     4.316442  
      12B1     4.392920    12B2     4.411877    24A1     4.888133  
      13B1     5.025121    13B2     5.045191    14B1     5.228709  
      14B2     5.228773    25A1     5.262421     6A2     5.404930  
      26A1     5.406743     7A2     5.463568    27A1     5.465191  
      15B1     5.618578    15B2     5.657043    16B1     6.266462  
      16B2     6.296153    28A1     6.382154    29A1     6.643875  
      30A1    12.091224  

    Beta Occupied:                                                        

       1A1   -15.231420     2A1    -0.627008     3A1    -0.179451  
       1B2    -0.003727  

    Beta Virtual:                                                         

       4A1     0.166185     1B1     0.280942     5A1     0.301164  
       2B2     0.335039     6A1     0.359265     2B1     0.429859  
       7A1     0.452613     3B2     0.479875     3B1     0.533056  
       8A1     0.658192     9A1     0.725360     1A2     0.725727  
      10A1     0.757190     4B2     0.812372     4B1     0.818550  
      11A1     1.045205     5B2     1.087153    12A1     1.092929  
       5B1     1.117932     2A2     1.179844    13A1     1.179851  
       6B2     1.233022     6B1     1.244185    14A1     1.266555  
      15A1     1.636581     7B2     1.649615     7B1     1.658079  
       8B2     1.826765     8B1     1.826769     3A2     1.934756  
      16A1     1.934947    17A1     1.996956     9B1     2.023664  
       9B2     2.029761     4A2     2.086315    18A1     2.086828  
      19A1     2.428724    20A1     2.525871    10B1     2.543396  
      10B2     2.543552    21A1     3.538745    11B2     3.863876  
      11B1     3.881090     5A2     4.231687    22A1     4.231695  
      23A1     4.332614    12B1     4.407600    12B2     4.414266  
      24A1     4.911628    13B1     5.042170    13B2     5.050712  
      14B1     5.281706    14B2     5.281706    25A1     5.291347  
       6A2     5.492329    26A1     5.492433     7A2     5.500131  
      27A1     5.500261    15B1     5.681950    15B2     5.683994  
      16B1     6.300344    16B2     6.310280    28A1     6.396919  
      29A1     6.661997    30A1    12.118018  

    Final Occupation by Irrep:
             A1    A2    B1    B2 
    DOCC [     3,    0,    0,    1 ]
    SOCC [     0,    0,    1,    0 ]

  Energy converged.

  @UHF Final Energy:   -54.92871228494452

   => Energetics <=

    Nuclear Repulsion Energy =              3.5703466775455959
    One-Electron Energy =                 -84.4258145638842450
    Two-Electron Energy =                  25.9267556013941274
    Total Energy =                        -54.9287122849445169


  UHF NO Occupations:
  HONO-2 :    3 A1 1.9963543
  HONO-1 :    1 B2 1.9745902
  HONO-0 :    1 B1 1.0000000
  LUNO+0 :    2 B2 0.0254098
  LUNO+1 :    4 A1 0.0036457
  LUNO+2 :    5 A1 0.0016779
  LUNO+3 :    6 A1 0.0000011



Properties will be evaluated at   0.000000,   0.000000,   0.000000 Bohr

Properties computed using the SCF density matrix

  Nuclear Dipole Moment: (a.u.)
     X:     0.0000      Y:     0.0000      Z:    -0.9075

  Electronic Dipole Moment: (a.u.)
     X:     0.0000      Y:     0.0000      Z:     0.4060

  Dipole Moment: (a.u.)
     X:     0.0000      Y:     0.0000      Z:    -0.5015     Total:     0.5015

  Dipole Moment: (Debye)
     X:     0.0000      Y:     0.0000      Z:    -1.2747     Total:     1.2747


*** tstop() called on cqc05 at Thu Aug 20 20:02:06 2020
Module time:
	user time   =       1.39 seconds =       0.02 minutes
	system time =       0.06 seconds =       0.00 minutes
	total time  =          1 seconds =       0.02 minutes
Total time:
	user time   =       1.39 seconds =       0.02 minutes
	system time =       0.06 seconds =       0.00 minutes
	total time  =          1 seconds =       0.02 minutes

*** tstart() called on cqc05
*** at Thu Aug 20 20:02:06 2020


	Wfn Parameters:
	--------------------
	Wavefunction         = CCSD
	Number of irreps     = 4
	Number of MOs        = 69
	Number of active MOs = 68
	AO-Basis             = NONE
	Semicanonical        = false
	Reference            = UHF
	Print Level          = 1

	IRREP	# MOs	# FZDC	# DOCC	# SOCC	# VIRT	# FZVR
	-----	-----	------	------	------	------	------
	 A1	   30	    1	    2	    0	    27	    0
	 A2	   7	    0	    0	    0	    7	    0
	 B1	   16	    0	    0	    1	    15	    0
	 B2	   16	    0	    1	    0	    15	    0
	Transforming integrals...
	IWL integrals will be deleted.
	(OO|OO)...
	Presorting SO-basis two-electron integrals.
	Sorting File: SO Ints (nn|nn) nbuckets = 1
	Transforming the one-electron integrals and constructing Fock matrices
	Starting AA/AB first half-transformation.
	Sorting AA/AB half-transformed integrals.
	Starting BB first half-transformation.
	Sorting BB half-transformed integrals.
	First half integral transformation complete.
	Starting AA second half-transformation.
	Starting AB second half-transformation.
	Starting BB second half-transformation.
	Two-electron integral transformation complete.
	(OO|OV)...
	Starting AA second half-transformation.
	Starting AB second half-transformation.
	Starting BB second half-transformation.
	Two-electron integral transformation complete.
	(OO|VV)...
	Starting AA second half-transformation.
	Starting AB second half-transformation.
	Starting BB second half-transformation.
	Two-electron integral transformation complete.
	(OV|OO)...
	Starting AA/AB first half-transformation.
	Sorting AA/AB half-transformed integrals.
	Starting BB first half-transformation.
	Sorting BB half-transformed integrals.
	First half integral transformation complete.
	Starting AA second half-transformation.
	Starting AB second half-transformation.
	Starting BB second half-transformation.
	Two-electron integral transformation complete.
	(OV|OV)...
	Starting AA second half-transformation.
	Starting AB second half-transformation.
	Starting BB second half-transformation.
	Two-electron integral transformation complete.
	(OV|VV)...
	Starting AA second half-transformation.
	Starting AB second half-transformation.
	Starting BB second half-transformation.
	Two-electron integral transformation complete.
	(VV|OO)...
	Starting AA/AB first half-transformation.
	Sorting AA/AB half-transformed integrals.
	Starting BB first half-transformation.
	Sorting BB half-transformed integrals.
	First half integral transformation complete.
	Starting AA second half-transformation.
	Starting AB second half-transformation.
	Starting BB second half-transformation.
	Two-electron integral transformation complete.
	(VV|OV)...
	Starting AA second half-transformation.
	Starting AB second half-transformation.
	Starting BB second half-transformation.
	Two-electron integral transformation complete.
	(VV|VV)...
	Starting AA second half-transformation.
	Starting AB second half-transformation.
	Starting BB second half-transformation.
	Two-electron integral transformation complete.
	Frozen core energy     =    -45.75281431911063

	Size of irrep 0 of <AB|CD> integrals:      0.339 (MW) /      2.710 (MB)
	Size of irrep 1 of <AB|CD> integrals:      0.171 (MW) /      1.371 (MB)
	Size of irrep 2 of <AB|CD> integrals:      0.260 (MW) /      2.081 (MB)
	Size of irrep 3 of <AB|CD> integrals:      0.260 (MW) /      2.081 (MB)
	Total:                                     1.030 (MW) /      8.243 (MB)

	Size of irrep 0 of <ab|cd> integrals:      0.356 (MW) /      2.851 (MB)
	Size of irrep 1 of <ab|cd> integrals:      0.184 (MW) /      1.472 (MB)
	Size of irrep 2 of <ab|cd> integrals:      0.288 (MW) /      2.307 (MB)
	Size of irrep 3 of <ab|cd> integrals:      0.267 (MW) /      2.138 (MB)
	Total:                                     1.096 (MW) /      8.769 (MB)

	Size of irrep 0 of <Ab|Cd> integrals:      1.545 (MW) /     12.360 (MB)
	Size of irrep 1 of <Ab|Cd> integrals:      0.711 (MW) /      5.685 (MB)
	Size of irrep 2 of <Ab|Cd> integrals:      1.096 (MW) /      8.770 (MB)
	Size of irrep 3 of <Ab|Cd> integrals:      1.055 (MW) /      8.438 (MB)
	Total:                                     4.407 (MW) /     35.253 (MB)

	Size of irrep 0 of <IA|BC> integrals:      0.103 (MW) /      0.825 (MB)
	Size of irrep 1 of <IA|BC> integrals:      0.036 (MW) /      0.291 (MB)
	Size of irrep 2 of <IA|BC> integrals:      0.065 (MW) /      0.522 (MB)
	Size of irrep 3 of <IA|BC> integrals:      0.065 (MW) /      0.522 (MB)
	Total:                                     0.270 (MW) /      2.161 (MB)

	Size of irrep 0 of <ia|bc> integrals:      0.087 (MW) /      0.695 (MB)
	Size of irrep 1 of <ia|bc> integrals:      0.026 (MW) /      0.206 (MB)
	Size of irrep 2 of <ia|bc> integrals:      0.042 (MW) /      0.335 (MB)
	Size of irrep 3 of <ia|bc> integrals:      0.059 (MW) /      0.472 (MB)
	Total:                                     0.213 (MW) /      1.707 (MB)

	Size of irrep 0 of <Ia|Bc> integrals:      0.106 (MW) /      0.845 (MB)
	Size of irrep 1 of <Ia|Bc> integrals:      0.038 (MW) /      0.303 (MB)
	Size of irrep 2 of <Ia|Bc> integrals:      0.069 (MW) /      0.553 (MB)
	Size of irrep 3 of <Ia|Bc> integrals:      0.066 (MW) /      0.526 (MB)
	Total:                                     0.278 (MW) /      2.227 (MB)

	Size of irrep 0 of <iA|bC> integrals:      0.086 (MW) /      0.686 (MB)
	Size of irrep 1 of <iA|bC> integrals:      0.024 (MW) /      0.196 (MB)
	Size of irrep 2 of <iA|bC> integrals:      0.039 (MW) /      0.310 (MB)
	Size of irrep 3 of <iA|bC> integrals:      0.059 (MW) /      0.468 (MB)
	Total:                                     0.207 (MW) /      1.660 (MB)

	Size of irrep 0 of tIjAb amplitudes:       0.006 (MW) /      0.050 (MB)
	Size of irrep 1 of tIjAb amplitudes:       0.001 (MW) /      0.007 (MB)
	Size of irrep 2 of tIjAb amplitudes:       0.002 (MW) /      0.017 (MB)
	Size of irrep 3 of tIjAb amplitudes:       0.004 (MW) /      0.033 (MB)
	Total:                                     0.013 (MW) /      0.106 (MB)

	Nuclear Rep. energy          =      3.57034667754560
	SCF energy                   =    -54.92871228494452
	One-electron energy          =    -23.41819898183405
	Two-electron (AA) energy     =      2.92927572049239
	Two-electron (BB) energy     =      1.25942300487293
	Two-electron (AB) energy     =      6.48325561308912
	Two-electron energy          =     10.67195433845444
	Reference energy             =    -54.92871228494464

*** tstop() called on cqc05 at Thu Aug 20 20:02:07 2020
Module time:
	user time   =       0.48 seconds =       0.01 minutes
	system time =       0.26 seconds =       0.00 minutes
	total time  =          1 seconds =       0.02 minutes
Total time:
	user time   =       1.87 seconds =       0.03 minutes
	system time =       0.32 seconds =       0.01 minutes
	total time  =          2 seconds =       0.03 minutes

*** tstart() called on cqc05
*** at Thu Aug 20 20:02:07 2020

            **************************
            *                        *
            *        CCENERGY        *
            *                        *
            **************************

    Nuclear Rep. energy (wfn)     =    3.570346677545596
    SCF energy          (wfn)     =  -54.928712284944517
    Reference energy    (file100) =  -54.928712284944638

    Input parameters:
    -----------------
    Wave function   =     CCSD
    Reference wfn   =     UHF
    Brueckner       =     No
    Memory (Mbytes) =     250000.0
    Maxiter         =     50
    R_Convergence   =     1.0e-07
    E_Convergence   =     1.0e-06
    Restart         =     Yes
    DIIS            =     Yes
    AO Basis        =     NONE
    ABCD            =     NEW
    Cache Level     =     2
    Cache Type      =     LRU
    Print Level     =     1
    Num. of threads =     4
    # Amps to Print =     10
    Print MP2 Amps? =     No
    Analyze T2 Amps =     No
    Print Pair Ener =     No
    Local CC        =     No
    SCS-MP2         =     False
    SCSN-MP2        =     False
    SCS-CCSD        =     False

MP2 correlation energy -0.2028223675356089
                Solving CC Amplitude Equations
                ------------------------------
  Iter             Energy              RMS        T1Diag      D1Diag    New D1Diag    D2Diag
  ----     ---------------------    ---------   ----------  ----------  ----------   --------
     0        -0.202822367535619    0.000e+00    0.000000    0.000000    0.000000    0.000000
     1        -0.207224235831577    6.748e-02    0.020705    0.000000    0.000000    0.000000
     2        -0.212712295408250    2.737e-02    0.024241    0.000000    0.000000    0.000000
     3        -0.215499714412773    1.919e-02    0.033990    0.000000    0.000000    0.000000
     4        -0.215532960777957    9.007e-03    0.039468    0.000000    0.000000    0.000000
     5        -0.215506128302350    4.490e-03    0.042402    0.000000    0.000000    0.000000
     6        -0.215563100390929    1.905e-03    0.043047    0.000000    0.000000    0.000000
     7        -0.215580202879916    9.865e-04    0.043182    0.000000    0.000000    0.000000
     8        -0.215587186330112    4.603e-04    0.043171    0.000000    0.000000    0.000000
     9        -0.215597121088970    2.195e-04    0.043182    0.000000    0.000000    0.000000
    10        -0.215592506717745    1.052e-04    0.043180    0.000000    0.000000    0.000000
    11        -0.215593398835208    4.261e-05    0.043168    0.000000    0.000000    0.000000
    12        -0.215593607780713    1.743e-05    0.043171    0.000000    0.000000    0.000000
    13        -0.215593928247592    6.930e-06    0.043170    0.000000    0.000000    0.000000
    14        -0.215594140396201    2.710e-06    0.043171    0.000000    0.000000    0.000000
    15        -0.215594157533950    9.754e-07    0.043171    0.000000    0.000000    0.000000
    16        -0.215594152458912    5.027e-07    0.043171    0.000000    0.000000    0.000000
    17        -0.215594153499445    2.602e-07    0.043171    0.000000    0.000000    0.000000
    18        -0.215594151042838    1.109e-07    0.043171    0.000000    0.000000    0.000000
    19        -0.215594150648483    4.055e-08    0.043171    0.000000    0.000000    0.000000
    19        -0.215594150648483    4.055e-08    0.043171    0.000000    0.000000    0.000000

    Iterations converged.


    CCSD corr. energy   =   -0.215594150648483
    PPL corr. energy    =    0.053547710113233
    OS PPL corr. energy =    0.045215048880918
    SS PPL corr. energy =    0.008332661232314
    Largest TIA Amplitudes:
              3  49        -0.0707919268
              2  34        -0.0493055172
              3  50        -0.0313560767
              2  35        -0.0251254807
              1   1         0.0142933155
              1   3        -0.0120550854
              0   2        -0.0101119841
              3  52        -0.0094586139
              2  37        -0.0088904582
              1   2         0.0071655336

    Largest Tia Amplitudes:
              2  50         0.0364498728
              2  53         0.0223644634
              2  54         0.0152893205
              2  51         0.0115218563
              2  52         0.0096980665
              1   8         0.0089224857
              0   4         0.0088581928
              2  59         0.0078585323
              0  10         0.0076090860
              0   6        -0.0071916434

    Largest TIJAB Amplitudes:
      3   2  49  34        -0.0211405019
      3   2  52  37        -0.0198638023
      3   2  49  37        -0.0179581724
      2   1  37   8        -0.0177574930
      3   2  29  12         0.0171876114
      3   2  27   5        -0.0167814666
      3   1  52   8        -0.0165105851
      3   2  52  34        -0.0148141316
      3   1  51   6        -0.0146641555
      3   1  49   8        -0.0136154710

    Largest Tijab Amplitudes:
      2   1  50   1         0.0193656004
      2   1  51   3        -0.0183560793
      2   1  50   8        -0.0162962804
      2   1  50   3        -0.0159861178
      2   1  53   8        -0.0153224935
      2   1  52   6        -0.0136327219
      2   1  51   8        -0.0116089144
      2   1  53   3        -0.0114916506
      2   1  50   4        -0.0104277759
      2   0  36  27        -0.0103750350

    Largest TIjAb Amplitudes:
      3   2  49  50        -0.0730584524
      3   2  52  50        -0.0409938196
      3   2  52  53        -0.0404814767
      2   2  34  50        -0.0403946952
      1   1   8   8        -0.0393791577
      3   2  49  53        -0.0392992013
      3   2  49  51        -0.0389032961
      3   2  50  50        -0.0343741536
      2   2  49  36        -0.0331146788
      3   2  50  51        -0.0305843433

    SCF energy       (wfn)                    =  -54.928712284944517
    Reference energy (file100)                =  -54.928712284944638

    Opposite-spin MP2 correlation energy      =   -0.154997385681891
    Same-spin MP2 correlation energy          =   -0.047824981853589
    MP2 correlation energy                    =   -0.202822367535609
      * MP2 total energy                      =  -55.131534652480248

    Opposite-spin CCSD correlation energy     =   -0.172527097920168
    Same-spin CCSD correlation energy         =   -0.043067036576426
    CCSD correlation energy                   =   -0.215594150648483
      * CCSD total energy                     =  -55.144306435593123


*** tstop() called on cqc05 at Thu Aug 20 20:02:10 2020
Module time:
	user time   =       0.82 seconds =       0.01 minutes
	system time =       0.52 seconds =       0.01 minutes
	total time  =          3 seconds =       0.05 minutes
Total time:
	user time   =       2.69 seconds =       0.04 minutes
	system time =       0.84 seconds =       0.01 minutes
	total time  =          5 seconds =       0.08 minutes

*** Psi4 exiting successfully. Buy a developer a beer!
