
    -----------------------------------------------------------------------
          Psi4: An Open-Source Ab Initio Electronic Structure Package
                               Psi4 1.4a3.dev88 

                         Git: Rev {master} 262e345 


    D. G. A. Smith, L. A. Burns, A. C. Simmonett, R. M. Parrish,
    M. C. Schieber, R. Galvelis, P. Kraus, H. Kruse, R. Di Remigio,
    A. Alenaizan, A. M. James, S. Lehtola, J. P. Misiewicz, M. Scheurer,
    R. A. Shaw, J. B. Schriber, Y. Xie, Z. L. Glick, D. A. Sirianni,
    J. S. O'Brien, J. M. Waldrop, A. Kumar, E. G. Hohenstein,
    B. P. Pritchard, B. R. Brooks, H. F. Schaefer III, A. Yu. Sokolov,
    K. Patkowski, A. E. DePrince III, U. Bozkaya, R. A. King,
    F. A. Evangelista, J. M. Turney, T. D. Crawford, C. D. Sherrill,
    J. Chem. Phys. 152(18) 184108 (2020). https://doi.org/10.1063/5.0006002

                            Additional Code Authors
    E. T. Seidl, C. L. Janssen, E. F. Valeev, M. L. Leininger,
    J. F. Gonthier, R. M. Richard, H. R. McAlexander, M. Saitow, X. Wang,
    P. Verma, and M. H. Lechner

             Previous Authors, Complete List of Code Contributors,
                       and Citations for Specific Modules
    https://github.com/psi4/psi4/blob/master/codemeta.json
    https://github.com/psi4/psi4/graphs/contributors
    http://psicode.org/psi4manual/master/introduction.html#citing-psifour

    -----------------------------------------------------------------------


    Psi4 started on: Tuesday, 26 January 2021 06:06PM

    Process ID: 402338
    Host:       n412-040.vsc4.prov
    PSIDATADIR: /home/fs71337/gallo4/psi4/eri-6/psi4/build/stage/share/psi4
    Memory:     500.0 MiB
    Threads:    48
    
  ==> Input File <==

--------------------------------------------------------------------------
# Any line starting with the # character is a comment line
memory 250000 mb
molecule molecule{
0 3
C          0.0000000000        0.0000000000        0.0617255210
H          0.0000000000       -0.9845498409       -0.3677725027
H          0.0000000000        0.9845498409       -0.3677725027
}

set {
  reference uhf
  basis aug-cc-pV(t+d)Z
  scf_type OUT_OF_CORE
  freeze_core true
}

energy('ccsd(t)')
--------------------------------------------------------------------------

  Memory set to 232.831 GiB by Python driver.

Scratch directory: /binfl/lv71337/airmler/temp/

*** tstart() called on n412-040.vsc4.prov
*** at Tue Jan 26 18:06:28 2021

   => Loading Basis Set <=

    Name: AUG-CC-PV(T+D)Z
    Role: ORBITAL
    Keyword: BASIS
    atoms 1   entry C          line   267 file /home/fs71337/gallo4/psi4/eri-6/psi4/build/stage/share/psi4/basis/aug-cc-pv_tpd_z.gbs 
    atoms 2-3 entry H          line    68 file /home/fs71337/gallo4/psi4/eri-6/psi4/build/stage/share/psi4/basis/aug-cc-pv_tpd_z.gbs 


         ---------------------------------------------------------
                                   SCF
               by Justin Turney, Rob Parrish, Andy Simmonett
                          and Daniel G. A. Smith
                              UHF Reference
                       48 Threads, 238418 MiB Core
         ---------------------------------------------------------

  ==> Geometry <==

    Molecular point group: c2v
    Full point group: C2v

    Geometry (in Angstrom), charge = 0, multiplicity = 3:

       Center              X                  Y                   Z               Mass       
    ------------   -----------------  -----------------  -----------------  -----------------
         C            0.000000000000     0.000000000000     0.061767931931    12.000000000000
         H            0.000000000000    -0.984549840900    -0.367730091769     1.007825032230
         H           -0.000000000000     0.984549840900    -0.367730091769     1.007825032230

  Running in c2v symmetry.

  Rotational constants: A =     52.95305  B =      8.62792  C =      7.41909 [cm^-1]
  Rotational constants: A = 1587492.64789  B = 258658.43758  C = 222418.61525 [MHz]
  Nuclear repulsion =    6.180487221318133

  Charge       = 0
  Multiplicity = 3
  Electrons    = 8
  Nalpha       = 5
  Nbeta        = 3

  ==> Algorithm <==

  SCF Algorithm Type is OUT_OF_CORE.
  DIIS enabled.
  MOM disabled.
  Fractional occupation disabled.
  Guess Type is SAD.
  Energy threshold   = 1.00e-08
  Density threshold  = 1.00e-08
  Integral threshold = 1.00e-12

  ==> Primary Basis <==

  Basis Set: AUG-CC-PV(T+D)Z
    Blend: AUG-CC-PV(T+D)Z
    Number of shells: 32
    Number of basis function: 92
    Number of Cartesian functions: 105
    Spherical Harmonics?: true
    Max angular momentum: 3

  ==> Integral Setup <==

  ==> DiskJK: Disk-Based J/K Matrices <==

    J tasked:                  Yes
    K tasked:                  Yes
    wK tasked:                  No
    Memory [MiB]:           178813
    Schwarz Cutoff:          1E-12

  Minimum eigenvalue in the overlap matrix is 1.4899442370E-04.
  Reciprocal condition number of the overlap matrix is 2.5945235180E-05.
    Using symmetric orthogonalization.

  ==> Pre-Iterations <==

  SCF Guess: Superposition of Atomic Densities via on-the-fly atomic UHF (no occupation information).


 WARNING: Atomic UHF is not converging! Try casting from a smaller basis or call Rob at CCMST.

 WARNING: Atomic UHF is not converging! Try casting from a smaller basis or call Rob at CCMST.
   -------------------------
    Irrep   Nso     Nmo    
   -------------------------
     A1        35      35 
     A2        12      12 
     B1        18      18 
     B2        27      27 
   -------------------------
    Total      92      92
   -------------------------

  ==> Iterations <==

                        Total Energy        Delta E     RMS |[F,P]|

   @UHF iter SAD:   -34.71862382097156   -3.47186e+01   0.00000e+00 
   @UHF iter   1:   -38.75937850849265   -4.04075e+00   1.09758e-02 DIIS
   @UHF iter   2:   -38.92733696420338   -1.67958e-01   3.00252e-03 DIIS
   @UHF iter   3:   -38.93729640298899   -9.95944e-03   4.95003e-04 DIIS
   @UHF iter   4:   -38.93805603183283   -7.59629e-04   1.78872e-04 DIIS
   @UHF iter   5:   -38.93818799473790   -1.31963e-04   6.21323e-05 DIIS
   @UHF iter   6:   -38.93820582132726   -1.78266e-05   1.91597e-05 DIIS
   @UHF iter   7:   -38.93820758098854   -1.75966e-06   4.04054e-06 DIIS
   @UHF iter   8:   -38.93820766004645   -7.90579e-08   1.55390e-06 DIIS
   @UHF iter   9:   -38.93820767224148   -1.21950e-08   3.07652e-07 DIIS
   @UHF iter  10:   -38.93820767260046   -3.58980e-10   4.71101e-08 DIIS
   @UHF iter  11:   -38.93820767260776   -7.29727e-12   1.07065e-08 DIIS
   @UHF iter  12:   -38.93820767260826   -5.04485e-13   2.59395e-09 DIIS
  Energy and wave function converged.


  ==> Post-Iterations <==

   @Spin Contamination Metric:   1.596642588E-02
   @S^2 Expected:                2.000000000E+00
   @S^2 Observed:                2.015966426E+00
   @S   Expected:                1.000000000E+00
   @S   Observed:                1.000000000E+00

    Orbital Energies [Eh]
    ---------------------

    Alpha Occupied:                                                       

       1A1   -11.265724     2A1    -0.950658     1B2    -0.619070  
       3A1    -0.453127     1B1    -0.409416  

    Alpha Virtual:                                                        

       4A1     0.030524     2B2     0.045207     5A1     0.088668  
       2B1     0.093887     3B2     0.136958     6A1     0.140085  
       7A1     0.203738     4B2     0.227337     1A2     0.259933  
       8A1     0.283572     3B1     0.288345     9A1     0.334777  
       5B2     0.335957     4B1     0.341640     6B2     0.371374  
      10A1     0.395570    11A1     0.411202     2A2     0.416088  
       7B2     0.433760    12A1     0.545849     5B1     0.579402  
       8B2     0.699350    13A1     0.738264     9B2     0.799668  
       3A2     0.845145     6B1     0.875284    14A1     0.880615  
      10B2     0.917181    15A1     0.943339     7B1     0.958970  
      16A1     0.980804    11B2     0.993457     4A2     1.022722  
      12B2     1.031314     8B1     1.071317    17A1     1.074019  
       5A2     1.095590    18A1     1.099736     9B1     1.256132  
      19A1     1.259323    13B2     1.366578     6A2     1.384497  
      20A1     1.446533    14B2     1.452350    21A1     1.541450  
      10B1     1.551358    15B2     1.628730    11B1     1.639515  
      22A1     1.929249    16B2     1.930789     7A2     2.054346  
      17B2     2.085243    23A1     2.262365    18B2     2.858839  
      12B1     2.865504    24A1     2.955869    25A1     2.971005  
       8A2     3.202172    13B1     3.343081    26A1     3.399504  
      27A1     3.427437    19B2     3.429833    14B1     3.429938  
       9A2     3.515252    15B1     3.563362    20B2     3.575113  
      28A1     3.615269    21B2     3.761906    29A1     3.845764  
      22B2     4.017380    10A2     4.200038    30A1     4.237975  
      23B2     4.244988    16B1     4.258236    31A1     4.630733  
      17B1     4.655336    11A2     4.721487    24B2     4.923536  
      32A1     4.945960    12A2     5.252228    25B2     5.299737  
      18B1     5.303511    33A1     5.680039    34A1     5.913905  
      26B2     6.062537    27B2     6.344516    35A1    14.970955  

    Beta Occupied:                                                        

       1A1   -11.218659     2A1    -0.779832     1B2    -0.588349  

    Beta Virtual:                                                         

       3A1     0.032632     2B2     0.045679     4A1     0.057991  
       1B1     0.065574     3B2     0.138701     5A1     0.145673  
       6A1     0.157969     2B1     0.178434     7A1     0.213521  
       4B2     0.238679     1A2     0.269094     8A1     0.313675  
       3B1     0.314942     5B2     0.337515     9A1     0.364639  
       4B1     0.371859     6B2     0.378014    10A1     0.417436  
       2A2     0.425771    11A1     0.435629     7B2     0.452127  
      12A1     0.586899     5B1     0.675414     8B2     0.727889  
      13A1     0.792208     9B2     0.813495     3A2     0.866444  
       6B1     0.914393    14A1     0.919888    10B2     0.926686  
      15A1     0.966604     7B1     0.968847    16A1     1.002891  
      11B2     1.005313     4A2     1.029958    12B2     1.045424  
      17A1     1.105718     5A2     1.136008     8B1     1.138942  
      18A1     1.149545     9B1     1.294170    19A1     1.296532  
      13B2     1.388257     6A2     1.405236    14B2     1.463242  
      20A1     1.474675    10B1     1.571875    21A1     1.584426  
      15B2     1.656601    11B1     1.693122    22A1     1.948525  
      16B2     1.955333     7A2     2.076883    17B2     2.098325  
      23A1     2.299837    18B2     2.869202    12B1     2.941460  
      24A1     2.996001    25A1     3.042245     8A2     3.252414  
      13B1     3.437082    19B2     3.456677    26A1     3.471748  
      14B1     3.483035    27A1     3.518034     9A2     3.560308  
      20B2     3.607113    15B1     3.625404    28A1     3.655006  
      21B2     3.804392    29A1     3.863822    22B2     4.039224  
      10A2     4.224160    30A1     4.255805    23B2     4.264712  
      16B1     4.278175    31A1     4.638823    17B1     4.660583  
      11A2     4.723181    24B2     4.923205    32A1     4.958297  
      12A2     5.275831    25B2     5.311219    18B1     5.326273  
      33A1     5.698998    34A1     5.926019    26B2     6.077330  
      27B2     6.358877    35A1    15.003139  

    Final Occupation by Irrep:
             A1    A2    B1    B2 
    DOCC [     2,    0,    0,    1 ]
    SOCC [     1,    0,    1,    0 ]

  @UHF Final Energy:   -38.93820767260826

   => Energetics <=

    Nuclear Repulsion Energy =              6.1804872213181330
    One-Electron Energy =                 -63.9525541696703357
    Two-Electron Energy =                  18.8338592757439365
    Total Energy =                        -38.9382076726082715

  UHF NO Occupations:
  HONO-2 :    2 A1 1.9938530
  HONO-1 :    3 A1 1.0000000
  HONO-0 :    1 B1 1.0000000
  LUNO+0 :    4 A1 0.0061470
  LUNO+1 :    2 B2 0.0018549
  LUNO+2 :    5 A1 0.0000020
  LUNO+3 :    6 A1 0.0000000


Computation Completed


Properties will be evaluated at   0.000000,   0.000000,   0.000000 [a0]

Properties computed using the SCF density matrix

  Nuclear Dipole Moment: [e a0]
     X:     0.0000      Y:     0.0000      Z:    -0.6895

  Electronic Dipole Moment: [e a0]
     X:     0.0000      Y:     0.0000      Z:     0.4604

  Dipole Moment: [e a0]
     X:     0.0000      Y:     0.0000      Z:    -0.2291     Total:     0.2291

  Dipole Moment: [D]
     X:     0.0000      Y:     0.0000      Z:    -0.5823     Total:     0.5823


*** tstop() called on n412-040.vsc4.prov at Tue Jan 26 18:06:32 2021
Module time:
	user time   =      28.59 seconds =       0.48 minutes
	system time =       1.11 seconds =       0.02 minutes
	total time  =          4 seconds =       0.07 minutes
Total time:
	user time   =      28.59 seconds =       0.48 minutes
	system time =       1.11 seconds =       0.02 minutes
	total time  =          4 seconds =       0.07 minutes

*** tstart() called on n412-040.vsc4.prov
*** at Tue Jan 26 18:06:32 2021


	Wfn Parameters:
	--------------------
	Wavefunction         = CCSD_T
	Number of irreps     = 4
	Number of MOs        = 92
	Number of active MOs = 91
	AO-Basis             = NONE
	Semicanonical        = false
	Reference            = UHF
	Print Level          = 1

	IRREP	# MOs	# FZDC	# DOCC	# SOCC	# VIRT	# FZVR
	-----	-----	------	------	------	------	------
	 A1	   35	    1	    1	    1	    32	    0
	 A2	   12	    0	    0	    0	    12	    0
	 B1	   18	    0	    0	    1	    17	    0
	 B2	   27	    0	    1	    0	    26	    0
	Transforming integrals...
	IWL integrals will be deleted.
	(OO|OO)...
	Presorting SO-basis two-electron integrals.
	Sorting File: SO Ints (nn|nn) nbuckets = 1
	Constructing frozen core operators
	Starting AA/AB first half-transformation.
	Sorting AA/AB half-transformed integrals.
	Starting BB first half-transformation.
	Sorting BB half-transformed integrals.
	First half integral transformation complete.
	Starting AA second half-transformation.
	Starting AB second half-transformation.
	Starting BB second half-transformation.
	Two-electron integral transformation complete.
	(OO|OV)...
	Starting AA second half-transformation.
	Starting AB second half-transformation.
	Starting BB second half-transformation.
	Two-electron integral transformation complete.
	(OO|VV)...
	Starting AA second half-transformation.
	Starting AB second half-transformation.
	Starting BB second half-transformation.
	Two-electron integral transformation complete.
	(OV|OO)...
	Starting AA/AB first half-transformation.
	Sorting AA/AB half-transformed integrals.
	Starting BB first half-transformation.
	Sorting BB half-transformed integrals.
	First half integral transformation complete.
	Starting AA second half-transformation.
	Starting AB second half-transformation.
	Starting BB second half-transformation.
	Two-electron integral transformation complete.
	(OV|OV)...
	Starting AA second half-transformation.
	Starting AB second half-transformation.
	Starting BB second half-transformation.
	Two-electron integral transformation complete.
	(OV|VV)...
	Starting AA second half-transformation.
	Starting AB second half-transformation.
	Starting BB second half-transformation.
	Two-electron integral transformation complete.
	(VV|OO)...
	Starting AA/AB first half-transformation.
	Sorting AA/AB half-transformed integrals.
	Starting BB first half-transformation.
	Sorting BB half-transformed integrals.
	First half integral transformation complete.
	Starting AA second half-transformation.
	Starting AB second half-transformation.
	Starting BB second half-transformation.
	Two-electron integral transformation complete.
	(VV|OV)...
	Starting AA second half-transformation.
	Starting AB second half-transformation.
	Starting BB second half-transformation.
	Two-electron integral transformation complete.
	(VV|VV)...
	Starting AA second half-transformation.
	Starting AB second half-transformation.
	Starting BB second half-transformation.
	Two-electron integral transformation complete.
	Frozen core energy     =    -34.32928582497699

	Size of irrep 0 of <AB|CD> integrals:      1.047 (MW) /      8.372 (MB)
	Size of irrep 1 of <AB|CD> integrals:      0.682 (MW) /      5.458 (MB)
	Size of irrep 2 of <AB|CD> integrals:      0.733 (MW) /      5.862 (MB)
	Size of irrep 3 of <AB|CD> integrals:      1.073 (MW) /      8.586 (MB)
	Total:                                     3.535 (MW) /     28.279 (MB)

	Size of irrep 0 of <ab|cd> integrals:      1.149 (MW) /      9.193 (MB)
	Size of irrep 1 of <ab|cd> integrals:      0.746 (MW) /      5.972 (MB)
	Size of irrep 2 of <ab|cd> integrals:      0.821 (MW) /      6.567 (MB)
	Size of irrep 3 of <ab|cd> integrals:      1.153 (MW) /      9.228 (MB)
	Total:                                     3.870 (MW) /     30.960 (MB)

	Size of irrep 0 of <Ab|Cd> integrals:      4.761 (MW) /     38.089 (MB)
	Size of irrep 1 of <Ab|Cd> integrals:      2.856 (MW) /     22.849 (MB)
	Size of irrep 2 of <Ab|Cd> integrals:      3.101 (MW) /     24.809 (MB)
	Size of irrep 3 of <Ab|Cd> integrals:      4.452 (MW) /     35.617 (MB)
	Total:                                    15.170 (MW) /    121.364 (MB)

	Size of irrep 0 of <IA|BC> integrals:      0.228 (MW) /      1.826 (MB)
	Size of irrep 1 of <IA|BC> integrals:      0.111 (MW) /      0.885 (MB)
	Size of irrep 2 of <IA|BC> integrals:      0.134 (MW) /      1.068 (MB)
	Size of irrep 3 of <IA|BC> integrals:      0.199 (MW) /      1.591 (MB)
	Total:                                     0.671 (MW) /      5.371 (MB)

	Size of irrep 0 of <ia|bc> integrals:      0.132 (MW) /      1.054 (MB)
	Size of irrep 1 of <ia|bc> integrals:      0.052 (MW) /      0.415 (MB)
	Size of irrep 2 of <ia|bc> integrals:      0.054 (MW) /      0.435 (MB)
	Size of irrep 3 of <ia|bc> integrals:      0.127 (MW) /      1.014 (MB)
	Total:                                     0.365 (MW) /      2.917 (MB)

	Size of irrep 0 of <Ia|Bc> integrals:      0.240 (MW) /      1.920 (MB)
	Size of irrep 1 of <Ia|Bc> integrals:      0.115 (MW) /      0.919 (MB)
	Size of irrep 2 of <Ia|Bc> integrals:      0.143 (MW) /      1.141 (MB)
	Size of irrep 3 of <Ia|Bc> integrals:      0.205 (MW) /      1.637 (MB)
	Total:                                     0.702 (MW) /      5.618 (MB)

	Size of irrep 0 of <iA|bC> integrals:      0.127 (MW) /      1.012 (MB)
	Size of irrep 1 of <iA|bC> integrals:      0.049 (MW) /      0.392 (MB)
	Size of irrep 2 of <iA|bC> integrals:      0.051 (MW) /      0.409 (MB)
	Size of irrep 3 of <iA|bC> integrals:      0.122 (MW) /      0.979 (MB)
	Total:                                     0.349 (MW) /      2.792 (MB)

	Size of irrep 0 of tIjAb amplitudes:       0.007 (MW) /      0.052 (MB)
	Size of irrep 1 of tIjAb amplitudes:       0.002 (MW) /      0.014 (MB)
	Size of irrep 2 of tIjAb amplitudes:       0.002 (MW) /      0.014 (MB)
	Size of irrep 3 of tIjAb amplitudes:       0.006 (MW) /      0.051 (MB)
	Total:                                     0.016 (MW) /      0.131 (MB)

	Nuclear Rep. energy          =      6.18048722131813
	SCF energy                   =    -38.93820767260826
	One-electron energy          =    -17.77836600634867
	Two-electron (AA) energy     =      2.58477377632192
	Two-electron (BB) energy     =      0.36175722065254
	Two-electron (AB) energy     =      4.04242594042472
	Two-electron energy          =      6.98895693739919
	Reference energy             =    -38.93820767260834

*** tstop() called on n412-040.vsc4.prov at Tue Jan 26 18:06:40 2021
Module time:
	user time   =       2.09 seconds =       0.03 minutes
	system time =       1.31 seconds =       0.02 minutes
	total time  =          8 seconds =       0.13 minutes
Total time:
	user time   =      30.68 seconds =       0.51 minutes
	system time =       2.42 seconds =       0.04 minutes
	total time  =         12 seconds =       0.20 minutes
            **************************
            *                        *
            *        CCENERGY        *
            *                        *
            **************************

    Nuclear Rep. energy (wfn)     =    6.180487221318133
    SCF energy          (wfn)     =  -38.938207672608264
    Reference energy    (file100) =  -38.938207672608343

    Input parameters:
    -----------------
    Wave function   =     CCSD_T
    Reference wfn   =     UHF
    Brueckner       =     No
    Memory (Mbytes) =     250000.0
    Maxiter         =     50
    R_Convergence   =     1.0e-07
    E_Convergence   =     1.0e-06
    Restart         =     Yes
    DIIS            =     Yes
    AO Basis        =     NONE
    ABCD            =     NEW
    Cache Level     =     2
    Cache Type      =     LRU
    Print Level     =     1
    Num. of threads =     48
    # Amps to Print =     10
    Print MP2 Amps? =     No
    Analyze T2 Amps =     No
    Print Pair Ener =     No
    Local CC        =     No
    SCS-MP2         =     False
    SCSN-MP2        =     False
    SCS-CCSD        =     False

MP2 correlation energy -0.1193744441167534
                Solving CC Amplitude Equations
                ------------------------------
  Iter             Energy              RMS        T1Diag      D1Diag    New D1Diag    D2Diag
  ----     ---------------------    ---------   ----------  ----------  ----------   --------
     0        -0.119374444116753    0.000e+00    0.000000    0.000000    0.000000    0.000000
     1        -0.133103286298560    3.843e-02    0.008260    0.000000    0.000000    0.000000
     2        -0.137855217404555    1.542e-02    0.013680    0.000000    0.000000    0.000000
     3        -0.138241296710142    5.306e-03    0.016322    0.000000    0.000000    0.000000
     4        -0.138249142176114    1.562e-03    0.016895    0.000000    0.000000    0.000000
     5        -0.138254857990320    5.266e-04    0.016989    0.000000    0.000000    0.000000
     6        -0.138259434072152    1.885e-04    0.016982    0.000000    0.000000    0.000000
     7        -0.138260830854425    7.126e-05    0.016972    0.000000    0.000000    0.000000
     8        -0.138260803265653    2.186e-05    0.016970    0.000000    0.000000    0.000000
     9        -0.138260739215817    6.482e-06    0.016970    0.000000    0.000000    0.000000
    10        -0.138260761569653    2.292e-06    0.016970    0.000000    0.000000    0.000000
    11        -0.138260762484290    8.086e-07    0.016970    0.000000    0.000000    0.000000
    12        -0.138260765725093    2.274e-07    0.016970    0.000000    0.000000    0.000000
    13        -0.138260764873827    6.945e-08    0.016970    0.000000    0.000000    0.000000

    Iterations converged.


    Largest TIA Amplitudes:
              2  44        -0.0100515198
              2  45        -0.0090289944
              1   1        -0.0076823225
              0   3        -0.0074211595
              1   4        -0.0064549274
              0   8        -0.0064435437
              0   7         0.0048820188
              1   3         0.0047479198
              2  48         0.0039175064
              1   8         0.0039013416

    Largest Tia Amplitudes:
              0   3         0.0142555652
              0   9         0.0133069144
              0   4         0.0118883141
              0   1         0.0100523534
              0   7        -0.0080480750
              0   8        -0.0065451753
              1  70         0.0063818105
              1  68         0.0057498173
              0   6        -0.0053575283
              0  12         0.0053185213

    Largest TIJAB Amplitudes:
      2   1  47   9         0.0132345089
      3   1  66   8         0.0109183396
      2   1  45   4        -0.0105666099
      2   1  48  10        -0.0105582921
      3   1  63   8         0.0102542767
      3   2  68  47        -0.0101348761
      2   1  47   5        -0.0101073862
      3   1  67   8         0.0099586364
      3   2  66  47        -0.0098693136
      2   1  47   1        -0.0097562702

    Largest Tijab Amplitudes:
      1   0  46  35         0.0053145857
      1   0  46  37        -0.0049769239
      1   0  69   3        -0.0045226498
      1   0  46  33        -0.0041289270
      1   0  68   3        -0.0039167662
      1   0  69   1        -0.0039095618
      1   0  65   3        -0.0037959905
      1   0  70   7         0.0037047084
      1   0  68   7         0.0033057946
      1   0  45  35         0.0031357134

    Largest TIjAb Amplitudes:
      2   0   3  46        -0.0173748819
      3   1  68  70        -0.0173474355
      3   1   8   9        -0.0168340022
      3   1  67  69        -0.0158801619
      2   0  10  46         0.0143525796
      1   0  48  46        -0.0141759970
      2   0   9  46         0.0140587860
      2   0  47   7         0.0140584960
      3   1   3   9        -0.0140119970
      2   0   7  46         0.0138490644

    SCF energy       (wfn)                    =  -38.938207672608264
    Reference energy (file100)                =  -38.938207672608343

    Opposite-spin MP2 correlation energy      =   -0.092400309996563
    Same-spin MP2 correlation energy          =   -0.026974134120190
    Singles MP2 correlation energy            =   -0.000000000000000
    MP2 correlation energy                    =   -0.119374444116753
      * MP2 total energy                      =  -39.057582116725094

    Opposite-spin CCSD correlation energy     =   -0.109491323157483
    Same-spin CCSD correlation energy         =   -0.028769441716345
    Singles CCSD correlation energy           =    0.000000000000000
    CCSD correlation energy                   =   -0.138260764873827
      * CCSD total energy                     =  -39.076468437482170

            **************************
            *                        *
            *        CCTRIPLES       *
            *                        *
            **************************


    Wave function   =    CCSD_T
    Reference wfn   =      UHF

    Nuclear Rep. energy (wfn)                =    6.180487221318133
    SCF energy          (wfn)                =  -38.938207672608264
    Reference energy    (file100)            =  -38.938207672608343
    CCSD energy         (file100)            =   -0.138260764873827
    Total CCSD energy   (file100)            =  -39.076468437482170

    Number of ijk index combinations:
    Spin Case AAA:                                   4
    Spin Case BBB:                                   0
    Spin Case AAB:                                  12
    Spin Case ABB:                                   4
    AAA (T) energy                             =   -0.000247115097809
    BBB (T) energy                             =    0.000000000000000
    AAB (T) energy                             =   -0.002765593743091
    ABB (T) energy                             =   -0.000575821025611
    (T) energy                                   =   -0.003588529866511
      * CCSD(T) total energy                     =  -39.080056967348682


    Psi4 stopped on: Tuesday, 26 January 2021 06:06PM
    Psi4 wall time for execution: 0:00:22.37

*** Psi4 exiting successfully. Buy a developer a beer!
