
    -----------------------------------------------------------------------
          Psi4: An Open-Source Ab Initio Electronic Structure Package
                               Psi4 1.4a3.dev88 

                         Git: Rev {master} 262e345 


    D. G. A. Smith, L. A. Burns, A. C. Simmonett, R. M. Parrish,
    M. C. Schieber, R. Galvelis, P. Kraus, H. Kruse, R. Di Remigio,
    A. Alenaizan, A. M. James, S. Lehtola, J. P. Misiewicz, M. Scheurer,
    R. A. Shaw, J. B. Schriber, Y. Xie, Z. L. Glick, D. A. Sirianni,
    J. S. O'Brien, J. M. Waldrop, A. Kumar, E. G. Hohenstein,
    B. P. Pritchard, B. R. Brooks, H. F. Schaefer III, A. Yu. Sokolov,
    K. Patkowski, A. E. DePrince III, U. Bozkaya, R. A. King,
    F. A. Evangelista, J. M. Turney, T. D. Crawford, C. D. Sherrill,
    J. Chem. Phys. 152(18) 184108 (2020). https://doi.org/10.1063/5.0006002

                            Additional Code Authors
    E. T. Seidl, C. L. Janssen, E. F. Valeev, M. L. Leininger,
    J. F. Gonthier, R. M. Richard, H. R. McAlexander, M. Saitow, X. Wang,
    P. Verma, and M. H. Lechner

             Previous Authors, Complete List of Code Contributors,
                       and Citations for Specific Modules
    https://github.com/psi4/psi4/blob/master/codemeta.json
    https://github.com/psi4/psi4/graphs/contributors
    http://psicode.org/psi4manual/master/introduction.html#citing-psifour

    -----------------------------------------------------------------------


    Psi4 started on: Thursday, 21 January 2021 09:36AM

    Process ID: 397833
    Host:       n412-045.vsc4.prov
    PSIDATADIR: /home/fs71337/gallo4/psi4/psi4/build/stage/share/psi4
    Memory:     500.0 MiB
    Threads:    48
    
  ==> Input File <==

--------------------------------------------------------------------------
# Any line starting with the # character is a comment line
memory 250000 mb
molecule molecule{
-1 3
C          0.0000000000        0.0000000000        0.0874497820
H          0.0000000000        0.0000000000       -1.0420851747
}

set {
  reference uhf
  basis aug-cc-pV(5+d)Z
  scf_type OUT_OF_CORE
  freeze_core true
}

energy('ccsd(t)')
--------------------------------------------------------------------------

  Memory set to 232.831 GiB by Python driver.

Scratch directory: /binfl/lv71337/airmler/temp/

*** tstart() called on n412-045.vsc4.prov
*** at Thu Jan 21 09:36:31 2021

   => Loading Basis Set <=

    Name: AUG-CC-PV(5+D)Z
    Role: ORBITAL
    Keyword: BASIS
    atoms 1 entry C          line   414 file /home/fs71337/gallo4/psi4/psi4/build/stage/share/psi4/basis/aug-cc-pv_5pd_z.gbs 
    atoms 2 entry H          line    69 file /home/fs71337/gallo4/psi4/psi4/build/stage/share/psi4/basis/aug-cc-pv_5pd_z.gbs 


         ---------------------------------------------------------
                                   SCF
               by Justin Turney, Rob Parrish, Andy Simmonett
                          and Daniel G. A. Smith
                              UHF Reference
                       48 Threads, 238418 MiB Core
         ---------------------------------------------------------

  ==> Geometry <==

    Molecular point group: c2v
    Full point group: C_inf_v

    Geometry (in Angstrom), charge = -1, multiplicity = 3:

       Center              X                  Y                   Z               Mass       
    ------------   -----------------  -----------------  -----------------  -----------------
         C            0.000000000000     0.000000000000     0.087514523091    12.000000000000
         H            0.000000000000     0.000000000000    -1.042020433609     1.007825032230

  Running in c2v symmetry.

  Rotational constants: A = ************  B =     14.21135  C =     14.21135 [cm^-1]
  Rotational constants: A = ************  B = 426045.66123  C = 426045.66123 [MHz]
  Nuclear repulsion =    2.810947324105955

  Charge       = -1
  Multiplicity = 3
  Electrons    = 8
  Nalpha       = 5
  Nbeta        = 3

  ==> Algorithm <==

  SCF Algorithm Type is OUT_OF_CORE.
  DIIS enabled.
  MOM disabled.
  Fractional occupation disabled.
  Guess Type is SAD.
  Energy threshold   = 1.00e-08
  Density threshold  = 1.00e-08
  Integral threshold = 1.00e-12

  ==> Primary Basis <==

  Basis Set: AUG-CC-PV(5+D)Z
    Blend: AUG-CC-PV(5+D)Z
    Number of shells: 47
    Number of basis function: 207
    Number of Cartesian functions: 287
    Spherical Harmonics?: true
    Max angular momentum: 5

  ==> Integral Setup <==

  ==> DiskJK: Disk-Based J/K Matrices <==

    J tasked:                  Yes
    K tasked:                  Yes
    wK tasked:                  No
    Memory [MiB]:           178813
    Schwarz Cutoff:          1E-12

  Minimum eigenvalue in the overlap matrix is 1.4250939228E-05.
  Reciprocal condition number of the overlap matrix is 2.1910041095E-06.
    Using symmetric orthogonalization.

  ==> Pre-Iterations <==

  SCF Guess: Superposition of Atomic Densities via on-the-fly atomic UHF (no occupation information).


 WARNING: Atomic UHF is not converging! Try casting from a smaller basis or call Rob at CCMST.

 WARNING: Atomic UHF is not converging! Try casting from a smaller basis or call Rob at CCMST.
   -------------------------
    Irrep   Nso     Nmo    
   -------------------------
     A1        77      77 
     A2        30      30 
     B1        50      50 
     B2        50      50 
   -------------------------
    Total     207     207
   -------------------------

  ==> Iterations <==

                        Total Energy        Delta E     RMS |[F,P]|

   @UHF iter SAD:   -27.46398489606601   -2.74640e+01   0.00000e+00 
    Occupation by irrep:
             A1    A2    B1    B2 
    DOCC [     3,    0,    0,    0 ]
    SOCC [     1,    0,    1,    0 ]

   @UHF iter   1:   -36.69129334304866   -9.22731e+00   1.60597e-02 DIIS
    Occupation by irrep:
             A1    A2    B1    B2 
    DOCC [     3,    0,    0,    0 ]
    SOCC [     0,    0,    1,    1 ]

   @UHF iter   2:   -35.75032118636328    9.40972e-01   8.12287e-03 DIIS
   @UHF iter   3:   -37.80835875526039   -2.05804e+00   7.83555e-03 DIIS
   @UHF iter   4:   -38.18146339910372   -3.73105e-01   3.40355e-03 DIIS
   @UHF iter   5:   -38.29317455482224   -1.11711e-01   6.01770e-04 DIIS
   @UHF iter   6:   -38.29961402482800   -6.43947e-03   1.49988e-04 DIIS
   @UHF iter   7:   -38.29994195041604   -3.27926e-04   8.17478e-05 DIIS
   @UHF iter   8:   -38.30004348738713   -1.01537e-04   1.83178e-05 DIIS
   @UHF iter   9:   -38.30005262818739   -9.14080e-06   6.40046e-06 DIIS
   @UHF iter  10:   -38.30005373180460   -1.10362e-06   2.89980e-06 DIIS
   @UHF iter  11:   -38.30005413240701   -4.00602e-07   1.39021e-06 DIIS
   @UHF iter  12:   -38.30005417942682   -4.70198e-08   3.12077e-07 DIIS
   @UHF iter  13:   -38.30005418356782   -4.14100e-09   1.31650e-07 DIIS
   @UHF iter  14:   -38.30005418457473   -1.00692e-09   4.87743e-08 DIIS
   @UHF iter  15:   -38.30005418473375   -1.59012e-10   1.38080e-08 DIIS
   @UHF iter  16:   -38.30005418474404   -1.02958e-11   4.02281e-09 DIIS
  Energy and wave function converged.


  ==> Post-Iterations <==

   @Spin Contamination Metric:   2.408436501E-02
   @S^2 Expected:                2.000000000E+00
   @S^2 Observed:                2.024084365E+00
   @S   Expected:                1.000000000E+00
   @S   Observed:                1.000000000E+00

    Orbital Energies [Eh]
    ---------------------

    Alpha Occupied:                                                       

       1A1   -10.968963     2A1    -0.583853     3A1    -0.159673  
       1B2    -0.078157     1B1    -0.078157  

    Alpha Virtual:                                                        

       4A1     0.135352     5A1     0.198197     2B2     0.201888  
       2B1     0.201888     6A1     0.257429     7A1     0.331440  
       3B1     0.352688     3B2     0.352688     1A2     0.390972  
       8A1     0.390972     9A1     0.414439     4B2     0.432569  
       4B1     0.432569    10A1     0.483352    11A1     0.489428  
       5B2     0.527606     5B1     0.527606    12A1     0.641517  
       6B2     0.707993     6B1     0.707993     2A2     0.756141  
      13A1     0.756141     7B1     0.778452     7B2     0.778452  
       3A2     0.825062    14A1     0.825062    15A1     0.851998  
      16A1     0.870004     8B2     0.874422     8B1     0.874422  
      17A1     0.901880     4A2     0.965591    18A1     0.965591  
       9B2     0.971363     9B1     0.971363    19A1     1.012644  
      20A1     1.227204    10B2     1.234865    10B1     1.234865  
      11B2     1.341306    11B1     1.341306    12B1     1.487136  
      12B2     1.487136    21A1     1.553669    22A1     1.578876  
       5A2     1.619475    23A1     1.619475    13B2     1.635834  
      13B1     1.635834    24A1     1.709557    25A1     1.843290  
       6A2     1.843290     7A2     1.888390    26A1     1.888390  
      14B1     1.925401    14B2     1.925401    15B2     1.947065  
      15B1     1.947065     8A2     1.994601    27A1     1.994601  
      28A1     2.024221    16B2     2.028499    16B1     2.028499  
      17B1     2.064386    17B2     2.064386     9A2     2.096358  
      29A1     2.096358    30A1     2.105775    18B2     2.352105  
      18B1     2.352105    31A1     2.370757    32A1     2.626538  
      19B2     2.846640    19B1     2.846640    33A1     2.996046  
      10A2     3.014387    34A1     3.014387    20B2     3.040075  
      20B1     3.040075    35A1     3.282595    11A2     3.282595  
      36A1     3.311735    21B2     3.443000    21B1     3.443000  
      12A2     3.548652    37A1     3.548652    38A1     3.597027  
      22B2     3.724150    22B1     3.724150    23B2     3.804989  
      23B1     3.804989    24B2     3.826530    24B1     3.826530  
      39A1     3.848105    25B1     3.942226    25B2     3.942226  
      13A2     4.107193    40A1     4.107193    41A1     4.237496  
      42A1     4.275803    14A2     4.275803    26B1     4.332094  
      26B2     4.332094    43A1     4.410402    15A2     4.410402  
      16A2     4.426661    44A1     4.426661    27B2     4.427359  
      27B1     4.427359    28B2     4.462858    28B1     4.462858  
      45A1     4.553003    46A1     4.650290    17A2     4.650290  
      29B1     4.661962    29B2     4.661962    30B1     4.784345  
      30B2     4.784345    47A1     4.984520    18A2     5.157032  
      48A1     5.157032    49A1     5.205696    31B2     5.546708  
      31B1     5.546708    32B2     5.568153    32B1     5.568153  
      50A1     5.914763    51A1     6.187728    19A2     6.187728  
      33B1     6.422431    33B2     6.422431    52A1     6.475002  
      53A1     6.772427    20A2     6.786754    54A1     6.786754  
      34B1     7.167126    34B2     7.167126    55A1     7.835721  
      35B1     8.096853    35B2     8.096853    56A1     8.947966  
      36B1     9.204562    36B2     9.204562    37B2     9.288445  
      37B1     9.288445    57A1     9.347765    21A2     9.347765  
      38B2     9.363406    38B1     9.363406    58A1     9.705046  
      22A2     9.705046    39B1     9.795138    39B2     9.795138  
      59A1    10.160484    40B2    10.441602    40B1    10.441602  
      60A1    10.592632    61A1    10.714301    23A2    10.714301  
      62A1    10.721355    24A2    10.721355    41B1    10.747102  
      41B2    10.747102    42B2    10.822783    42B1    10.822783  
      63A1    11.008707    64A1    11.046989    25A2    11.046989  
      65A1    11.909046    43B1    12.020520    43B2    12.020520  
      66A1    12.374608    26A2    12.374608    44B1    13.158461  
      44B2    13.158461    67A1    13.454790    68A1    13.492215  
      27A2    13.492215    45B1    13.515532    45B2    13.515532  
      46B2    13.948552    46B1    13.948552    69A1    14.281815  
      28A2    14.281815    70A1    14.648678    29A2    14.648678  
      47B1    14.804487    47B2    14.804487    71A1    15.006405  
      48B1    15.144836    48B2    15.144836    72A1    15.400127  
      73A1    15.489606    30A2    15.489606    74A1    16.117704  
      49B1    17.976675    49B2    17.976675    50B1    18.161893  
      50B2    18.161893    75A1    19.161666    76A1    20.808696  
      77A1    38.836346  

    Beta Occupied:                                                        

       1A1   -10.934133     2A1    -0.422186     3A1    -0.087450  

    Beta Virtual:                                                         

       4A1     0.136299     1B2     0.195004     1B1     0.195004  
       5A1     0.200189     6A1     0.265915     7A1     0.334386  
       2B2     0.345164     2B1     0.345164     3B1     0.389555  
       3B2     0.389555     8A1     0.405930     1A2     0.405930  
       9A1     0.417807     4B2     0.444905     4B1     0.444905  
      10A1     0.494114    11A1     0.505071     5B1     0.628447  
       5B2     0.628447    12A1     0.658628     6B2     0.725157  
       6B1     0.725157    13A1     0.768161     2A2     0.768161  
       7B2     0.792803     7B1     0.792803    14A1     0.839279  
       3A2     0.839279    15A1     0.865366    16A1     0.877492  
       8B2     0.877955     8B1     0.877956    17A1     0.924658  
       9B2     0.999531     9B1     0.999531    18A1     1.019746  
       4A2     1.019746    19A1     1.034983    20A1     1.237943  
      10B1     1.316599    10B2     1.316599    11B2     1.351768  
      11B1     1.351768    12B2     1.495483    12B1     1.495483  
      21A1     1.562530    22A1     1.596464    23A1     1.623912  
       5A2     1.623912    13B2     1.644293    13B1     1.644293  
      24A1     1.729321    25A1     1.863184     6A2     1.863184  
      26A1     1.920228     7A2     1.920228    14B2     1.961154  
      14B1     1.961154    15B1     1.992479    15B2     1.992479  
      27A1     2.028822     8A2     2.028822    28A1     2.033069  
      16B2     2.036853    16B1     2.036853    17B2     2.082931  
      17B1     2.082931    29A1     2.130765    30A1     2.158057  
       9A2     2.158057    18B1     2.366554    18B2     2.366554  
      31A1     2.391672    32A1     2.641394    19B1     2.882736  
      19B2     2.882736    33A1     3.009992    34A1     3.028422  
      10A2     3.028422    20B1     3.072185    20B2     3.072185  
      35A1     3.291505    11A2     3.291505    36A1     3.329413  
      21B1     3.453482    21B2     3.453482    37A1     3.554926  
      12A2     3.554926    38A1     3.602589    22B2     3.726335  
      22B1     3.726335    23B1     3.826805    23B2     3.826805  
      24B1     3.861781    24B2     3.861781    39A1     3.870351  
      25B2     3.958179    25B1     3.958179    13A2     4.121302  
      40A1     4.121302    41A1     4.253094    42A1     4.307846  
      14A2     4.307846    26B1     4.347083    26B2     4.347083  
      43A1     4.441290    15A2     4.441290    44A1     4.446764  
      16A2     4.446764    27B1     4.483497    27B2     4.483497  
      28B2     4.485220    28B1     4.485220    45A1     4.561467  
      29B1     4.674713    29B2     4.674713    46A1     4.693422  
      17A2     4.693422    30B1     4.806256    30B2     4.806256  
      47A1     5.001097    48A1     5.205648    18A2     5.205648  
      49A1     5.225194    31B2     5.557690    31B1     5.557690  
      32B1     5.582844    32B2     5.582844    50A1     5.930873  
      51A1     6.191467    19A2     6.191467    33B1     6.442106  
      33B2     6.442106    52A1     6.484646    53A1     6.787317  
      54A1     6.801171    20A2     6.801171    34B1     7.173804  
      34B2     7.173804    55A1     7.841737    35B1     8.107148  
      35B2     8.107148    56A1     8.972344    36B1     9.247455  
      36B2     9.247455    37B2     9.319525    37B1     9.319525  
      57A1     9.373193    21A2     9.373193    38B1     9.384052  
      38B2     9.384052    58A1     9.722938    22A2     9.722938  
      39B1     9.808678    39B2     9.808678    59A1    10.172705  
      40B1    10.490156    40B2    10.490156    60A1    10.616857  
      61A1    10.738721    23A2    10.738721    62A1    10.762270  
      24A2    10.762270    41B1    10.766274    41B2    10.766274  
      42B1    10.854584    42B2    10.854584    63A1    11.026736  
      64A1    11.077685    25A2    11.077685    65A1    11.919572  
      43B1    12.040874    43B2    12.040875    66A1    12.418627  
      26A2    12.418627    44B1    13.181086    44B2    13.181086  
      67A1    13.467343    68A1    13.493294    27A2    13.493294  
      45B2    13.515602    45B1    13.515602    46B1    13.951312  
      46B2    13.951312    69A1    14.284692    28A2    14.284692  
      70A1    14.647947    29A2    14.647947    47B1    14.805714  
      47B2    14.805714    71A1    15.007368    48B1    15.146929  
      48B2    15.146929    72A1    15.399746    73A1    15.493073  
      30A2    15.493073    74A1    16.119311    49B1    17.981839  
      49B2    17.981839    50B1    18.160372    50B2    18.160372  
      75A1    19.164483    76A1    20.809043    77A1    38.850295  

    Final Occupation by Irrep:
             A1    A2    B1    B2 
    DOCC [     3,    0,    0,    0 ]
    SOCC [     0,    0,    1,    1 ]

  @UHF Final Energy:   -38.30005418474404

   => Energetics <=

    Nuclear Repulsion Energy =              2.8109473241059550
    One-Electron Energy =                 -58.9094336900898128
    Two-Electron Energy =                  17.7984321812398143
    Total Energy =                        -38.3000541847440417

  UHF NO Occupations:
  HONO-2 :    3 A1 1.9902256
  HONO-1 :    1 B1 1.0000000
  HONO-0 :    1 B2 1.0000000
  LUNO+0 :    4 A1 0.0097744
  LUNO+1 :    5 A1 0.0023159
  LUNO+2 :    6 A1 0.0000023
  LUNO+3 :    7 A1 0.0000000


Computation Completed


Properties will be evaluated at   0.000000,   0.000000,   0.000000 [a0]

Properties computed using the SCF density matrix

  Nuclear Dipole Moment: [e a0]
     X:     0.0000      Y:     0.0000      Z:    -0.9769

  Electronic Dipole Moment: [e a0]
     X:     0.0000      Y:     0.0000      Z:     0.3932

  Dipole Moment: [e a0]
     X:     0.0000      Y:     0.0000      Z:    -0.5837     Total:     0.5837

  Dipole Moment: [D]
     X:     0.0000      Y:     0.0000      Z:    -1.4835     Total:     1.4835


*** tstop() called on n412-045.vsc4.prov at Thu Jan 21 09:37:51 2021
Module time:
	user time   =     139.63 seconds =       2.33 minutes
	system time =       7.07 seconds =       0.12 minutes
	total time  =         80 seconds =       1.33 minutes
Total time:
	user time   =     139.63 seconds =       2.33 minutes
	system time =       7.07 seconds =       0.12 minutes
	total time  =         80 seconds =       1.33 minutes

*** tstart() called on n412-045.vsc4.prov
*** at Thu Jan 21 09:37:51 2021


	Wfn Parameters:
	--------------------
	Wavefunction         = CCSD_T
	Number of irreps     = 4
	Number of MOs        = 207
	Number of active MOs = 206
	AO-Basis             = NONE
	Semicanonical        = false
	Reference            = UHF
	Print Level          = 1

	IRREP	# MOs	# FZDC	# DOCC	# SOCC	# VIRT	# FZVR
	-----	-----	------	------	------	------	------
	 A1	   77	    1	    2	    0	    74	    0
	 A2	   30	    0	    0	    0	    30	    0
	 B1	   50	    0	    0	    1	    49	    0
	 B2	   50	    0	    0	    1	    49	    0
	Transforming integrals...
	IWL integrals will be deleted.
	(OO|OO)...
	Presorting SO-basis two-electron integrals.
	Sorting File: SO Ints (nn|nn) nbuckets = 1
	Constructing frozen core operators
	Starting AA/AB first half-transformation.
	Sorting AA/AB half-transformed integrals.
	Starting BB first half-transformation.
	Sorting BB half-transformed integrals.
	First half integral transformation complete.
	Starting AA second half-transformation.
	Starting AB second half-transformation.
	Starting BB second half-transformation.
	Two-electron integral transformation complete.
	(OO|OV)...
	Starting AA second half-transformation.
	Starting AB second half-transformation.
	Starting BB second half-transformation.
	Two-electron integral transformation complete.
	(OO|VV)...
	Starting AA second half-transformation.
	Starting AB second half-transformation.
	Starting BB second half-transformation.
	Two-electron integral transformation complete.
	(OV|OO)...
	Starting AA/AB first half-transformation.
	Sorting AA/AB half-transformed integrals.
	Starting BB first half-transformation.
	Sorting BB half-transformed integrals.
	First half integral transformation complete.
	Starting AA second half-transformation.
	Starting AB second half-transformation.
	Starting BB second half-transformation.
	Two-electron integral transformation complete.
	(OV|OV)...
	Starting AA second half-transformation.
	Starting AB second half-transformation.
	Starting BB second half-transformation.
	Two-electron integral transformation complete.
	(OV|VV)...
	Starting AA second half-transformation.
	Starting AB second half-transformation.
	Starting BB second half-transformation.
	Two-electron integral transformation complete.
	(VV|OO)...
	Starting AA/AB first half-transformation.
	Sorting AA/AB half-transformed integrals.
	Starting BB first half-transformation.
	Sorting BB half-transformed integrals.
	First half integral transformation complete.
	Starting AA second half-transformation.
	Starting AB second half-transformation.
	Starting BB second half-transformation.
	Two-electron integral transformation complete.
	(VV|OV)...
	Starting AA second half-transformation.
	Starting AB second half-transformation.
	Starting BB second half-transformation.
	Two-electron integral transformation complete.
	(VV|VV)...
	Starting AA second half-transformation.
	Starting AB second half-transformation.
	Starting BB second half-transformation.
	Two-electron integral transformation complete.
	Frozen core energy     =    -33.29698040500165

	Size of irrep 0 of <AB|CD> integrals:     30.118 (MW) /    240.945 (MB)
	Size of irrep 1 of <AB|CD> integrals:     21.354 (MW) /    170.829 (MB)
	Size of irrep 2 of <AB|CD> integrals:     25.969 (MW) /    207.754 (MB)
	Size of irrep 3 of <AB|CD> integrals:     25.969 (MW) /    207.754 (MB)
	Total:                                   103.410 (MW) /    827.282 (MB)

	Size of irrep 0 of <ab|cd> integrals:     31.203 (MW) /    249.627 (MB)
	Size of irrep 1 of <ab|cd> integrals:     22.278 (MW) /    178.227 (MB)
	Size of irrep 2 of <ab|cd> integrals:     27.040 (MW) /    216.320 (MB)
	Size of irrep 3 of <ab|cd> integrals:     27.040 (MW) /    216.320 (MB)
	Total:                                   107.562 (MW) /    860.494 (MB)

	Size of irrep 0 of <Ab|Cd> integrals:    127.148 (MW) /   1017.185 (MB)
	Size of irrep 1 of <Ab|Cd> integrals:     87.236 (MW) /    697.885 (MB)
	Size of irrep 2 of <Ab|Cd> integrals:    106.008 (MW) /    848.061 (MB)
	Size of irrep 3 of <Ab|Cd> integrals:    106.008 (MW) /    848.061 (MB)
	Total:                                   426.399 (MW) /   3411.192 (MB)

	Size of irrep 0 of <IA|BC> integrals:      2.750 (MW) /     21.998 (MB)
	Size of irrep 1 of <IA|BC> integrals:      1.460 (MW) /     11.682 (MB)
	Size of irrep 2 of <IA|BC> integrals:      2.059 (MW) /     16.470 (MB)
	Size of irrep 3 of <IA|BC> integrals:      2.059 (MW) /     16.470 (MB)
	Total:                                     8.328 (MW) /     66.621 (MB)

	Size of irrep 0 of <ia|bc> integrals:      1.684 (MW) /     13.469 (MB)
	Size of irrep 1 of <ia|bc> integrals:      0.566 (MW) /      4.531 (MB)
	Size of irrep 2 of <ia|bc> integrals:      1.040 (MW) /      8.320 (MB)
	Size of irrep 3 of <ia|bc> integrals:      1.040 (MW) /      8.320 (MB)
	Total:                                     4.330 (MW) /     34.640 (MB)

	Size of irrep 0 of <Ia|Bc> integrals:      2.796 (MW) /     22.372 (MB)
	Size of irrep 1 of <Ia|Bc> integrals:      1.494 (MW) /     11.955 (MB)
	Size of irrep 2 of <Ia|Bc> integrals:      2.100 (MW) /     16.803 (MB)
	Size of irrep 3 of <Ia|Bc> integrals:      2.100 (MW) /     16.803 (MB)
	Total:                                     8.492 (MW) /     67.933 (MB)

	Size of irrep 0 of <iA|bC> integrals:      1.669 (MW) /     13.351 (MB)
	Size of irrep 1 of <iA|bC> integrals:      0.560 (MW) /      4.483 (MB)
	Size of irrep 2 of <iA|bC> integrals:      1.009 (MW) /      8.072 (MB)
	Size of irrep 3 of <iA|bC> integrals:      1.009 (MW) /      8.072 (MB)
	Total:                                     4.247 (MW) /     33.978 (MB)

	Size of irrep 0 of tIjAb amplitudes:       0.045 (MW) /      0.361 (MB)
	Size of irrep 1 of tIjAb amplitudes:       0.000 (MW) /      0.000 (MB)
	Size of irrep 2 of tIjAb amplitudes:       0.021 (MW) /      0.165 (MB)
	Size of irrep 3 of tIjAb amplitudes:       0.021 (MW) /      0.165 (MB)
	Total:                                     0.086 (MW) /      0.690 (MB)

	Nuclear Rep. energy          =      2.81094732410596
	SCF energy                   =    -38.30005418474404
	One-electron energy          =    -14.21856844357133
	Two-electron (AA) energy     =      2.35492294169527
	Two-electron (BB) energy     =      0.34615547435926
	Two-electron (AB) energy     =      3.70346892366774
	Two-electron energy          =      6.40454733972227
	Reference energy             =    -38.30005418474476

*** tstop() called on n412-045.vsc4.prov at Thu Jan 21 09:40:18 2021
Module time:
	user time   =      44.84 seconds =       0.75 minutes
	system time =      30.94 seconds =       0.52 minutes
	total time  =        147 seconds =       2.45 minutes
Total time:
	user time   =     184.47 seconds =       3.07 minutes
	system time =      38.01 seconds =       0.63 minutes
	total time  =        227 seconds =       3.78 minutes
            **************************
            *                        *
            *        CCENERGY        *
            *                        *
            **************************

    Nuclear Rep. energy (wfn)     =    2.810947324105955
    SCF energy          (wfn)     =  -38.300054184744042
    Reference energy    (file100) =  -38.300054184744759

    Input parameters:
    -----------------
    Wave function   =     CCSD_T
    Reference wfn   =     UHF
    Brueckner       =     No
    Memory (Mbytes) =     250000.0
    Maxiter         =     50
    R_Convergence   =     1.0e-07
    E_Convergence   =     1.0e-06
    Restart         =     Yes
    DIIS            =     Yes
    AO Basis        =     NONE
    ABCD            =     NEW
    Cache Level     =     2
    Cache Type      =     LRU
    Print Level     =     1
    Num. of threads =     48
    # Amps to Print =     10
    Print MP2 Amps? =     No
    Analyze T2 Amps =     No
    Print Pair Ener =     No
    Local CC        =     No
    SCS-MP2         =     False
    SCSN-MP2        =     False
    SCS-CCSD        =     False

MP2 correlation energy -0.1431043075946647
                Solving CC Amplitude Equations
                ------------------------------
  Iter             Energy              RMS        T1Diag      D1Diag    New D1Diag    D2Diag
  ----     ---------------------    ---------   ----------  ----------  ----------   --------
     0        -0.143104307594665    0.000e+00    0.000000    0.000000    0.000000    0.000000
     1        -0.151869213389330    5.165e-02    0.015141    0.000000    0.000000    0.000000
     2        -0.156804095415597    2.195e-02    0.021528    0.000000    0.000000    0.000000
     3        -0.158019349566042    1.286e-02    0.027563    0.000000    0.000000    0.000000
     4        -0.157906626805219    5.882e-03    0.031101    0.000000    0.000000    0.000000
     5        -0.157925513359009    2.699e-03    0.032613    0.000000    0.000000    0.000000
     6        -0.157935287751461    1.137e-03    0.033041    0.000000    0.000000    0.000000
     7        -0.157931077762657    4.919e-04    0.033041    0.000000    0.000000    0.000000
     8        -0.157937083468488    2.546e-04    0.033045    0.000000    0.000000    0.000000
     9        -0.157939259297930    1.299e-04    0.033042    0.000000    0.000000    0.000000
    10        -0.157937602418913    7.010e-05    0.033027    0.000000    0.000000    0.000000
    11        -0.157938537991631    3.432e-05    0.033024    0.000000    0.000000    0.000000
    12        -0.157938706859168    1.284e-05    0.033024    0.000000    0.000000    0.000000
    13        -0.157938996030722    6.580e-06    0.033023    0.000000    0.000000    0.000000
    14        -0.157939118175256    3.046e-06    0.033024    0.000000    0.000000    0.000000
    15        -0.157939093439850    1.635e-06    0.033024    0.000000    0.000000    0.000000
    16        -0.157939067775150    8.360e-07    0.033024    0.000000    0.000000    0.000000
    17        -0.157939055384417    4.154e-07    0.033024    0.000000    0.000000    0.000000
    18        -0.157939049834560    1.746e-07    0.033024    0.000000    0.000000    0.000000
    19        -0.157939052016569    8.137e-08    0.033024    0.000000    0.000000    0.000000

    Iterations converged.


    Largest TIA Amplitudes:
              3 153        -0.0415274073
              2 104        -0.0415273984
              3 154        -0.0154191785
              2 105        -0.0154191680
              1   1        -0.0123733483
              3 156        -0.0101781448
              2 107        -0.0101781079
              0   6        -0.0070701470
              1  18         0.0069961116
              1   6         0.0067001319

    Largest Tia Amplitudes:
              0   8         0.0150309277
              0  13        -0.0148694126
              1   6         0.0146232173
              1  15        -0.0095860671
              0   7         0.0093853355
              1   3         0.0084224296
              0   3        -0.0082078689
              1   5        -0.0081597104
              1  16        -0.0079300296
              1  13         0.0078617128

    Largest TIJAB Amplitudes:
      3   2 156 107        -0.0270037723
      3   2 156 104        -0.0222985139
      3   2 153 107        -0.0222984970
      3   2 153 104        -0.0213596079
      3   2 161 107        -0.0163525933
      3   2 156 112        -0.0163525890
      3   2 161 112        -0.0136897392
      2   1 108   8        -0.0129392974
      3   1 157   8        -0.0129392953
      3   2  77  14        -0.0123756696

    Largest Tijab Amplitudes:
      1   0 112 106        -0.0057817132
      1   0 162 156        -0.0057817131
      1   0   7   6         0.0057537718
      1   0 162 158        -0.0055931539
      1   0 112 108        -0.0055931534
      1   0  13   8        -0.0052677532
      1   0 159 158         0.0051552960
      1   0 109 108         0.0051552954
      1   0  13   6        -0.0047923650
      1   0  13   3         0.0044454633

    Largest TIjAb Amplitudes:
      1   1   8   8        -0.0341442593
      2   1 107   6        -0.0213818296
      3   1 156   6        -0.0213818199
      1   1   6   6         0.0205211659
      1   1   8   3         0.0186952786
      1   1   3   8         0.0181204673
      1   1   8  16         0.0172577753
      2   1 104   6        -0.0171536819
      3   1 153   6        -0.0171536584
      1   1   8  11         0.0165749365

    SCF energy       (wfn)                    =  -38.300054184744042
    Reference energy (file100)                =  -38.300054184744759

    Opposite-spin MP2 correlation energy      =   -0.109607983535955
    Same-spin MP2 correlation energy          =   -0.033496324058709
    Singles MP2 correlation energy            =   -0.000000000000000
    MP2 correlation energy                    =   -0.143104307594665
      * MP2 total energy                      =  -38.443158492339421

    Opposite-spin CCSD correlation energy     =   -0.123965365906126
    Same-spin CCSD correlation energy         =   -0.033973686110447
    Singles CCSD correlation energy           =    0.000000000000004
    CCSD correlation energy                   =   -0.157939052016569
      * CCSD total energy                     =  -38.457993236761325

            **************************
            *                        *
            *        CCTRIPLES       *
            *                        *
            **************************


    Wave function   =    CCSD_T
    Reference wfn   =      UHF

    Nuclear Rep. energy (wfn)                =    2.810947324105955
    SCF energy          (wfn)                =  -38.300054184744042
    Reference energy    (file100)            =  -38.300054184744759
    CCSD energy         (file100)            =   -0.157939052016569
    Total CCSD energy   (file100)            =  -38.457993236761325

    Number of ijk index combinations:
    Spin Case AAA:                                   4
    Spin Case BBB:                                   0
    Spin Case AAB:                                  12
    Spin Case ABB:                                   4
    AAA (T) energy                             =   -0.000503224290686
    BBB (T) energy                             =    0.000000000000000
    AAB (T) energy                             =   -0.005278175218007
    ABB (T) energy                             =   -0.001101772864585
    (T) energy                                   =   -0.006883172373277
      * CCSD(T) total energy                     =  -38.464876409134604


    Psi4 stopped on: Thursday, 21 January 2021 09:43AM
    Psi4 wall time for execution: 0:07:03.67

*** Psi4 exiting successfully. Buy a developer a beer!
