
    -----------------------------------------------------------------------
          Psi4: An Open-Source Ab Initio Electronic Structure Package
                               Psi4 1.4a3.dev88 

                         Git: Rev {master} 262e345 


    D. G. A. Smith, L. A. Burns, A. C. Simmonett, R. M. Parrish,
    M. C. Schieber, R. Galvelis, P. Kraus, H. Kruse, R. Di Remigio,
    A. Alenaizan, A. M. James, S. Lehtola, J. P. Misiewicz, M. Scheurer,
    R. A. Shaw, J. B. Schriber, Y. Xie, Z. L. Glick, D. A. Sirianni,
    J. S. O'Brien, J. M. Waldrop, A. Kumar, E. G. Hohenstein,
    B. P. Pritchard, B. R. Brooks, H. F. Schaefer III, A. Yu. Sokolov,
    K. Patkowski, A. E. DePrince III, U. Bozkaya, R. A. King,
    F. A. Evangelista, J. M. Turney, T. D. Crawford, C. D. Sherrill,
    J. Chem. Phys. 152(18) 184108 (2020). https://doi.org/10.1063/5.0006002

                            Additional Code Authors
    E. T. Seidl, C. L. Janssen, E. F. Valeev, M. L. Leininger,
    J. F. Gonthier, R. M. Richard, H. R. McAlexander, M. Saitow, X. Wang,
    P. Verma, and M. H. Lechner

             Previous Authors, Complete List of Code Contributors,
                       and Citations for Specific Modules
    https://github.com/psi4/psi4/blob/master/codemeta.json
    https://github.com/psi4/psi4/graphs/contributors
    http://psicode.org/psi4manual/master/introduction.html#citing-psifour

    -----------------------------------------------------------------------


    Psi4 started on: Wednesday, 20 January 2021 06:14PM

    Process ID: 172411
    Host:       n412-037.vsc4.prov
    PSIDATADIR: /home/fs71337/gallo4/psi4/psi4/build/stage/share/psi4
    Memory:     500.0 MiB
    Threads:    48
    
  ==> Input File <==

--------------------------------------------------------------------------
# Any line starting with the # character is a comment line
memory 250000 mb
molecule molecule{
-1 3
C          0.0000000000        0.0000000000        0.0874497820
H          0.0000000000        0.0000000000       -1.0420851747
}

set {
  reference uhf
  basis aug-cc-pv(q+d)z
  scf_type OUT_OF_CORE
  freeze_core true
}

energy('ccsd(t)')
--------------------------------------------------------------------------

  Memory set to 232.831 GiB by Python driver.

Scratch directory: /binfl/lv71337/airmler/temp/

*** tstart() called on n412-037.vsc4.prov
*** at Wed Jan 20 18:14:29 2021

   => Loading Basis Set <=

    Name: AUG-CC-PV(Q+D)Z
    Role: ORBITAL
    Keyword: BASIS
    atoms 1 entry C          line   331 file /home/fs71337/gallo4/psi4/psi4/build/stage/share/psi4/basis/aug-cc-pv_qpd_z.gbs 
    atoms 2 entry H          line    68 file /home/fs71337/gallo4/psi4/psi4/build/stage/share/psi4/basis/aug-cc-pv_qpd_z.gbs 


         ---------------------------------------------------------
                                   SCF
               by Justin Turney, Rob Parrish, Andy Simmonett
                          and Daniel G. A. Smith
                              UHF Reference
                       48 Threads, 238418 MiB Core
         ---------------------------------------------------------

  ==> Geometry <==

    Molecular point group: c2v
    Full point group: C_inf_v

    Geometry (in Angstrom), charge = -1, multiplicity = 3:

       Center              X                  Y                   Z               Mass       
    ------------   -----------------  -----------------  -----------------  -----------------
         C            0.000000000000     0.000000000000     0.087514523091    12.000000000000
         H            0.000000000000     0.000000000000    -1.042020433609     1.007825032230

  Running in c2v symmetry.

  Rotational constants: A = ************  B =     14.21135  C =     14.21135 [cm^-1]
  Rotational constants: A = ************  B = 426045.66123  C = 426045.66123 [MHz]
  Nuclear repulsion =    2.810947324105955

  Charge       = -1
  Multiplicity = 3
  Electrons    = 8
  Nalpha       = 5
  Nbeta        = 3

  ==> Algorithm <==

  SCF Algorithm Type is OUT_OF_CORE.
  DIIS enabled.
  MOM disabled.
  Fractional occupation disabled.
  Guess Type is SAD.
  Energy threshold   = 1.00e-08
  Density threshold  = 1.00e-08
  Integral threshold = 1.00e-12

  ==> Primary Basis <==

  Basis Set: AUG-CC-PV(Q+D)Z
    Blend: AUG-CC-PV(Q+D)Z
    Number of shells: 34
    Number of basis function: 126
    Number of Cartesian functions: 160
    Spherical Harmonics?: true
    Max angular momentum: 4

  ==> Integral Setup <==

  ==> DiskJK: Disk-Based J/K Matrices <==

    J tasked:                  Yes
    K tasked:                  Yes
    wK tasked:                  No
    Memory [MiB]:           178813
    Schwarz Cutoff:          1E-12

  Minimum eigenvalue in the overlap matrix is 6.8368109949E-05.
  Reciprocal condition number of the overlap matrix is 1.1975420716E-05.
    Using symmetric orthogonalization.

  ==> Pre-Iterations <==

  SCF Guess: Superposition of Atomic Densities via on-the-fly atomic UHF (no occupation information).


 WARNING: Atomic UHF is not converging! Try casting from a smaller basis or call Rob at CCMST.

 WARNING: Atomic UHF is not converging! Try casting from a smaller basis or call Rob at CCMST.
   -------------------------
    Irrep   Nso     Nmo    
   -------------------------
     A1        50      50 
     A2        16      16 
     B1        30      30 
     B2        30      30 
   -------------------------
    Total     126     126
   -------------------------

  ==> Iterations <==

                        Total Energy        Delta E     RMS |[F,P]|

   @UHF iter SAD:   -10.25287582715433   -1.02529e+01   0.00000e+00 
    Occupation by irrep:
             A1    A2    B1    B2 
    DOCC [     3,    0,    0,    0 ]
    SOCC [     1,    0,    0,    1 ]

   @UHF iter   1:   -37.50890643861441   -2.72560e+01   1.66862e-02 DIIS
    Occupation by irrep:
             A1    A2    B1    B2 
    DOCC [     3,    0,    0,    0 ]
    SOCC [     0,    0,    1,    1 ]

   @UHF iter   2:   -36.86356396511022    6.45342e-01   1.26231e-02 DIIS
   @UHF iter   3:   -38.14037541114711   -1.27681e+00   6.79796e-03 DIIS
   @UHF iter   4:   -38.27939629474248   -1.39021e-01   2.12444e-03 DIIS
   @UHF iter   5:   -38.29896449254387   -1.95682e-02   2.40389e-04 DIIS
   @UHF iter   6:   -38.29953323919236   -5.68747e-04   9.62760e-05 DIIS
   @UHF iter   7:   -38.29961117085643   -7.79317e-05   4.09488e-05 DIIS
   @UHF iter   8:   -38.29963595038128   -2.47795e-05   1.56500e-05 DIIS
   @UHF iter   9:   -38.29964037682966   -4.42645e-06   3.22733e-06 DIIS
   @UHF iter  10:   -38.29964058914612   -2.12316e-07   1.02050e-06 DIIS
   @UHF iter  11:   -38.29964060572377   -1.65777e-08   3.25441e-07 DIIS
   @UHF iter  12:   -38.29964060766117   -1.93741e-09   1.61300e-07 DIIS
   @UHF iter  13:   -38.29964060823897   -5.77792e-10   7.13827e-08 DIIS
   @UHF iter  14:   -38.29964060835652   -1.17552e-10   2.69325e-08 DIIS
   @UHF iter  15:   -38.29964060837005   -1.35358e-11   7.88514e-09 DIIS
  Energy and wave function converged.


  ==> Post-Iterations <==

   @Spin Contamination Metric:   2.390668833E-02
   @S^2 Expected:                2.000000000E+00
   @S^2 Observed:                2.023906688E+00
   @S   Expected:                1.000000000E+00
   @S   Observed:                1.000000000E+00

    Orbital Energies [Eh]
    ---------------------

    Alpha Occupied:                                                       

       1A1   -10.969148     2A1    -0.583827     3A1    -0.159541  
       1B2    -0.078045     1B1    -0.078044  

    Alpha Virtual:                                                        

       4A1     0.146152     5A1     0.227993     2B2     0.231804  
       2B1     0.231804     6A1     0.287815     7A1     0.380520  
       3B1     0.403951     3B2     0.403951     8A1     0.423739  
       1A2     0.423739     9A1     0.458037     4B2     0.466628  
       4B1     0.466628    10A1     0.542518    11A1     0.642850  
       5B2     0.688124     5B1     0.688124    12A1     0.804613  
       6B1     0.860380     6B2     0.860380     2A2     0.895591  
      13A1     0.895591    14A1     0.966343     7B2     1.003691  
       7B1     1.003691    15A1     1.009794     3A2     1.032979  
      16A1     1.032979     8B2     1.078481     8B1     1.078481  
      17A1     1.130138     4A2     1.160362    18A1     1.160362  
       9B2     1.163408     9B1     1.163408    19A1     1.342522  
      10B2     1.530258    10B1     1.530258    20A1     1.698641  
      11B2     1.928613    11B1     1.928613    12B2     1.962167  
      12B1     1.962167    21A1     1.983239    22A1     2.173048  
       5A2     2.186171    23A1     2.186171    13B2     2.245815  
      13B1     2.245815    24A1     2.418226    25A1     2.423025  
       6A2     2.423025     7A2     2.437939    26A1     2.437939  
      14B2     2.478355    14B1     2.478355     8A2     2.564505  
      27A1     2.564505    15B2     2.579039    15B1     2.579039  
      28A1     2.592997    16B1     2.673741    16B2     2.673741  
      17B2     2.704270    17B1     2.704270    29A1     2.710146  
       9A2     2.711488    30A1     2.711488    18B2     2.949924  
      18B1     2.949924    31A1     3.207306    32A1     3.504227  
      19B1     3.765836    19B2     3.765836    10A2     3.823235  
      33A1     3.823235    34A1     4.307121    20B1     4.429799  
      20B2     4.429799    35A1     4.430283    36A1     6.185628  
      11A2     6.185628    21B2     6.212462    21B1     6.212462  
      22B2     6.241804    22B1     6.241804    37A1     6.279293  
      12A2     6.279293    38A1     6.306400    23B1     6.534076  
      23B2     6.534076    24B1     6.584713    24B2     6.584713  
      39A1     6.722095    13A2     6.722095    40A1     6.817040  
      25B2     6.825444    25B1     6.825444    41A1     6.918659  
      14A2     6.918659    42A1     7.006797    26B2     7.083879  
      26B1     7.083879    43A1     7.543695    27B1     7.623209  
      27B2     7.623209    44A1     7.958001    15A2     7.958001  
      28B1     8.541385    28B2     8.541385    45A1     8.613447  
      46A1     9.225679    16A2     9.225679    47A1     9.423020  
      29B1     9.644042    29B2     9.644042    30B1    10.226222  
      30B2    10.226222    48A1    10.635709    49A1    12.378986  
      50A1    23.351026  

    Beta Occupied:                                                        

       1A1   -10.934209     2A1    -0.422184     3A1    -0.087475  

    Beta Virtual:                                                         

       4A1     0.147618     1B2     0.219568     1B1     0.219568  
       5A1     0.231316     6A1     0.297377     2B2     0.384780  
       2B1     0.384780     7A1     0.389776     3B2     0.430493  
       3B1     0.430493     8A1     0.443159     1A2     0.443159  
       9A1     0.461178     4B2     0.493243     4B1     0.493243  
      10A1     0.558789    11A1     0.657951     5B1     0.790441  
       5B2     0.790441    12A1     0.829571     6B2     0.876485  
       6B1     0.876485    13A1     0.916148     2A2     0.916148  
      14A1     0.985267     7B1     1.027174     7B2     1.027174  
      15A1     1.036977    16A1     1.077123     3A2     1.077123  
       8B2     1.100507     8B1     1.100507    17A1     1.137561  
       9B2     1.183644     9B1     1.183644    18A1     1.198420  
       4A2     1.198420    19A1     1.362157    10B1     1.568314  
      10B2     1.568314    20A1     1.715466    11B2     1.939455  
      11B1     1.939455    21A1     1.990199    12B1     1.999696  
      12B2     1.999696    22A1     2.186076    23A1     2.193589  
       5A2     2.193589    13B1     2.288569    13B2     2.288569  
      24A1     2.451499     6A2     2.451499    25A1     2.452119  
      26A1     2.480511     7A2     2.480511    14B1     2.520986  
      14B2     2.520986    27A1     2.615046    15B1     2.625142  
      15B2     2.625142    28A1     2.637692     8A2     2.637692  
      16B1     2.688553    16B2     2.688553    29A1     2.730177  
      17B2     2.731084    17B1     2.731084    30A1     2.741040  
       9A2     2.741040    18B1     2.969212    18B2     2.969212  
      31A1     3.232363    32A1     3.521069    19B1     3.774452  
      19B2     3.774452    33A1     3.839222    10A2     3.839222  
      34A1     4.317175    35A1     4.446873    20B1     4.453267  
      20B2     4.453267    36A1     6.210281    11A2     6.210281  
      21B1     6.256618    21B2     6.256618    22B2     6.270609  
      22B1     6.270609    37A1     6.323130    12A2     6.323130  
      38A1     6.326172    23B1     6.561968    23B2     6.561968  
      24B1     6.615903    24B2     6.615903    39A1     6.781556  
      13A2     6.781556    40A1     6.847857    25B2     6.886730  
      25B1     6.886730    41A1     6.967663    14A2     6.967663  
      42A1     7.023841    26B2     7.093053    26B1     7.093053  
      43A1     7.552019    27B1     7.655235    27B2     7.655235  
      44A1     7.969632    15A2     7.969632    28B1     8.543903  
      28B2     8.543903    45A1     8.616488    46A1     9.227211  
      16A2     9.227211    47A1     9.429006    29B1     9.646160  
      29B2     9.646160    30B1    10.236121    30B2    10.236121  
      48A1    10.639265    49A1    12.383134    50A1    23.374123  

    Final Occupation by Irrep:
             A1    A2    B1    B2 
    DOCC [     3,    0,    0,    0 ]
    SOCC [     0,    0,    1,    1 ]

  @UHF Final Energy:   -38.29964060837005

   => Energetics <=

    Nuclear Repulsion Energy =              2.8109473241059550
    One-Electron Energy =                 -58.9087034053631129
    Two-Electron Energy =                  17.7981154728871047
    Total Energy =                        -38.2996406083700549

  UHF NO Occupations:
  HONO-2 :    3 A1 1.9902833
  HONO-1 :    1 B1 1.0000000
  HONO-0 :    1 B2 1.0000000
  LUNO+0 :    4 A1 0.0097167
  LUNO+1 :    5 A1 0.0022843
  LUNO+2 :    6 A1 0.0000022
  LUNO+3 :    7 A1 0.0000000


Computation Completed


Properties will be evaluated at   0.000000,   0.000000,   0.000000 [a0]

Properties computed using the SCF density matrix

  Nuclear Dipole Moment: [e a0]
     X:     0.0000      Y:     0.0000      Z:    -0.9769

  Electronic Dipole Moment: [e a0]
     X:     0.0000      Y:     0.0000      Z:     0.3919

  Dipole Moment: [e a0]
     X:     0.0000      Y:     0.0000      Z:    -0.5850     Total:     0.5850

  Dipole Moment: [D]
     X:     0.0000      Y:     0.0000      Z:    -1.4868     Total:     1.4868


*** tstop() called on n412-037.vsc4.prov at Wed Jan 20 18:14:40 2021
Module time:
	user time   =      53.66 seconds =       0.89 minutes
	system time =       1.54 seconds =       0.03 minutes
	total time  =         11 seconds =       0.18 minutes
Total time:
	user time   =      53.66 seconds =       0.89 minutes
	system time =       1.54 seconds =       0.03 minutes
	total time  =         11 seconds =       0.18 minutes

*** tstart() called on n412-037.vsc4.prov
*** at Wed Jan 20 18:14:40 2021


	Wfn Parameters:
	--------------------
	Wavefunction         = CCSD_T
	Number of irreps     = 4
	Number of MOs        = 126
	Number of active MOs = 125
	AO-Basis             = NONE
	Semicanonical        = false
	Reference            = UHF
	Print Level          = 1

	IRREP	# MOs	# FZDC	# DOCC	# SOCC	# VIRT	# FZVR
	-----	-----	------	------	------	------	------
	 A1	   50	    1	    2	    0	    47	    0
	 A2	   16	    0	    0	    0	    16	    0
	 B1	   30	    0	    0	    1	    29	    0
	 B2	   30	    0	    0	    1	    29	    0
	Transforming integrals...
	IWL integrals will be deleted.
	(OO|OO)...
	Presorting SO-basis two-electron integrals.
	Sorting File: SO Ints (nn|nn) nbuckets = 1
	Constructing frozen core operators
	Starting AA/AB first half-transformation.
	Sorting AA/AB half-transformed integrals.
	Starting BB first half-transformation.
	Sorting BB half-transformed integrals.
	First half integral transformation complete.
	Starting AA second half-transformation.
	Starting AB second half-transformation.
	Starting BB second half-transformation.
	Two-electron integral transformation complete.
	(OO|OV)...
	Starting AA second half-transformation.
	Starting AB second half-transformation.
	Starting BB second half-transformation.
	Two-electron integral transformation complete.
	(OO|VV)...
	Starting AA second half-transformation.
	Starting AB second half-transformation.
	Starting BB second half-transformation.
	Two-electron integral transformation complete.
	(OV|OO)...
	Starting AA/AB first half-transformation.
	Sorting AA/AB half-transformed integrals.
	Starting BB first half-transformation.
	Sorting BB half-transformed integrals.
	First half integral transformation complete.
	Starting AA second half-transformation.
	Starting AB second half-transformation.
	Starting BB second half-transformation.
	Two-electron integral transformation complete.
	(OV|OV)...
	Starting AA second half-transformation.
	Starting AB second half-transformation.
	Starting BB second half-transformation.
	Two-electron integral transformation complete.
	(OV|VV)...
	Starting AA second half-transformation.
	Starting AB second half-transformation.
	Starting BB second half-transformation.
	Two-electron integral transformation complete.
	(VV|OO)...
	Starting AA/AB first half-transformation.
	Sorting AA/AB half-transformed integrals.
	Starting BB first half-transformation.
	Sorting BB half-transformed integrals.
	First half integral transformation complete.
	Starting AA second half-transformation.
	Starting AB second half-transformation.
	Starting BB second half-transformation.
	Two-electron integral transformation complete.
	(VV|OV)...
	Starting AA second half-transformation.
	Starting AB second half-transformation.
	Starting BB second half-transformation.
	Two-electron integral transformation complete.
	(VV|VV)...
	Starting AA second half-transformation.
	Starting AB second half-transformation.
	Starting BB second half-transformation.
	Two-electron integral transformation complete.
	Frozen core energy     =    -33.29690675051935

	Size of irrep 0 of <AB|CD> integrals:      4.052 (MW) /     32.417 (MB)
	Size of irrep 1 of <AB|CD> integrals:      2.538 (MW) /     20.301 (MB)
	Size of irrep 2 of <AB|CD> integrals:      3.338 (MW) /     26.703 (MB)
	Size of irrep 3 of <AB|CD> integrals:      3.338 (MW) /     26.703 (MB)
	Total:                                    13.266 (MW) /    106.125 (MB)

	Size of irrep 0 of <ab|cd> integrals:      4.289 (MW) /     34.312 (MB)
	Size of irrep 1 of <ab|cd> integrals:      2.729 (MW) /     21.833 (MB)
	Size of irrep 2 of <ab|cd> integrals:      3.572 (MW) /     28.577 (MB)
	Size of irrep 3 of <ab|cd> integrals:      3.572 (MW) /     28.577 (MB)
	Total:                                    14.162 (MW) /    113.299 (MB)

	Size of irrep 0 of <Ab|Cd> integrals:     17.682 (MW) /    141.456 (MB)
	Size of irrep 1 of <Ab|Cd> integrals:     10.524 (MW) /     84.188 (MB)
	Size of irrep 2 of <Ab|Cd> integrals:     13.816 (MW) /    110.529 (MB)
	Size of irrep 3 of <Ab|Cd> integrals:     13.816 (MW) /    110.529 (MB)
	Total:                                    55.838 (MW) /    446.702 (MB)

	Size of irrep 0 of <IA|BC> integrals:      0.630 (MW) /      5.043 (MB)
	Size of irrep 1 of <IA|BC> integrals:      0.287 (MW) /      2.294 (MB)
	Size of irrep 2 of <IA|BC> integrals:      0.442 (MW) /      3.537 (MB)
	Size of irrep 3 of <IA|BC> integrals:      0.442 (MW) /      3.537 (MB)
	Total:                                     1.801 (MW) /     14.411 (MB)

	Size of irrep 0 of <ia|bc> integrals:      0.401 (MW) /      3.207 (MB)
	Size of irrep 1 of <ia|bc> integrals:      0.106 (MW) /      0.846 (MB)
	Size of irrep 2 of <ia|bc> integrals:      0.227 (MW) /      1.814 (MB)
	Size of irrep 3 of <ia|bc> integrals:      0.227 (MW) /      1.814 (MB)
	Total:                                     0.960 (MW) /      7.682 (MB)

	Size of irrep 0 of <Ia|Bc> integrals:      0.648 (MW) /      5.181 (MB)
	Size of irrep 1 of <Ia|Bc> integrals:      0.298 (MW) /      2.388 (MB)
	Size of irrep 2 of <Ia|Bc> integrals:      0.457 (MW) /      3.658 (MB)
	Size of irrep 3 of <Ia|Bc> integrals:      0.457 (MW) /      3.658 (MB)
	Total:                                     1.860 (MW) /     14.883 (MB)

	Size of irrep 0 of <iA|bC> integrals:      0.395 (MW) /      3.162 (MB)
	Size of irrep 1 of <iA|bC> integrals:      0.104 (MW) /      0.830 (MB)
	Size of irrep 2 of <iA|bC> integrals:      0.216 (MW) /      1.725 (MB)
	Size of irrep 3 of <iA|bC> integrals:      0.216 (MW) /      1.725 (MB)
	Total:                                     0.930 (MW) /      7.442 (MB)

	Size of irrep 0 of tIjAb amplitudes:       0.017 (MW) /      0.135 (MB)
	Size of irrep 1 of tIjAb amplitudes:       0.000 (MW) /      0.000 (MB)
	Size of irrep 2 of tIjAb amplitudes:       0.007 (MW) /      0.059 (MB)
	Size of irrep 3 of tIjAb amplitudes:       0.007 (MW) /      0.059 (MB)
	Total:                                     0.032 (MW) /      0.254 (MB)

	Nuclear Rep. energy          =      2.81094732410596
	SCF energy                   =    -38.29964060837005
	One-electron energy          =    -14.21824674452465
	Two-electron (AA) energy     =      2.35466715294276
	Two-electron (BB) energy     =      0.34622855481024
	Two-electron (AB) energy     =      3.70366985481394
	Two-electron energy          =      6.40456556256694
	Reference energy             =    -38.29964060837111

*** tstop() called on n412-037.vsc4.prov at Wed Jan 20 18:15:07 2021
Module time:
	user time   =       7.57 seconds =       0.13 minutes
	system time =       3.31 seconds =       0.06 minutes
	total time  =         27 seconds =       0.45 minutes
Total time:
	user time   =      61.24 seconds =       1.02 minutes
	system time =       4.85 seconds =       0.08 minutes
	total time  =         38 seconds =       0.63 minutes
            **************************
            *                        *
            *        CCENERGY        *
            *                        *
            **************************

    Nuclear Rep. energy (wfn)     =    2.810947324105955
    SCF energy          (wfn)     =  -38.299640608370055
    Reference energy    (file100) =  -38.299640608371107

    Input parameters:
    -----------------
    Wave function   =     CCSD_T
    Reference wfn   =     UHF
    Brueckner       =     No
    Memory (Mbytes) =     250000.0
    Maxiter         =     50
    R_Convergence   =     1.0e-07
    E_Convergence   =     1.0e-06
    Restart         =     Yes
    DIIS            =     Yes
    AO Basis        =     NONE
    ABCD            =     NEW
    Cache Level     =     2
    Cache Type      =     LRU
    Print Level     =     1
    Num. of threads =     48
    # Amps to Print =     10
    Print MP2 Amps? =     No
    Analyze T2 Amps =     No
    Print Pair Ener =     No
    Local CC        =     No
    SCS-MP2         =     False
    SCSN-MP2        =     False
    SCS-CCSD        =     False

MP2 correlation energy -0.1402836385612846
                Solving CC Amplitude Equations
                ------------------------------
  Iter             Energy              RMS        T1Diag      D1Diag    New D1Diag    D2Diag
  ----     ---------------------    ---------   ----------  ----------  ----------   --------
     0        -0.140283638561285    0.000e+00    0.000000    0.000000    0.000000    0.000000
     1        -0.150356400211197    5.150e-02    0.014925    0.000000    0.000000    0.000000
     2        -0.155223115150965    2.170e-02    0.021537    0.000000    0.000000    0.000000
     3        -0.156357408282745    1.204e-02    0.027303    0.000000    0.000000    0.000000
     4        -0.156270922819964    5.421e-03    0.030505    0.000000    0.000000    0.000000
     5        -0.156275055019467    2.325e-03    0.031683    0.000000    0.000000    0.000000
     6        -0.156283774881719    1.001e-03    0.031979    0.000000    0.000000    0.000000
     7        -0.156285407934355    4.381e-04    0.031963    0.000000    0.000000    0.000000
     8        -0.156291828820541    2.277e-04    0.031960    0.000000    0.000000    0.000000
     9        -0.156292030652448    1.167e-04    0.031951    0.000000    0.000000    0.000000
    10        -0.156291145197502    5.777e-05    0.031938    0.000000    0.000000    0.000000
    11        -0.156291931294446    2.532e-05    0.031938    0.000000    0.000000    0.000000
    12        -0.156292307121199    1.123e-05    0.031937    0.000000    0.000000    0.000000
    13        -0.156292552646379    5.259e-06    0.031938    0.000000    0.000000    0.000000
    14        -0.156292567852041    2.503e-06    0.031938    0.000000    0.000000    0.000000
    15        -0.156292538474809    1.382e-06    0.031938    0.000000    0.000000    0.000000
    16        -0.156292520019794    6.615e-07    0.031938    0.000000    0.000000    0.000000
    17        -0.156292509768906    2.817e-07    0.031938    0.000000    0.000000    0.000000
    18        -0.156292510245421    1.326e-07    0.031938    0.000000    0.000000    0.000000
    19        -0.156292511573404    6.571e-08    0.031938    0.000000    0.000000    0.000000

    Iterations converged.


    Largest TIA Amplitudes:
              3  92        -0.0408366848
              2  63        -0.0408366746
              3  93        -0.0146303401
              2  64        -0.0146303356
              1   1        -0.0129423815
              0   1         0.0071641200
              1   5         0.0067504091
              0   7        -0.0063885182
              1   2        -0.0058073951
              1  10        -0.0052954346

    Largest Tia Amplitudes:
              1   7        -0.0148974109
              0   6        -0.0141518160
              0   8        -0.0133024202
              0  10        -0.0131609918
              1  15         0.0110528431
              1   5        -0.0092227951
              0   3         0.0091496016
              1   2         0.0083048913
              1   3        -0.0081969148
              0  16         0.0080919778

    Largest TIJAB Amplitudes:
      3   2  92  63        -0.0275086737
      3   2  95  66        -0.0261253435
      3   2  95  63        -0.0236618803
      3   2  92  66        -0.0236618734
      2   1  66   8         0.0136237611
      3   1  95   8         0.0136237608
      2   1  64   8         0.0126416835
      3   1  93   8         0.0126416813
      2   1  66   7         0.0126210338
      3   1  95   7         0.0126210329

    Largest Tijab Amplitudes:
      1   0   7   6        -0.0066618990
      1   0   6   1        -0.0057753031
      1   0  95  94         0.0055892371
      1   0  65  64         0.0055892369
      1   0  98  94        -0.0051046210
      1   0  68  64        -0.0051046208
      1   0  98  96        -0.0046807821
      1   0  68  66        -0.0046807819
      1   0  96  95        -0.0043870204
      1   0  66  65        -0.0043870202

    Largest TIjAb Amplitudes:
      1   1   8   8        -0.0378051553
      1   1   8   3         0.0222395056
      1   1   3   8         0.0220624319
      1   1   7   7        -0.0209200949
      2   1  63   1        -0.0198575037
      3   1  92   1        -0.0198574919
      2   1  66   7         0.0196798770
      3   1  95   7         0.0196798755
      1   1   8  10        -0.0179018711
      2   1  66   1        -0.0178472353

    SCF energy       (wfn)                    =  -38.299640608370055
    Reference energy (file100)                =  -38.299640608371107

    Opposite-spin MP2 correlation energy      =   -0.107076155359322
    Same-spin MP2 correlation energy          =   -0.033207483201963
    Singles MP2 correlation energy            =   -0.000000000000000
    MP2 correlation energy                    =   -0.140283638561285
      * MP2 total energy                      =  -38.439924246932392

    Opposite-spin CCSD correlation energy     =   -0.122543930337649
    Same-spin CCSD correlation energy         =   -0.033748581235759
    Singles CCSD correlation energy           =    0.000000000000003
    CCSD correlation energy                   =   -0.156292511573404
      * CCSD total energy                     =  -38.455933119944511

            **************************
            *                        *
            *        CCTRIPLES       *
            *                        *
            **************************


    Wave function   =    CCSD_T
    Reference wfn   =      UHF

    Nuclear Rep. energy (wfn)                =    2.810947324105955
    SCF energy          (wfn)                =  -38.299640608370055
    Reference energy    (file100)            =  -38.299640608371107
    CCSD energy         (file100)            =   -0.156292511573404
    Total CCSD energy   (file100)            =  -38.455933119944511

    Number of ijk index combinations:
    Spin Case AAA:                                   4
    Spin Case BBB:                                   0
    Spin Case AAB:                                  12
    Spin Case ABB:                                   4
    AAA (T) energy                             =   -0.000492734140934
    BBB (T) energy                             =    0.000000000000000
    AAB (T) energy                             =   -0.005147210716986
    ABB (T) energy                             =   -0.001080213613513
    (T) energy                                   =   -0.006720158471432
      * CCSD(T) total energy                     =  -38.462653278415942


    Psi4 stopped on: Wednesday, 20 January 2021 06:15PM
    Psi4 wall time for execution: 0:01:13.36

*** Psi4 exiting successfully. Buy a developer a beer!
