
    -----------------------------------------------------------------------
          Psi4: An Open-Source Ab Initio Electronic Structure Package
                               Psi4 1.4a3.dev88 

                         Git: Rev {master} 262e345 


    D. G. A. Smith, L. A. Burns, A. C. Simmonett, R. M. Parrish,
    M. C. Schieber, R. Galvelis, P. Kraus, H. Kruse, R. Di Remigio,
    A. Alenaizan, A. M. James, S. Lehtola, J. P. Misiewicz, M. Scheurer,
    R. A. Shaw, J. B. Schriber, Y. Xie, Z. L. Glick, D. A. Sirianni,
    J. S. O'Brien, J. M. Waldrop, A. Kumar, E. G. Hohenstein,
    B. P. Pritchard, B. R. Brooks, H. F. Schaefer III, A. Yu. Sokolov,
    K. Patkowski, A. E. DePrince III, U. Bozkaya, R. A. King,
    F. A. Evangelista, J. M. Turney, T. D. Crawford, C. D. Sherrill,
    J. Chem. Phys. 152(18) 184108 (2020). https://doi.org/10.1063/5.0006002

                            Additional Code Authors
    E. T. Seidl, C. L. Janssen, E. F. Valeev, M. L. Leininger,
    J. F. Gonthier, R. M. Richard, H. R. McAlexander, M. Saitow, X. Wang,
    P. Verma, and M. H. Lechner

             Previous Authors, Complete List of Code Contributors,
                       and Citations for Specific Modules
    https://github.com/psi4/psi4/blob/master/codemeta.json
    https://github.com/psi4/psi4/graphs/contributors
    http://psicode.org/psi4manual/master/introduction.html#citing-psifour

    -----------------------------------------------------------------------


    Psi4 started on: Tuesday, 26 January 2021 06:39PM

    Process ID: 412299
    Host:       n412-039.vsc4.prov
    PSIDATADIR: /home/fs71337/gallo4/psi4/eri-6/psi4/build/stage/share/psi4
    Memory:     500.0 MiB
    Threads:    48
    
  ==> Input File <==

--------------------------------------------------------------------------
# Any line starting with the # character is a comment line
memory 250000 mb
molecule molecule{
0 1
C          0.0000000000        0.0000000000        0.6665882445
C          0.0000000000        0.0000000000       -0.6665882445
H          0.0000000000        0.9233992299        1.2285968100
H          0.0000000000       -0.9233992299        1.2285968100
H          0.0000000000        0.9233992299       -1.2285968100
H          0.0000000000       -0.9233992299       -1.2285968100
}

set {
  reference rhf
  basis aug-cc-pV(d+d)Z
  scf_type OUT_OF_CORE
  freeze_core true
}

energy('ccsd(t)')
--------------------------------------------------------------------------

  Memory set to 232.831 GiB by Python driver.

Scratch directory: /binfl/lv71337/airmler/temp/

*** tstart() called on n412-039.vsc4.prov
*** at Tue Jan 26 18:39:02 2021

   => Loading Basis Set <=

    Name: AUG-CC-PV(D+D)Z
    Role: ORBITAL
    Keyword: BASIS
    atoms 1-2 entry C          line   210 file /home/fs71337/gallo4/psi4/eri-6/psi4/build/stage/share/psi4/basis/aug-cc-pv_dpd_z.gbs 
    atoms 3-6 entry H          line    68 file /home/fs71337/gallo4/psi4/eri-6/psi4/build/stage/share/psi4/basis/aug-cc-pv_dpd_z.gbs 


         ---------------------------------------------------------
                                   SCF
               by Justin Turney, Rob Parrish, Andy Simmonett
                          and Daniel G. A. Smith
                              RHF Reference
                       48 Threads, 238418 MiB Core
         ---------------------------------------------------------

  ==> Geometry <==

    Molecular point group: d2h
    Full point group: D2h

    Geometry (in Angstrom), charge = 0, multiplicity = 1:

       Center              X                  Y                   Z               Mass       
    ------------   -----------------  -----------------  -----------------  -----------------
         C           -0.000000000000     0.000000000000     0.666588244500    12.000000000000
         C           -0.000000000000     0.000000000000    -0.666588244500    12.000000000000
         H           -0.000000000000     0.923399229900     1.228596810000     1.007825032230
         H            0.000000000000    -0.923399229900     1.228596810000     1.007825032230
         H           -0.000000000000     0.923399229900    -1.228596810000     1.007825032230
         H            0.000000000000    -0.923399229900    -1.228596810000     1.007825032230

  Running in d2h symmetry.

  Rotational constants: A =      4.90425  B =      1.00647  C =      0.83509 [cm^-1]
  Rotational constants: A = 147025.63062  B =  30173.31544  C =  25035.42391 [MHz]
  Nuclear repulsion =   33.410684914907506

  Charge       = 0
  Multiplicity = 1
  Electrons    = 16
  Nalpha       = 8
  Nbeta        = 8

  ==> Algorithm <==

  SCF Algorithm Type is OUT_OF_CORE.
  DIIS enabled.
  MOM disabled.
  Fractional occupation disabled.
  Guess Type is SAD.
  Energy threshold   = 1.00e-08
  Density threshold  = 1.00e-08
  Integral threshold = 1.00e-12

  ==> Primary Basis <==

  Basis Set: AUG-CC-PV(D+D)Z
    Blend: AUG-CC-PV(D+D)Z
    Number of shells: 38
    Number of basis function: 82
    Number of Cartesian functions: 86
    Spherical Harmonics?: true
    Max angular momentum: 2

  ==> Integral Setup <==

  ==> DiskJK: Disk-Based J/K Matrices <==

    J tasked:                  Yes
    K tasked:                  Yes
    wK tasked:                  No
    Memory [MiB]:           178813
    Schwarz Cutoff:          1E-12

  Minimum eigenvalue in the overlap matrix is 1.4432487142E-04.
  Reciprocal condition number of the overlap matrix is 2.1532953999E-05.
    Using symmetric orthogonalization.

  ==> Pre-Iterations <==

  SCF Guess: Superposition of Atomic Densities via on-the-fly atomic UHF (no occupation information).


 WARNING: Atomic UHF is not converging! Try casting from a smaller basis or call Rob at CCMST.

 WARNING: Atomic UHF is not converging! Try casting from a smaller basis or call Rob at CCMST.
   -------------------------
    Irrep   Nso     Nmo    
   -------------------------
     Ag        18      18 
     B1g        4       4 
     B2g        7       7 
     B3g       12      12 
     Au         4       4 
     B1u       18      18 
     B2u       12      12 
     B3u        7       7 
   -------------------------
    Total      82      82
   -------------------------

  ==> Iterations <==

                        Total Energy        Delta E     RMS |[F,P]|

   @RHF iter SAD:   -74.05143064563332   -7.40514e+01   0.00000e+00 
   @RHF iter   1:   -77.68214873830024   -3.63072e+00   2.33751e-02 DIIS
   @RHF iter   2:   -77.98115635096376   -2.99008e-01   9.99943e-03 DIIS
   @RHF iter   3:   -78.04210754679427   -6.09512e-02   1.10641e-03 DIIS
   @RHF iter   4:   -78.04349282965251   -1.38528e-03   2.25949e-04 DIIS
   @RHF iter   5:   -78.04358395364457   -9.11240e-05   4.56262e-05 DIIS
   @RHF iter   6:   -78.04358813322487   -4.17958e-06   7.17103e-06 DIIS
   @RHF iter   7:   -78.04358822834963   -9.51248e-08   8.16080e-07 DIIS
   @RHF iter   8:   -78.04358822963934   -1.28971e-09   1.53733e-07 DIIS
   @RHF iter   9:   -78.04358822966913   -2.97860e-11   1.43247e-08 DIIS
   @RHF iter  10:   -78.04358822966947   -3.41061e-13   1.21833e-09 DIIS
  Energy and wave function converged.


  ==> Post-Iterations <==

    Orbital Energies [Eh]
    ---------------------

    Doubly Occupied:                                                      

       1Ag   -11.239043     1B1u  -11.237371     2Ag    -1.036600  
       2B1u   -0.794226     1B2u   -0.644769     3Ag    -0.587209  
       1B3g   -0.507961     1B3u   -0.376484  

    Virtual:                                                              

       4Ag     0.040444     3B1u    0.050373     2B2u    0.051297  
       2B3g    0.070818     1B2g    0.102156     2B3u    0.120560  
       5Ag     0.127467     4B1u    0.146924     3B2u    0.177365  
       6Ag     0.178502     3B3g    0.206322     2B2g    0.209175  
       5B1u    0.223827     7Ag     0.251311     4B2u    0.295569  
       1B1g    0.326794     6B1u    0.329374     1Au     0.403074  
       8Ag     0.408594     7B1u    0.413855     3B3u    0.439973  
       4B3g    0.451832     5B2u    0.470840     9Ag     0.532118  
       5B3g    0.540672     3B2g    0.548883     6B2u    0.558889  
      10Ag     0.602073     4B3u    0.608688     7B2u    0.616385  
       8B1u    0.617515     6B3g    0.631804    11Ag     0.638827  
       2B1g    0.652564     9B1u    0.694103     4B2g    0.728752  
      10B1u    0.730133    11B1u    0.801052     2Au     0.847348  
       5B3u    0.884069     7B3g    0.889646    12Ag     1.001468  
       5B2g    1.088579     8B2u    1.183134    12B1u    1.234287  
       8B3g    1.286680    13Ag     1.445726     9B2u    1.452400  
       6B3u    1.513688     3B1g    1.522317    13B1u    1.621004  
      14Ag     1.691696     9B3g    1.769218     3Au     1.791507  
      15Ag     1.852179     6B2g    1.882204    10B2u    1.957126  
      16Ag     2.017262    14B1u    2.062358     7B3u    2.092814  
      10B3g    2.119732    15B1u    2.127201     4B1g    2.144245  
      11B2u    2.176614     7B2g    2.386460     4Au     2.446913  
      16B1u    2.474127    17Ag     2.634034    11B3g    2.681249  
      17B1u    2.797567    18Ag     2.819519    12B2u    2.903527  
      18B1u    3.432453    12B3g    3.494745  

    Final Occupation by Irrep:
             Ag   B1g   B2g   B3g    Au   B1u   B2u   B3u 
    DOCC [     3,    0,    0,    1,    0,    2,    1,    1 ]

  @RHF Final Energy:   -78.04358822966947

   => Energetics <=

    Nuclear Repulsion Energy =             33.4106849149075060
    One-Electron Energy =                -170.0612209706361853
    Two-Electron Energy =                  58.6069478260592049
    Total Energy =                        -78.0435882296694672

Computation Completed


Properties will be evaluated at   0.000000,   0.000000,   0.000000 [a0]

Properties computed using the SCF density matrix

  Nuclear Dipole Moment: [e a0]
     X:     0.0000      Y:     0.0000      Z:     0.0000

  Electronic Dipole Moment: [e a0]
     X:     0.0000      Y:     0.0000      Z:     0.0000

  Dipole Moment: [e a0]
     X:     0.0000      Y:     0.0000      Z:     0.0000     Total:     0.0000

  Dipole Moment: [D]
     X:     0.0000      Y:     0.0000      Z:     0.0000     Total:     0.0000


*** tstop() called on n412-039.vsc4.prov at Tue Jan 26 18:39:04 2021
Module time:
	user time   =      19.82 seconds =       0.33 minutes
	system time =       1.10 seconds =       0.02 minutes
	total time  =          2 seconds =       0.03 minutes
Total time:
	user time   =      19.82 seconds =       0.33 minutes
	system time =       1.10 seconds =       0.02 minutes
	total time  =          2 seconds =       0.03 minutes

*** tstart() called on n412-039.vsc4.prov
*** at Tue Jan 26 18:39:04 2021


	Wfn Parameters:
	--------------------
	Wavefunction         = CCSD_T
	Number of irreps     = 8
	Number of MOs        = 82
	Number of active MOs = 80
	AO-Basis             = NONE
	Semicanonical        = false
	Reference            = RHF
	Print Level          = 1

	IRREP	# MOs	# FZDC	# DOCC	# SOCC	# VIRT	# FZVR
	-----	-----	------	------	------	------	------
	 Ag	   18	    1	    2	    0	    15	    0
	 B1g	   4	    0	    0	    0	    4	    0
	 B2g	   7	    0	    0	    0	    7	    0
	 B3g	   12	    0	    1	    0	    11	    0
	 Au	   4	    0	    0	    0	    4	    0
	 B1u	   18	    1	    1	    0	    16	    0
	 B2u	   12	    0	    1	    0	    11	    0
	 B3u	   7	    0	    1	    0	    6	    0
	Transforming integrals...
	IWL integrals will be deleted.
	(OO|OO)...
	Presorting SO-basis two-electron integrals.
	Sorting File: SO Ints (nn|nn) nbuckets = 1
	Constructing frozen core operators
	Starting first half-transformation.
	Sorting half-transformed integrals.
	First half integral transformation complete.
	Starting second half-transformation.
	Two-electron integral transformation complete.
	(OO|OV)...
	Starting second half-transformation.
	Two-electron integral transformation complete.
	(OO|VV)...
	Starting second half-transformation.
	Two-electron integral transformation complete.
	(OV|OO)...
	Starting first half-transformation.
	Sorting half-transformed integrals.
	First half integral transformation complete.
	Starting second half-transformation.
	Two-electron integral transformation complete.
	(OV|OV)...
	Starting second half-transformation.
	Two-electron integral transformation complete.
	(OV|VV)...
	Starting second half-transformation.
	Two-electron integral transformation complete.
	(VV|OO)...
	Starting first half-transformation.
	Sorting half-transformed integrals.
	First half integral transformation complete.
	Starting second half-transformation.
	Two-electron integral transformation complete.
	(VV|OV)...
	Starting second half-transformation.
	Two-electron integral transformation complete.
	(VV|VV)...
	Starting second half-transformation.
	Two-electron integral transformation complete.
	Frozen core energy     =    -78.57991022402474

	Size of irrep 0 of <ab|cd> integrals:      0.706 (MW) /      5.645 (MB)
	Size of irrep 1 of <ab|cd> integrals:      0.285 (MW) /      2.281 (MB)
	Size of irrep 2 of <ab|cd> integrals:      0.334 (MW) /      2.673 (MB)
	Size of irrep 3 of <ab|cd> integrals:      0.618 (MW) /      4.942 (MB)
	Size of irrep 4 of <ab|cd> integrals:      0.285 (MW) /      2.281 (MB)
	Size of irrep 5 of <ab|cd> integrals:      0.702 (MW) /      5.618 (MB)
	Size of irrep 6 of <ab|cd> integrals:      0.618 (MW) /      4.942 (MB)
	Size of irrep 7 of <ab|cd> integrals:      0.336 (MW) /      2.691 (MB)
	Total:                                     3.884 (MW) /     31.074 (MB)

	Size of irrep 0 of <ia|bc> integrals:      0.062 (MW) /      0.497 (MB)
	Size of irrep 1 of <ia|bc> integrals:      0.019 (MW) /      0.154 (MB)
	Size of irrep 2 of <ia|bc> integrals:      0.025 (MW) /      0.203 (MB)
	Size of irrep 3 of <ia|bc> integrals:      0.053 (MW) /      0.428 (MB)
	Size of irrep 4 of <ia|bc> integrals:      0.019 (MW) /      0.154 (MB)
	Size of irrep 5 of <ia|bc> integrals:      0.064 (MW) /      0.510 (MB)
	Size of irrep 6 of <ia|bc> integrals:      0.053 (MW) /      0.428 (MB)
	Size of irrep 7 of <ia|bc> integrals:      0.024 (MW) /      0.195 (MB)
	Total:                                     0.321 (MW) /      2.568 (MB)

	Size of irrep 0 of tijab amplitudes:       0.007 (MW) /      0.054 (MB)
	Size of irrep 1 of tijab amplitudes:       0.001 (MW) /      0.009 (MB)
	Size of irrep 2 of tijab amplitudes:       0.001 (MW) /      0.009 (MB)
	Size of irrep 3 of tijab amplitudes:       0.005 (MW) /      0.038 (MB)
	Size of irrep 4 of tijab amplitudes:       0.001 (MW) /      0.009 (MB)
	Size of irrep 5 of tijab amplitudes:       0.005 (MW) /      0.040 (MB)
	Size of irrep 6 of tijab amplitudes:       0.005 (MW) /      0.038 (MB)
	Size of irrep 7 of tijab amplitudes:       0.002 (MW) /      0.019 (MB)
	Total:                                     0.027 (MW) /      0.214 (MB)

	Nuclear Rep. energy          =     33.41068491490751
	SCF energy                   =    -78.04358822966947
	One-electron energy          =    -57.85422858524088
	Two-electron energy          =     24.97986566468875
	Reference energy             =    -78.04358822966937

*** tstop() called on n412-039.vsc4.prov at Tue Jan 26 18:39:07 2021
Module time:
	user time   =       0.28 seconds =       0.00 minutes
	system time =       0.54 seconds =       0.01 minutes
	total time  =          3 seconds =       0.05 minutes
Total time:
	user time   =      20.10 seconds =       0.34 minutes
	system time =       1.64 seconds =       0.03 minutes
	total time  =          5 seconds =       0.08 minutes
            **************************
            *                        *
            *        CCENERGY        *
            *                        *
            **************************

    Nuclear Rep. energy (wfn)     =   33.410684914907506
    SCF energy          (wfn)     =  -78.043588229669467
    Reference energy    (file100) =  -78.043588229669368

    Input parameters:
    -----------------
    Wave function   =     CCSD_T
    Reference wfn   =     RHF
    Brueckner       =     No
    Memory (Mbytes) =     250000.0
    Maxiter         =     50
    R_Convergence   =     1.0e-07
    E_Convergence   =     1.0e-06
    Restart         =     Yes
    DIIS            =     Yes
    AO Basis        =     NONE
    ABCD            =     NEW
    Cache Level     =     2
    Cache Type      =     LOW
    Print Level     =     1
    Num. of threads =     48
    # Amps to Print =     10
    Print MP2 Amps? =     No
    Analyze T2 Amps =     No
    Print Pair Ener =     No
    Local CC        =     No
    SCS-MP2         =     False
    SCSN-MP2        =     False
    SCS-CCSD        =     False

MP2 correlation energy -0.2846332171520786
                Solving CC Amplitude Equations
                ------------------------------
  Iter             Energy              RMS        T1Diag      D1Diag    New D1Diag    D2Diag
  ----     ---------------------    ---------   ----------  ----------  ----------   --------
     0        -0.284633217152079    0.000e+00    0.000000    0.000000    0.000000    0.160985
     1        -0.303093001947206    5.217e-02    0.007251    0.019235    0.019235    0.174178
     2        -0.312567017946327    2.036e-02    0.008844    0.024131    0.024131    0.188893
     3        -0.313647776997318    6.842e-03    0.009902    0.027569    0.027569    0.194388
     4        -0.313743739518380    2.339e-03    0.010111    0.028523    0.028523    0.196810
     5        -0.313759810085312    5.068e-04    0.010139    0.028669    0.028669    0.197199
     6        -0.313756315119796    1.362e-04    0.010140    0.028693    0.028693    0.197233
     7        -0.313756632585916    2.688e-05    0.010139    0.028694    0.028694    0.197235
     8        -0.313756903514149    7.458e-06    0.010139    0.028695    0.028695    0.197236
     9        -0.313756796598613    1.893e-06    0.010139    0.028695    0.028695    0.197236
    10        -0.313756777961815    5.623e-07    0.010139    0.028695    0.028695    0.197236
    11        -0.313756788867696    1.701e-07    0.010139    0.028695    0.028695    0.197236
    12        -0.313756791709888    4.210e-08    0.010139    0.028695    0.028695    0.197236

    Iterations converged.


    Largest TIA Amplitudes:
              5  71         0.0186270386
              5  70         0.0135249979
              5  68         0.0125391508
              5  72         0.0100672986
              4  62         0.0066554632
              1   4        -0.0060389023
              4  59         0.0059923984
              5  73         0.0057864759
              1  11        -0.0047602183
              1   1         0.0041268064

    Largest TIjAb Amplitudes:
      5   5  20  20        -0.0813120020
      5   5  19  20        -0.0622591134
      5   5  20  19        -0.0622591134
      5   5  19  19        -0.0486668306
      5   5  20  21        -0.0327160148
      5   5  21  20        -0.0327160148
      5   5  19  21        -0.0239535476
      5   5  21  19        -0.0239535476
      5   5  71  71        -0.0173616573
      2   2  59  59        -0.0171928398

    SCF energy       (wfn)                    =  -78.043588229669467
    Reference energy (file100)                =  -78.043588229669368

    Opposite-spin MP2 correlation energy      =   -0.221909088395707
    Same-spin MP2 correlation energy          =   -0.062724128756371
    Singles MP2 correlation energy            =   -0.000000000000000
    MP2 correlation energy                    =   -0.284633217152079
      * MP2 total energy                      =  -78.328221446821445

    Opposite-spin CCSD correlation energy     =   -0.256015396258177
    Same-spin CCSD correlation energy         =   -0.057741395451711
    Singles CCSD correlation energy           =    0.000000000000000
    CCSD correlation energy                   =   -0.313756791709888
      * CCSD total energy                     =  -78.357345021379260

            **************************
            *                        *
            *        CCTRIPLES       *
            *                        *
            **************************


    Wave function   =    CCSD_T
    Reference wfn   =      RHF

    Nuclear Rep. energy (wfn)                =   33.410684914907506
    SCF energy          (wfn)                =  -78.043588229669467
    Reference energy    (file100)            =  -78.043588229669368
    CCSD energy         (file100)            =   -0.313756791709888
    Total CCSD energy   (file100)            =  -78.357345021379260

    Number of ijk index combinations:               56
    Memory available in words        :     31250000000
    ~Words needed per explicit thread:           16384
    Number of threads for explicit ijk threading:   48

    (T) energy                                =   -0.011344645732925
      * CCSD(T) total energy                  =  -78.368689667112179


    Psi4 stopped on: Tuesday, 26 January 2021 06:39PM
    Psi4 wall time for execution: 0:00:09.78

*** Psi4 exiting successfully. Buy a developer a beer!
